Title
82264
    1SAPS     N    1   0.377   3.462  11.379  0.6241 -0.7294  0.0365
    1SAPS   HN1    2   0.295   3.474  11.316  1.2823 -2.7600 -1.3159
    1SAPS   HN2    3   0.455   3.418  11.327  0.9994  0.0664 -0.0982
    1SAPS   HN3    4   0.355   3.408  11.465 -0.8082  0.5559  0.5451
    1SAPS   C12    5   0.417   3.594  11.421  0.5321 -0.3028  0.2670
    1SAPS  H12A    6   0.337   3.642  11.474 -0.9165 -0.4358 -1.7034
    1SAPS   C13    7   0.546   3.599  11.517 -0.1194  0.0773  0.4320
    1SAPS  O13A    8   0.579   3.485  11.560  0.9717 -0.6949  0.3908
    1SAPS  O13B    9   0.593   3.700  11.570  0.2589 -0.4499  0.4566
    1SAPS   C11   10   0.448   3.676  11.297  0.0027 -0.2951 -0.2365
    1SAPS  H11A   11   0.533   3.631  11.241  0.6891  0.0289  0.5307
    1SAPS  H11B   12   0.497   3.769  11.333  0.3981 -1.1504  1.5133
    1SAPS     P   13   0.356   3.791  11.091 -0.0245 -0.7109  0.3917
    1SAPS   O13   14   0.230   3.859  11.044  0.0028  0.7085  0.7393
    1SAPS   O14   15   0.473   3.876  11.117  0.1307 -0.0180 -0.3052
    1SAPS   O12   16   0.323   3.704  11.218 -0.8268 -0.1619  0.2172
    1SAPS   O11   17   0.402   3.688  10.978  0.0699  0.3027  0.1254
    1SAPS    C1   18   0.360   3.549  10.978 -0.3747 -0.5667  0.0126
    1SAPS    HA   19   0.381   3.488  11.068 -3.3198 -2.2365 -0.3282
    1SAPS    HB   20   0.250   3.557  10.975 -0.3616  0.5521  1.4158
    1SAPS    C2   21   0.397   3.470  10.854  0.3435  0.7041 -0.4218
    1SAPS    HS   22   0.507   3.457  10.850  0.0270 -2.4311 -2.7184
    1SAPS   O21   23   0.344   3.539  10.744 -0.5526  0.0800 -0.0038
    1SAPS   C21   24   0.409   3.516  10.629  0.0301 -0.4010  0.1675
    1SAPS   O22   25   0.515   3.459  10.625 -0.9435  0.7342  0.7642
    1SAPS   C22   26   0.333   3.579  10.509 -0.1654  0.2390  0.1001
    1SAPS   H2R   27   0.228   3.601  10.538 -0.2142  0.1349  0.0027
    1SAPS   H2S   28   0.383   3.674  10.483 -2.0971  1.9003  1.9988
    1SAPS    C3   29   0.338   3.328  10.869  0.7177  0.2051 -0.6191
    1SAPS    HX   30   0.227   3.340  10.876  0.9591  2.4911  0.0423
    1SAPS    HY   31   0.367   3.282  10.966 -0.8277 -1.1338 -0.7273
    1SAPS   O31   32   0.380   3.234  10.757  0.0876 -0.9839 -0.3522
    1SAPS   C31   33   0.483   3.170  10.783 -0.4790  0.4831  0.4508
    1SAPS   O32   34   0.544   3.175  10.887 -0.1379 -0.1613 -0.1229
    1SAPS   C32   35   0.527   3.080  10.666  0.5825 -0.0231 -0.4158
    1SAPS   H2X   36   0.462   2.990  10.664 -1.0292  1.1101 -1.2126
    1SAPS   H2Y   37   0.627   3.039  10.690  0.8397  1.5343  1.3671
    1SAPS   C23   38   0.339   3.490  10.377  0.3570  0.2189 -0.6632
    1SAPS   H3R   39   0.296   3.396  10.418 -1.2492  1.1886 -0.0042
    1SAPS   H3S   40   0.447   3.488  10.352  0.0537 -2.3322 -2.0461
    1SAPS   C24   41   0.256   3.544  10.258  0.4687  0.5550  0.4725
    1SAPS   H4R   42   0.147   3.554  10.277  0.6908  1.5994  1.2611
    1SAPS   H4S   43   0.261   3.463  10.182 -0.8170 -1.7576  2.6609
    1SAPS   C25   44   0.290   3.673  10.196 -0.1777 -0.1079  0.6804
    1SAPS   H5R   45   0.352   3.741  10.257 -0.8917  0.9551  0.2559
    1SAPS   C26   46   0.271   3.712  10.071  0.6962 -0.1380 -0.3114
    1SAPS   H6R   47   0.315   3.810  10.048 -1.0276  1.2161  1.7138
    1SAPS   C27   48   0.220   3.634   9.954  0.1081 -0.1978 -0.3622
    1SAPS   H7R   49   0.186   3.531   9.981 -1.0790  0.0733 -0.7615
    1SAPS   H7S   50   0.305   3.612   9.886  0.2420 -3.0408  0.5769
    1SAPS   C28   51   0.114   3.709   9.884  0.0306  0.3547  0.0155
    1SAPS   H8R   52   0.015   3.701   9.930 -0.3222  0.8103 -0.6509
    1SAPS   C29   53   0.134   3.781   9.769 -0.3792 -0.2959 -0.4798
    1SAPS   H9R   54   0.049   3.829   9.718 -0.3744  0.5633  0.2876
    1SAPS  C210   55   0.266   3.813   9.706  0.0399  0.4745 -0.5578
    1SAPS  H10R   56   0.350   3.803   9.777  0.6284 -0.3669 -1.3489
    1SAPS  H10S   57   0.257   3.922   9.686  1.0261  0.6206 -0.2506
    1SAPS  C211   58   0.304   3.737   9.574 -0.1884 -0.0994 -0.4899
    1SAPS  H11R   59   0.319   3.629   9.588  1.1744  0.3662  2.4871
    1SAPS  C212   60   0.294   3.789   9.446  0.5411  1.2112 -0.2236
    1SAPS  H12R   61   0.314   3.714   9.369  1.8037 -0.0496  1.2705
    1SAPS  C213   62   0.255   3.935   9.402  0.2092  0.0330 -0.4948
    1SAPS  H13R   63   0.200   3.989   9.483  0.5800 -1.9999  1.1953
    1SAPS  H13S   64   0.189   3.935   9.313  2.1622 -0.9573 -1.9960
    1SAPS  C214   65   0.370   4.018   9.352 -0.5217 -0.5133 -0.7521
    1SAPS  H14R   66   0.393   4.109   9.410 -2.2260 -0.7410  0.3673
    1SAPS  C215   67   0.435   3.984   9.242 -0.4521 -0.2366  0.3430
    1SAPS  H15R   68   0.528   4.038   9.218 -0.9628  1.0844  1.2068
    1SAPS  C216   69   0.410   3.871   9.148  0.0850 -0.1674 -0.1636
    1SAPS  H16R   70   0.304   3.845   9.127  0.2171 -0.3012 -0.6811
    1SAPS  H16S   71   0.464   3.782   9.187 -0.1531  0.1825  0.9941
    1SAPS  C217   72   0.469   3.910   9.016  0.4523 -0.2624 -0.5448
    1SAPS  H17R   73   0.579   3.930   9.016  0.1723  1.4080  0.0815
    1SAPS  H17S   74   0.415   3.996   8.973 -4.1159 -1.4355  2.1961
    1SAPS  C218   75   0.458   3.797   8.911  0.7172  0.1358 -0.3557
    1SAPS  H18R   76   0.353   3.775   8.885  0.7569 -1.0482  0.3884
    1SAPS  H18S   77   0.504   3.705   8.954 -0.7932 -0.8988 -0.8782
    1SAPS  C219   78   0.516   3.839   8.774 -0.5560  0.0167  0.0974
    1SAPS  H19R   79   0.626   3.854   8.784 -0.2702  1.2788 -3.3637
    1SAPS  H19S   80   0.462   3.929   8.737  0.0371  0.1773 -0.3913
    1SAPS  C220   81   0.501   3.722   8.670 -0.2316  0.4017  0.0784
    1SAPS  H20R   82   0.552   3.632   8.710 -2.9052 -1.6529 -0.8288
    1SAPS  H20S   83   0.547   3.756   8.575 -0.2014 -0.3062 -0.1635
    1SAPS  H20T   84   0.396   3.689   8.657 -0.1468 -0.0874  0.5634
    1SAPS   C33   85   0.507   3.148  10.527  0.0864 -0.2247  0.1085
    1SAPS   H3X   86   0.566   3.241  10.516 -0.8348  0.3731  0.1500
    1SAPS   H3Y   87   0.401   3.179  10.513  0.2954 -0.3879 -2.4452
    1SAPS   C34   88   0.555   3.053  10.415  0.4427  0.2342  0.2636
    1SAPS   H4X   89   0.525   2.952  10.451 -1.0649  0.6318  0.1953
    1SAPS   H4Y   90   0.666   3.045  10.410  0.3299 -4.2483  0.6614
    1SAPS   C35   91   0.491   3.068  10.276  0.4083  0.2355 -0.0933
    1SAPS   H5X   92   0.381   3.066  10.290  0.5826 -1.2263  1.2712
    1SAPS   H5Y   93   0.515   2.972  10.226 -1.6639 -0.3465 -0.0324
    1SAPS   C36   94   0.536   3.198  10.193 -0.3693  0.3274 -0.2411
    1SAPS   H6X   95   0.645   3.189  10.173 -0.0448  0.8949  1.1327
    1SAPS   H6Y   96   0.518   3.284  10.261  0.3710  0.5920 -0.3618
    1SAPS   C37   97   0.471   3.205  10.052 -0.1654  0.6919 -0.7300
    1SAPS   H7X   98   0.369   3.236  10.082 -0.4398 -2.0763  1.6741
    1SAPS   H7Y   99   0.472   3.104  10.007  0.9259 -0.9932  2.7221
    1SAPS   C38  100   0.529   3.315   9.956  0.2753 -0.2492 -0.0254
    1SAPS   H8X  101   0.612   3.262   9.905  0.6541  2.2351 -2.2331
    1SAPS   H8Y  102   0.575   3.403  10.006 -2.2664  1.7702 -0.9960
    1SAPS   C39  103   0.436   3.357   9.843 -0.4729  0.1041 -0.3570
    1SAPS   H9X  104   0.490   3.438   9.791 -1.7881  2.0063  1.1167
    1SAPS   H9Y  105   0.342   3.389   9.894 -0.3531 -0.5950  0.3285
    1SAPS  C310  106   0.403   3.234   9.759 -0.4903  0.3345 -0.2107
    1SAPS  H10X  107   0.334   3.173   9.822  0.4146 -1.1716 -0.6117
    1SAPS  H10Y  108   0.495   3.178   9.728 -1.6698 -0.8227 -1.7839
    1SAPS  C311  109   0.349   3.257   9.623  0.0743 -0.4360  0.2561
    1SAPS  H11X  110   0.252   3.309   9.633  0.1460 -0.3661  0.5876
    1SAPS  H11Y  111   0.356   3.155   9.579  1.5377 -1.5238  2.7953
    1SAPS  C312  112   0.426   3.354   9.530  0.4375  1.1207  0.5955
    1SAPS  H12X  113   0.533   3.324   9.528  0.5886  1.6519  0.5084
    1SAPS  H12Y  114   0.415   3.455   9.575 -1.3186  0.5694  1.5230
    1SAPS  C313  115   0.359   3.351   9.389  0.4407  0.0919 -0.0834
    1SAPS  H13X  116   0.254   3.387   9.387  0.3707  0.1459  1.9052
    1SAPS  H13Y  117   0.374   3.250   9.347  1.4475  1.4702 -3.3391
    1SAPS  C314  118   0.438   3.439   9.299 -0.3854 -0.1741  0.4567
    1SAPS  H14X  119   0.544   3.406   9.300  0.1550  0.7726 -4.1033
    1SAPS  H14Y  120   0.442   3.541   9.344  0.2428  0.0878 -0.1777
    1SAPS  C315  121   0.381   3.447   9.153  0.1032 -0.6128 -0.3333
    1SAPS  H15X  122   0.462   3.499   9.097 -0.6395  0.7870 -0.1546
    1SAPS  H15Y  123   0.288   3.504   9.174 -1.2900 -3.4950  2.0434
    1SAPS  C316  124   0.329   3.320   9.084  0.9466 -0.1308  0.3384
    1SAPS  H16X  125   0.282   3.339   8.985 -0.4068 -3.9241  0.1021
    1SAPS  H16Y  126   0.253   3.272   9.148  1.7895 -2.9937 -0.6862
    1SAPS  C317  127   0.436   3.228   9.058 -0.5412  0.1148 -0.0522
    1SAPS  H17X  128   0.490   3.204   9.153 -0.0595  1.1365 -0.0562
    1SAPS  H17Y  129   0.519   3.268   8.995 -0.4143  0.3886  0.2839
    1SAPS  C318  130   0.398   3.093   8.988  0.3525  0.7665 -0.1037
    1SAPS  H18X  131   0.496   3.041   8.983 -0.5102 -0.8859 -0.5082
    1SAPS  H18Y  132   0.351   3.106   8.888  0.4218 -2.8779 -0.7437
    1SAPS  H18Z  133   0.316   3.046   9.046  0.0579 -0.2135 -1.2539
    2SAPS     N  134   4.409   5.605  11.189  0.1592  0.3087  0.2913
    2SAPS   HN1  135   4.467   5.565  11.112 -1.5600 -0.6389 -0.5604
    2SAPS   HN2  136   4.470   5.649  11.261  1.5156  2.1578 -1.8442
    2SAPS   HN3  137   4.360   5.528  11.239  0.6927  1.1048  2.1336
    2SAPS   C12  138   4.315   5.703  11.122  0.0243 -0.1617  0.0019
    2SAPS  H12A  139   4.249   5.746  11.197  1.4893  1.8083  0.2366
    2SAPS   C13  140   4.397   5.830  11.069  0.3242 -0.5868 -0.1731
    2SAPS  O13A  141   4.522   5.838  11.098 -0.4124  0.3598  0.4830
    2SAPS  O13B  142   4.342   5.907  10.989 -0.3355  0.2094 -0.4752
    2SAPS   C11  143   4.243   5.640  11.001  0.3289 -0.1800  0.2281
    2SAPS  H11A  144   4.319   5.624  10.922  0.5105 -0.5041  0.4694
    2SAPS  H11B  145   4.164   5.712  10.969 -0.5480 -0.3375  1.9301
    2SAPS     P  146   4.147   5.396  10.953 -0.2825 -0.2921 -0.2313
    2SAPS   O13  147   4.243   5.282  10.972 -0.8413 -0.1253 -0.7125
    2SAPS   O14  148   4.006   5.353  10.966  0.6062 -0.3683  0.4866
    2SAPS   O12  149   4.178   5.523  11.046  0.3616 -0.3304 -0.8360
    2SAPS   O11  150   4.159   5.455  10.802  0.1731  0.3310 -0.2565
    2SAPS    C1  151   4.069   5.551  10.747  0.1116  0.5208  0.0051
    2SAPS    HA  152   4.019   5.606  10.830 -2.3321  0.7175 -1.5069
    2SAPS    HB  153   4.115   5.634  10.689 -0.8627  2.0416  1.3207
    2SAPS    C2  154   3.962   5.496  10.647 -0.3264 -0.5059 -0.2257
    2SAPS    HS  155   3.905   5.425  10.711 -0.2937  0.2209  0.6444
    2SAPS   O21  156   4.021   5.430  10.539  0.3281  0.0228 -0.5664
    2SAPS   C21  157   4.034   5.298  10.546 -0.1056 -0.5058  0.1507
    2SAPS   O22  158   3.962   5.229  10.614  0.4673 -0.0683  0.0221
    2SAPS   C22  159   4.144   5.262  10.456 -0.2019 -0.2837  0.5025
    2SAPS   H2R  160   4.226   5.331  10.484 -1.2674  0.7309  1.1957
    2SAPS   H2S  161   4.171   5.156  10.476 -0.5002 -0.5009 -0.1822
    2SAPS    C3  162   3.872   5.610  10.589 -0.3221  0.1911  0.0818
    2SAPS    HX  163   3.833   5.665  10.677 -3.6776  1.5395 -2.0286
    2SAPS    HY  164   3.786   5.572  10.530 -1.0877 -0.4183  1.5422
    2SAPS   O31  165   3.949   5.702  10.514  0.1903  0.5162  0.0623
    2SAPS   C31  166   3.875   5.799  10.459  0.3390  0.3586 -0.1933
    2SAPS   O32  167   3.759   5.824  10.481  0.4070 -0.0241  0.3436
    2SAPS   C32  168   3.968   5.888  10.374 -0.5018  0.2922  0.1433
    2SAPS   H2X  169   4.073   5.851  10.379  0.3990  2.1395 -2.6946
    2SAPS   H2Y  170   3.958   5.989  10.420  0.2720  0.0254  0.9551
    2SAPS   C23  171   4.112   5.282  10.296 -0.3930 -0.1427 -0.6111
    2SAPS   H3R  172   4.105   5.393  10.291  2.1574  0.4590  3.5067
    2SAPS   H3S  173   4.015   5.239  10.266  0.8101 -2.3523 -1.5941
    2SAPS   C24  174   4.228   5.227  10.213  0.6721 -0.8377  0.1141
    2SAPS   H4R  175   4.321   5.256  10.266  0.2376 -0.7616  0.8542
    2SAPS   H4S  176   4.231   5.277  10.114 -1.3488  0.1558  0.4839
    2SAPS   C25  177   4.219   5.083  10.182 -0.6555 -0.0020  0.1153
    2SAPS   H5R  178   4.229   5.020  10.272 -0.5820 -0.6357 -0.3263
    2SAPS   C26  179   4.189   5.011  10.070 -0.9908 -0.4724 -0.0563
    2SAPS   H6R  180   4.188   4.901  10.069  1.7172 -0.6040 -2.3267
    2SAPS   C27  181   4.158   5.075   9.939 -0.4691  0.2754 -0.1184
    2SAPS   H7R  182   4.130   5.182   9.949  0.8527  0.5036  1.9231
    2SAPS   H7S  183   4.084   5.014   9.883  0.5168 -1.4185  0.3405
    2SAPS   C28  184   4.282   5.074   9.854 -0.0092  0.3983  0.1187
    2SAPS   H8R  185   4.378   5.082   9.907 -0.7037  0.7725  1.3700
    2SAPS   C29  186   4.287   5.097   9.723  0.1634 -0.2785 -0.5725
    2SAPS   H9R  187   4.385   5.088   9.675  1.1199  2.8572  0.5376
    2SAPS  C210  188   4.170   5.125   9.623  0.3413  0.1510  0.4943
    2SAPS  H10R  189   4.193   5.228   9.587  1.7964 -0.6425 -0.9945
    2SAPS  H10S  190   4.069   5.132   9.669  0.6279 -0.7386  1.2784
    2SAPS  C211  191   4.169   5.024   9.510  0.6628 -0.9379 -0.1460
    2SAPS  H11R  192   4.142   4.924   9.548  3.2755 -1.7974 -0.3423
    2SAPS  C212  193   4.200   5.041   9.379 -0.9926 -0.0150  0.1080
    2SAPS  H12R  194   4.186   4.962   9.303  2.3296  0.9453 -1.7049
    2SAPS  C213  195   4.257   5.161   9.307  0.3483 -0.0683 -0.3562
    2SAPS  H13R  196   4.257   5.252   9.371  1.1619  1.9435 -3.0133
    2SAPS  H13S  197   4.193   5.177   9.218  0.7961  0.3820 -0.6057
    2SAPS  C214  198   4.400   5.141   9.270  0.1541 -0.3677 -0.4308
    2SAPS  H14R  199   4.464   5.189   9.346 -1.3605 -0.5160  0.9840
    2SAPS  C215  200   4.453   5.082   9.163  0.1416 -0.3023  0.1754
    2SAPS  H15R  201   4.562   5.073   9.164  0.0301 -2.4180 -0.7282
    2SAPS  C216  202   4.378   5.023   9.041 -0.6126  0.2312  0.8190
    2SAPS  H16R  203   4.268   5.027   9.051 -0.7391 -0.2102 -0.2212
    2SAPS  H16S  204   4.393   4.913   9.036 -1.0907  0.2183 -1.6307
    2SAPS  C217  205   4.427   5.090   8.911 -0.1858  0.4416  0.6403
    2SAPS  H17R  206   4.401   5.022   8.826 -1.4100 -1.9970  2.8115
    2SAPS  H17S  207   4.538   5.091   8.911 -0.1266 -1.1334  2.1795
    2SAPS  C218  208   4.355   5.226   8.873 -0.9637  0.3908 -0.7409
    2SAPS  H18R  209   4.426   5.295   8.924 -0.7234  0.6945 -1.4769
    2SAPS  H18S  210   4.261   5.222   8.933 -0.8996 -0.5642 -0.6807
    2SAPS  C219  211   4.325   5.248   8.731 -0.2462 -0.1687 -0.4135
    2SAPS  H19R  212   4.244   5.323   8.715 -0.0319 -0.2402 -1.8896
    2SAPS  H19S  213   4.282   5.157   8.685 -0.0255  0.5404 -2.0934
    2SAPS  C220  214   4.446   5.297   8.652 -0.0769 -0.3884 -0.0277
    2SAPS  H20R  215   4.518   5.212   8.647  1.1282  0.5339  0.8522
    2SAPS  H20S  216   4.492   5.393   8.682 -2.5582  0.4141  1.5724
    2SAPS  H20T  217   4.405   5.309   8.550  0.5985 -2.1407 -0.5454
    2SAPS   C33  218   3.908   5.910  10.234  0.2751 -0.9612  0.6958
    2SAPS   H3X  219   3.801   5.940  10.241  0.0526 -1.5361 -0.1714
    2SAPS   H3Y  220   3.917   5.820  10.170  2.7603  0.7014 -1.4976
    2SAPS   C34  221   3.970   6.024  10.148 -0.3641  0.4751 -0.0010
    2SAPS   H4X  222   4.070   5.992  10.111 -0.3153 -0.2944  0.7479
    2SAPS   H4Y  223   3.993   6.104  10.222  0.3471  0.0512  0.2520
    2SAPS   C35  224   3.893   6.071  10.026  0.0182 -0.1245 -0.4850
    2SAPS   H5X  225   3.954   6.149   9.976 -0.2616 -1.1031 -2.4203
    2SAPS   H5Y  226   3.800   6.121  10.062  1.3853  1.1454  1.5181
    2SAPS   C36  227   3.856   5.969   9.924  0.0860  0.1080  0.0703
    2SAPS   H6X  228   3.762   5.914   9.947  0.7416 -0.9703  0.2547
    2SAPS   H6Y  229   3.938   5.895   9.916  1.2716  1.5440 -2.1560
    2SAPS   C37  230   3.840   6.026   9.772 -0.6191  0.0737 -0.0767
    2SAPS   H7X  231   3.942   6.061   9.745  0.5887 -0.3305  3.3874
    2SAPS   H7Y  232   3.774   6.116   9.774 -1.0195 -0.1879 -0.9974
    2SAPS   C38  233   3.792   5.923   9.670 -0.5462 -0.3625  0.2852
    2SAPS   H8X  234   3.701   5.884   9.720 -0.2453 -2.3993 -0.6752
    2SAPS   H8Y  235   3.864   5.839   9.660  1.3088  1.3319 -1.3086
    2SAPS   C39  236   3.756   5.988   9.535 -0.2761  0.3156  0.1058
    2SAPS   H9X  237   3.843   6.051   9.506  1.0655  0.4511  3.8504
    2SAPS   H9Y  238   3.665   6.050   9.549 -1.9442 -1.7705 -0.9097
    2SAPS  C310  239   3.721   5.884   9.429 -0.0016  0.0547  0.3352
    2SAPS  H10X  240   3.646   5.817   9.476  1.0907  0.3103  2.6212
    2SAPS  H10Y  241   3.810   5.821   9.404 -1.2598 -0.4718 -3.3833
    2SAPS  C311  242   3.680   5.956   9.298 -0.1859 -0.6927  0.4624
    2SAPS  H11X  243   3.759   6.014   9.245  0.4987 -2.2276 -0.2607
    2SAPS  H11Y  244   3.601   6.027   9.331 -0.5467 -0.5926 -0.5613
    2SAPS  C312  245   3.605   5.863   9.203  0.1473  0.5343 -0.1833
    2SAPS  H12X  246   3.543   5.806   9.276  1.1472 -0.7079 -0.2894
    2SAPS  H12Y  247   3.669   5.786   9.157  1.0577  1.5249 -0.6254
    2SAPS  C313  248   3.522   5.929   9.090  0.2102 -0.1330  0.3484
    2SAPS  H13X  249   3.576   6.020   9.057 -2.1595  1.8642  1.5928
    2SAPS  H13Y  250   3.423   5.954   9.135 -1.0086 -3.9123  0.1821
    2SAPS  C314  251   3.485   5.836   8.977  0.8103 -0.5033  0.0357
    2SAPS  H14X  252   3.380   5.854   8.949  1.2725 -2.8848 -4.1738
    2SAPS  H14Y  253   3.488   5.734   9.021  0.9830 -1.4975 -2.1194
    2SAPS  C315  254   3.575   5.842   8.858  0.4295 -0.4389 -0.2965
    2SAPS  H15X  255   3.683   5.823   8.875  0.5304  1.1540  1.1500
    2SAPS  H15Y  256   3.562   5.936   8.799  2.5564  0.9508  1.2680
    2SAPS  C316  257   3.539   5.724   8.763 -0.0104  0.5163 -0.1001
    2SAPS  H16X  258   3.432   5.725   8.733  0.3187  0.6208 -1.3496
    2SAPS  H16Y  259   3.551   5.631   8.821  2.4029  0.5554 -0.4124
    2SAPS  C317  260   3.627   5.714   8.649 -0.2374 -0.1289 -0.4805
    2SAPS  H17X  261   3.729   5.703   8.693  0.2674  0.6608 -1.3916
    2SAPS  H17Y  262   3.629   5.805   8.585  1.1820 -0.3839 -0.8472
    2SAPS  C318  263   3.595   5.596   8.561 -0.2652  0.8923  0.0788
    2SAPS  H18X  264   3.651   5.603   8.465 -0.1816 -1.5585 -0.1190
    2SAPS  H18Y  265   3.485   5.593   8.542  0.1811  1.2364 -3.1436
    2SAPS  H18Z  266   3.621   5.501   8.613  2.5841  2.1379  1.0983
    3SAPS     N  267   6.703   5.274  11.159  0.3664 -0.0768  0.3103
    3SAPS   HN1  268   6.732   5.298  11.256  1.4433 -0.7598  0.1684
    3SAPS   HN2  269   6.690   5.171  11.153  0.9854 -0.1948  0.9368
    3SAPS   HN3  270   6.779   5.306  11.094 -0.0222  1.5069  0.5828
    3SAPS   C12  271   6.565   5.320  11.107  0.1039 -0.1018  0.0515
    3SAPS  H12A  272   6.555   5.275  11.010  0.2535 -0.5928  0.2589
    3SAPS   C13  273   6.443   5.274  11.193  0.1928  0.4325  1.1182
    3SAPS  O13A  274   6.460   5.186  11.285 -0.0717  0.0800  0.7405
    3SAPS  O13B  275   6.330   5.303  11.148 -0.3290 -0.2272  0.7678
    3SAPS   C11  276   6.558   5.469  11.091  0.0905 -0.4576 -0.2757
    3SAPS  H11A  277   6.555   5.511  11.194 -1.4962  1.6613 -1.1240
    3SAPS  H11B  278   6.460   5.501  11.050 -0.5570 -2.0872 -0.0586
    3SAPS     P  279   6.713   5.662  11.009  0.0286 -0.0937  0.2397
    3SAPS   O13  280   6.614   5.735  11.095  0.2481  0.0154  0.6495
    3SAPS   O14  281   6.855   5.685  11.043 -0.5689 -0.3955 -0.1501
    3SAPS   O12  282   6.673   5.512  11.012 -0.0890 -0.1544  0.1970
    3SAPS   O11  283   6.690   5.710  10.858 -0.2524  0.0815 -0.5924
    3SAPS    C1  284   6.585   5.651  10.778  0.3594 -0.0740 -0.2663
    3SAPS    HA  285   6.630   5.568  10.720  0.0508  1.2347 -2.4727
    3SAPS    HB  286   6.501   5.621  10.844  1.4071  0.0647  1.1786
    3SAPS    C2  287   6.533   5.758  10.677 -1.0804 -0.2008  0.6089
    3SAPS    HS  288   6.464   5.707  10.606 -0.5374 -0.9862  0.6303
    3SAPS   O21  289   6.644   5.824  10.606  0.2937  0.3860  0.4925
    3SAPS   C21  290   6.688   5.750  10.503  0.2764  0.3127  0.5179
    3SAPS   O22  291   6.666   5.633  10.489 -0.3513 -0.1293  0.4004
    3SAPS   C22  292   6.756   5.846  10.404 -0.1774  0.3756  0.1615
    3SAPS   H2R  293   6.780   5.940  10.458  1.2005 -1.2504  2.5713
    3SAPS   H2S  294   6.861   5.810  10.392 -0.7804 -1.2561 -0.5532
    3SAPS    C3  295   6.452   5.871  10.741  0.4092 -0.3742 -0.1094
    3SAPS    HX  296   6.518   5.920  10.816  0.3851 -1.4939  0.6593
    3SAPS    HY  297   6.371   5.821  10.797  0.6168 -0.7480 -0.1392
    3SAPS   O31  298   6.392   5.961  10.642  0.1690 -0.3167 -0.1042
    3SAPS   C31  299   6.451   6.071  10.625  0.5459 -0.0428 -0.4816
    3SAPS   O32  300   6.567   6.097  10.652  0.1570  0.0473  0.4364
    3SAPS   C32  301   6.364   6.172  10.553  0.0019  0.5088 -0.6273
    3SAPS   H2X  302   6.327   6.249  10.624 -1.0204 -1.8832  1.6140
    3SAPS   H2Y  303   6.274   6.115  10.523 -0.6097  0.6205  0.9174
    3SAPS   C23  304   6.690   5.857  10.258  0.0332  0.2665  0.7193
    3SAPS   H3R  305   6.599   5.922  10.265 -0.2826  0.0343 -0.9069
    3SAPS   H3S  306   6.657   5.754  10.234 -0.3138  0.4394  0.4445
    3SAPS   C24  307   6.791   5.913  10.160 -0.4722  0.1919  1.0594
    3SAPS   H4R  308   6.873   5.841  10.140 -0.1491  0.8124  0.0516
    3SAPS   H4S  309   6.841   6.003  10.203  1.8278  0.4965 -1.8670
    3SAPS   C25  310   6.726   5.964  10.037 -0.1158 -0.8495  0.4907
    3SAPS   H5R  311   6.674   6.061  10.045  2.9012  0.8624  1.0642
    3SAPS   C26  312   6.724   5.904   9.921 -0.2215  0.3277  0.2340
    3SAPS   H6R  313   6.663   5.949   9.841 -1.9386 -0.8210  0.8372
    3SAPS   C27  314   6.798   5.776   9.880  0.2951  0.5727  0.5585
    3SAPS   H7R  315   6.808   5.707   9.966  1.3596 -0.9455 -0.7067
    3SAPS   H7S  316   6.901   5.803   9.849  0.4541  1.4020  1.7556
    3SAPS   C28  317   6.726   5.692   9.773 -0.1540  0.0094  0.3035
    3SAPS   H8R  318   6.618   5.673   9.786 -0.5807  1.2321 -1.1261
    3SAPS   C29  319   6.775   5.638   9.659  0.2386 -0.2630 -0.4900
    3SAPS   H9R  320   6.695   5.592   9.599 -1.5136  0.9292  0.8491
    3SAPS  C210  321   6.921   5.646   9.606  0.3738  0.3701 -0.0315
    3SAPS  H10R  322   6.970   5.732   9.657 -2.3155  0.6603  2.3893
    3SAPS  H10S  323   6.924   5.677   9.500  2.8546 -3.7964 -1.3858
    3SAPS  C211  324   7.003   5.522   9.608  0.5306 -0.1236  0.5470
    3SAPS  H11R  325   7.003   5.474   9.707 -1.4341 -0.5296  0.3846
    3SAPS  C212  326   7.071   5.455   9.514  0.1443  0.0968  0.0416
    3SAPS  H12R  327   7.121   5.362   9.545  0.7824  0.4326  0.0251
    3SAPS  C213  328   7.094   5.498   9.372 -0.3518  0.1240  0.8404
    3SAPS  H13R  329   7.037   5.584   9.332  2.0904  2.2730  1.6741
    3SAPS  H13S  330   7.064   5.417   9.302 -0.1966  2.5629 -2.2549
    3SAPS  C214  331   7.240   5.542   9.367 -0.0545 -0.6614  0.3695
    3SAPS  H14R  332   7.243   5.649   9.394 -2.6264 -0.8468  1.7020
    3SAPS  C215  333   7.350   5.480   9.343 -0.4207  0.0662  0.3907
    3SAPS  H15R  334   7.443   5.539   9.350 -1.1641  1.3854 -0.3004
    3SAPS  C216  335   7.357   5.329   9.305 -0.2306  0.2044  0.3095
    3SAPS  H16R  336   7.302   5.303   9.212 -0.3325  2.8061 -0.4431
    3SAPS  H16S  337   7.310   5.258   9.377  2.0941 -1.4845  0.2568
    3SAPS  C217  338   7.499   5.286   9.290 -0.4689  0.4140  0.6671
    3SAPS  H17R  339   7.501   5.176   9.279  1.1051  0.3902  0.8950
    3SAPS  H17S  340   7.555   5.315   9.382  0.1920 -0.3890  0.5289
    3SAPS  C218  341   7.567   5.344   9.158 -0.0995  0.7783 -1.1052
    3SAPS  H18R  342   7.675   5.324   9.169 -0.0855  1.2478 -0.2810
    3SAPS  H18S  343   7.568   5.455   9.161  2.4539  0.8472 -1.9136
    3SAPS  C219  344   7.524   5.278   9.025  0.7304  0.7099  0.2564
    3SAPS  H19R  345   7.417   5.294   8.999  1.1008  1.9897 -0.5912
    3SAPS  H19S  346   7.539   5.168   9.027 -0.6956  0.5078  1.2237
    3SAPS  C220  347   7.613   5.346   8.914 -0.6132 -0.8733 -0.5232
    3SAPS  H20R  348   7.604   5.456   8.923  1.9972 -0.4766 -2.0057
    3SAPS  H20S  349   7.591   5.307   8.812  1.4993 -3.5545 -0.0795
    3SAPS  H20T  350   7.718   5.315   8.930  0.0036  0.9676 -0.7810
    3SAPS   C33  351   6.429   6.239  10.428  0.0637 -0.1492  0.3884
    3SAPS   H3X  352   6.532   6.274  10.452  1.2427 -2.9660 -0.1547
    3SAPS   H3Y  353   6.366   6.327  10.401  0.3519 -0.2552 -0.6896
    3SAPS   C34  354   6.428   6.152  10.301 -0.1379  0.7508  0.8918
    3SAPS   H4X  355   6.448   6.046  10.329 -1.4387  0.5179  1.0212
    3SAPS   H4Y  356   6.502   6.184  10.224 -0.3745 -0.2501  0.2219
    3SAPS   C35  357   6.284   6.146  10.231 -0.1724  0.0450  0.3463
    3SAPS   H5X  358   6.213   6.114  10.310 -0.2098  1.0317  0.7295
    3SAPS   H5Y  359   6.303   6.070  10.152  1.4174  1.0114 -0.2628
    3SAPS   C36  360   6.236   6.275  10.165  0.1979  0.2834  0.6163
    3SAPS   H6X  361   6.327   6.323  10.123 -0.5833  0.7821 -0.5370
    3SAPS   H6Y  362   6.212   6.347  10.246  0.9271 -0.4256  1.4897
    3SAPS   C37  363   6.134   6.248  10.055 -0.0185  0.0694  0.0261
    3SAPS   H7X  364   6.052   6.323  10.064 -0.6567 -0.2451 -2.4018
    3SAPS   H7Y  365   6.091   6.149  10.081 -1.8687 -0.0496 -3.0125
    3SAPS   C38  366   6.179   6.239   9.916  0.0512 -0.5496  0.4134
    3SAPS   H8X  367   6.273   6.180   9.922 -0.3192 -1.0109  4.8746
    3SAPS   H8Y  368   6.211   6.340   9.882  2.3911 -0.9218  1.2963
    3SAPS   C39  369   6.073   6.164   9.829 -0.3968  0.4987 -0.1964
    3SAPS   H9X  370   5.975   6.206   9.859 -0.0551 -0.1873  2.0464
    3SAPS   H9Y  371   6.080   6.064   9.877  0.6337  0.7852  0.2744
    3SAPS  C310  372   6.090   6.165   9.681  0.2485 -0.8138 -0.2434
    3SAPS  H10X  373   6.182   6.110   9.654 -1.4901 -4.6472  1.0054
    3SAPS  H10Y  374   6.100   6.271   9.648  1.2637 -0.7026  0.4018
    3SAPS  C311  375   5.967   6.104   9.612  0.0466  0.3551 -0.3883
    3SAPS  H11X  376   5.881   6.172   9.628  0.2292  0.7722 -1.1168
    3SAPS  H11Y  377   5.950   6.005   9.660 -1.4520  0.2534 -1.0786
    3SAPS  C312  378   5.990   6.090   9.463 -0.1879 -0.0910  0.8256
    3SAPS  H12X  379   6.066   6.012   9.439 -0.1161  0.9231 -2.7388
    3SAPS  H12Y  380   6.036   6.186   9.432 -0.3584  0.1381  1.2700
    3SAPS  C313  381   5.867   6.061   9.377  0.3328  0.0184 -0.6486
    3SAPS  H13X  382   5.783   6.125   9.410 -1.5063 -1.9077 -1.3056
    3SAPS  H13Y  383   5.842   5.954   9.396 -0.4668  0.2978 -0.0400
    3SAPS  C314  384   5.906   6.092   9.233  0.3040 -0.5368  0.3304
    3SAPS  H14X  385   5.996   6.034   9.203  2.1539  2.7208 -0.8805
    3SAPS  H14Y  386   5.935   6.199   9.243 -3.6193  0.5269  2.6012
    3SAPS  C315  387   5.795   6.081   9.128  0.0502 -0.2298  0.3512
    3SAPS  H15X  388   5.726   6.153   9.177 -0.7379 -0.4706 -0.3793
    3SAPS  H15Y  389   5.748   5.980   9.136  3.3287 -1.9494 -0.2127
    3SAPS  C316  390   5.831   6.105   8.982 -0.3786 -0.2198  0.4009
    3SAPS  H16X  391   5.901   6.020   8.970  1.8447  1.2145  2.3048
    3SAPS  H16Y  392   5.888   6.198   8.960 -0.6060 -0.0210  0.6391
    3SAPS  C317  393   5.708   6.118   8.886 -0.0069  0.6034  0.5291
    3SAPS  H17X  394   5.646   6.199   8.930  0.1083  0.3971  1.0786
    3SAPS  H17Y  395   5.647   6.025   8.888  0.2118  0.3774 -1.2275
    3SAPS  C318  396   5.745   6.160   8.744  0.3580  0.6121 -0.5489
    3SAPS  H18X  397   5.780   6.266   8.744 -1.4652  1.2430 -0.6267
    3SAPS  H18Y  398   5.661   6.135   8.676  0.0131 -0.2211  0.1716
    3SAPS  H18Z  399   5.821   6.096   8.695  0.3312  0.3107 -0.1958
    4SAPS     N  400   0.534   1.877  11.112 -0.2836 -0.2274  0.5081
    4SAPS   HN1  401   0.596   1.862  11.194 -0.7719  0.0160  0.9214
    4SAPS   HN2  402   0.588   1.881  11.023  0.0637  1.4568  0.7521
    4SAPS   HN3  403   0.497   1.974  11.121 -2.7484 -0.9404 -0.9461
    4SAPS   C12  404   0.420   1.773  11.098 -1.4099 -0.2748  0.4464
    4SAPS  H12A  405   0.467   1.688  11.052 -1.0423  0.5535 -0.7651
    4SAPS   C13  406   0.349   1.734  11.231 -0.3731  0.7104  0.3851
    4SAPS  O13A  407   0.374   1.805  11.330  1.0277  0.1563 -0.1409
    4SAPS  O13B  408   0.250   1.656  11.226 -0.1552  0.2837 -0.7592
    4SAPS   C11  409   0.316   1.819  10.991 -0.0621 -0.2903 -0.0355
    4SAPS  H11A  410   0.268   1.908  11.038 -0.1713  1.6881 -3.5526
    4SAPS  H11B  411   0.232   1.747  10.981 -1.4223  1.2466 -0.1588
    4SAPS     P  412   0.287   1.918  10.750 -0.7067  0.1662 -0.6484
    4SAPS   O13  413   0.224   1.829  10.657  0.1112  0.1722  0.1225
    4SAPS   O14  414   0.197   2.019  10.814 -0.1708 -0.2436 -0.5142
    4SAPS   O12  415   0.365   1.843  10.860  0.1903 -0.1856  0.0685
    4SAPS   O11  416   0.411   1.995  10.686 -0.1850 -0.5284 -0.2195
    4SAPS    C1  417   0.547   1.950  10.685  0.3934  0.2411 -0.5602
    4SAPS    HA  418   0.578   1.928  10.789  1.2899 -0.8548 -1.0361
    4SAPS    HB  419   0.552   1.861  10.618 -2.5426 -1.7199  1.5799
    4SAPS    C2  420   0.639   2.068  10.633 -0.3348  0.0659  0.1625
    4SAPS    HS  421   0.610   2.163  10.682 -2.9464 -0.7592  0.4025
    4SAPS   O21  422   0.633   2.080  10.489  0.2793  0.3697  0.1864
    4SAPS   C21  423   0.685   2.187  10.434 -0.0497 -0.5457 -0.8667
    4SAPS   O22  424   0.750   2.274  10.487 -0.4330 -0.1866 -0.0333
    4SAPS   C22  425   0.656   2.180  10.282 -0.4724  0.7033  0.0106
    4SAPS   H2R  426   0.696   2.084  10.242  0.8369  1.8495 -1.5565
    4SAPS   H2S  427   0.546   2.179  10.265 -0.5738  2.5498  0.3791
    4SAPS    C3  428   0.785   2.037  10.673 -0.2842  0.3693 -0.1233
    4SAPS    HX  429   0.805   2.046  10.782  1.9037 -1.4246 -0.3152
    4SAPS    HY  430   0.855   2.105  10.620 -1.0648  1.4701  0.2339
    4SAPS   O31  431   0.820   1.903  10.635 -0.2629  0.0516  0.0179
    4SAPS   C31  432   0.877   1.877  10.520  0.1159 -0.3674  0.2473
    4SAPS   O32  433   0.912   1.961  10.436  0.2328  0.4621  0.0257
    4SAPS   C32  434   0.885   1.725  10.509  0.5906  0.1021  0.0154
    4SAPS   H2X  435   0.784   1.684  10.533  0.3194  0.2495 -0.8513
    4SAPS   H2Y  436   0.952   1.692  10.591 -0.6768 -1.1585  0.5961
    4SAPS   C23  437   0.715   2.291  10.198 -0.1276 -0.3066  0.3558
    4SAPS   H3R  438   0.824   2.294  10.221  0.2032 -2.3803 -0.6740
    4SAPS   H3S  439   0.658   2.382  10.227  1.0121  0.1835  1.1259
    4SAPS   C24  440   0.696   2.270  10.045  0.3179  0.3845 -0.6301
    4SAPS   H4R  441   0.688   2.368   9.993  1.6002  1.1566  0.5660
    4SAPS   H4S  442   0.602   2.213  10.030 -0.1658  0.5389  1.5486
    4SAPS   C25  443   0.805   2.189   9.972  0.4556  0.1917 -0.0229
    4SAPS   H5R  444   0.860   2.111  10.025  1.1617  0.8205  0.1924
    4SAPS   C26  445   0.818   2.182   9.839  0.3011  0.6947 -0.1997
    4SAPS   H6R  446   0.895   2.120   9.791 -0.1827  0.4630 -0.6867
    4SAPS   C27  447   0.731   2.251   9.739  0.3964  0.4112  0.2888
    4SAPS   H7R  448   0.761   2.357   9.723 -0.0814  0.4065 -0.7239
    4SAPS   H7S  449   0.629   2.261   9.784  0.2431 -1.1770  0.3368
    4SAPS   C28  450   0.715   2.166   9.610  0.2252 -0.3647  0.4225
    4SAPS   H8R  451   0.685   2.063   9.632  0.5788 -0.3122  1.1526
    4SAPS   C29  452   0.728   2.218   9.487 -0.0536  0.1108 -0.3926
    4SAPS   H9R  453   0.727   2.156   9.396  0.2567  1.2766 -1.1994
    4SAPS  C210  454   0.774   2.356   9.456  0.5971 -0.2383 -0.0102
    4SAPS  H10R  455   0.788   2.422   9.545 -0.2687 -1.2396  0.9037
    4SAPS  H10S  456   0.681   2.385   9.402  1.4795  0.8382 -0.9835
    4SAPS  C211  457   0.901   2.383   9.379 -0.6807  1.2521 -0.4840
    4SAPS  H11R  458   0.987   2.398   9.446  0.9965 -0.0412 -2.2428
    4SAPS  C212  459   0.916   2.383   9.247  0.0469 -0.4584  0.3254
    4SAPS  H12R  460   1.011   2.406   9.197 -0.3710  0.8897  0.0943
    4SAPS  C213  461   0.808   2.352   9.146 -0.1166  0.2426  0.5961
    4SAPS  H13R  462   0.758   2.262   9.189  1.0820 -0.3458  0.7796
    4SAPS  H13S  463   0.845   2.318   9.047 -0.0344  3.4306 -0.5700
    4SAPS  C214  464   0.702   2.461   9.139 -0.0325 -0.3995  0.3231
    4SAPS  H14R  465   0.684   2.499   9.241 -1.8398 -1.6229  0.5119
    4SAPS  C215  466   0.626   2.497   9.039 -0.5491 -0.3534 -0.3182
    4SAPS  H15R  467   0.581   2.597   9.050  0.7571  0.1689  0.4381
    4SAPS  C216  468   0.619   2.430   8.907 -0.1833  0.4864 -0.5216
    4SAPS  H16R  469   0.516   2.421   8.867  0.4805 -1.8978 -1.9131
    4SAPS  H16S  470   0.644   2.322   8.914 -0.4581  0.4464 -0.1151
    4SAPS  C217  471   0.719   2.488   8.804  0.4486 -0.1506 -0.5555
    4SAPS  H17R  472   0.718   2.419   8.717 -1.2395 -1.3138  0.3464
    4SAPS  H17S  473   0.823   2.467   8.838  0.6479 -2.3609 -2.2702
    4SAPS  C218  474   0.696   2.629   8.743  0.0871 -0.1235  0.5889
    4SAPS  H18R  475   0.610   2.664   8.803 -0.5775  1.8198 -1.3852
    4SAPS  H18S  476   0.668   2.615   8.636  0.8795  2.9295 -0.0994
    4SAPS  C219  477   0.809   2.726   8.764 -0.3941 -0.0865 -0.1514
    4SAPS  H19R  478   0.821   2.750   8.871  0.2266  1.3585 -0.5220
    4SAPS  H19S  479   0.793   2.820   8.707  2.3877 -0.2036 -1.2819
    4SAPS  C220  480   0.944   2.672   8.714 -0.8878  0.3943 -0.3073
    4SAPS  H20R  481   1.024   2.747   8.736  0.3069 -0.9300  0.0135
    4SAPS  H20S  482   0.936   2.647   8.606 -2.6208  2.3537 -0.7019
    4SAPS  H20T  483   0.982   2.582   8.767  1.2040  1.8034  0.7492
    4SAPS   C33  484   0.946   1.676  10.383 -0.2644 -0.1212  0.5074
    4SAPS   H3X  485   0.937   1.566  10.370  0.9324 -0.2023  0.2256
    4SAPS   H3Y  486   1.045   1.723  10.363 -0.6203  2.5758  4.1037
    4SAPS   C34  487   0.865   1.716  10.259  0.0226  0.1734 -0.3695
    4SAPS   H4X  488   0.864   1.827  10.255 -0.1308  0.2492  1.2977
    4SAPS   H4Y  489   0.762   1.676  10.267  0.3370 -1.3268 -2.6946
    4SAPS   C35  490   0.921   1.663  10.124  0.0272  1.2111  1.0172
    4SAPS   H5X  491   0.908   1.552  10.126 -0.1891  1.2456  1.9034
    4SAPS   H5Y  492   1.026   1.691  10.102  0.2431  0.5925  1.2353
    4SAPS   C36  493   0.821   1.717  10.014  0.2161  0.4679 -0.2009
    4SAPS   H6X  494   0.839   1.827  10.006  1.5306  0.4189  1.5142
    4SAPS   H6Y  495   0.718   1.701  10.052 -0.1461 -2.8360 -2.1609
    4SAPS   C37  496   0.827   1.649   9.878 -0.0410 -1.1209  0.0575
    4SAPS   H7X  497   0.802   1.542   9.895 -1.4975 -0.9797 -0.9348
    4SAPS   H7Y  498   0.928   1.671   9.838 -1.1327  2.3343 -1.2011
    4SAPS   C38  499   0.716   1.708   9.785  0.3254 -0.3119 -0.0256
    4SAPS   H8X  500   0.735   1.817   9.773  1.6684 -0.7733 -3.4782
    4SAPS   H8Y  501   0.616   1.691   9.830 -0.4117  1.1450 -1.0425
    4SAPS   C39  502   0.717   1.646   9.650 -0.4179 -0.8515  1.2289
    4SAPS   H9X  503   0.676   1.543   9.643 -0.1980 -0.9027  0.6129
    4SAPS   H9Y  504   0.825   1.646   9.622  0.1251  0.4631  3.1115
    4SAPS  C310  505   0.637   1.733   9.551 -0.0901  1.2112  0.7532
    4SAPS  H10X  506   0.687   1.832   9.548 -1.0995  1.7490  1.1994
    4SAPS  H10Y  507   0.531   1.732   9.585 -1.0845 -4.4519 -1.3657
    4SAPS  C311  508   0.602   1.660   9.417 -0.2613 -0.2738  0.1224
    4SAPS  H11X  509   0.539   1.571   9.440  0.0173 -0.1018  1.6502
    4SAPS  H11Y  510   0.691   1.602   9.385  0.1800  0.7193 -0.4899
    4SAPS  C312  511   0.539   1.749   9.307 -0.2282  0.1439  0.2076
    4SAPS  H12X  512   0.449   1.799   9.348 -0.5571  0.3452 -0.7277
    4SAPS  H12Y  513   0.512   1.684   9.220 -0.4333  1.7634 -0.9798
    4SAPS  C313  514   0.645   1.852   9.261 -0.0197  0.8254  0.0452
    4SAPS  H13X  515   0.731   1.782   9.250 -1.5749 -1.7344  2.6405
    4SAPS  H13Y  516   0.665   1.925   9.343  0.5593  2.0652 -1.1644
    4SAPS  C314  517   0.618   1.920   9.127  0.3210  0.1532  0.4057
    4SAPS  H14X  518   0.605   2.030   9.137  1.3218  0.1495  2.0114
    4SAPS  H14Y  519   0.525   1.876   9.085 -0.7047  0.1220  2.5751
    4SAPS  C315  520   0.718   1.896   9.009  0.2624  0.1700 -0.4863
    4SAPS  H15X  521   0.695   1.798   8.961 -0.5098 -0.8548  1.8403
    4SAPS  H15Y  522   0.822   1.894   9.049  0.5204  1.0708 -1.0807
    4SAPS  C316  523   0.710   2.011   8.911  0.9744 -0.2592  0.0428
    4SAPS  H16X  524   0.720   2.113   8.956  2.0810 -0.2360 -0.2302
    4SAPS  H16Y  525   0.611   2.015   8.861  0.5798 -0.4915  0.8027
    4SAPS  C317  526   0.803   1.991   8.789  0.2923 -0.0096 -0.2953
    4SAPS  H17X  527   0.794   1.889   8.746  1.5080 -0.6985  1.0174
    4SAPS  H17Y  528   0.904   2.007   8.833 -0.1906  1.1508  0.4501
    4SAPS  C318  529   0.786   2.091   8.671 -0.1066  0.2439 -0.1880
    4SAPS  H18X  530   0.810   2.196   8.696 -1.8485  0.9274 -1.2224
    4SAPS  H18Y  531   0.680   2.090   8.638  0.7908  0.9070 -3.3797
    4SAPS  H18Z  532   0.850   2.061   8.586  3.4359 -1.0901  2.6972
    5SAPS     N  533   6.022   1.164  11.125  0.1966  0.1842 -0.1029
    5SAPS   HN1  534   6.090   1.164  11.203  0.1832  1.6316 -0.0691
    5SAPS   HN2  535   6.038   1.075  11.074  2.3244  0.4913 -0.0490
    5SAPS   HN3  536   6.057   1.247  11.073 -2.4850  1.5163  0.0758
    5SAPS   C12  537   5.876   1.195  11.162 -0.2233  0.4368  0.4847
    5SAPS  H12A  538   5.838   1.107  11.213 -0.0910  0.2248  0.2198
    5SAPS   C13  539   5.859   1.320  11.257 -0.5592  0.3698  0.0501
    5SAPS  O13A  540   5.953   1.400  11.275 -0.2730  0.6045  0.0208
    5SAPS  O13B  541   5.748   1.330  11.311  0.4626  0.2810 -0.2142
    5SAPS   C11  542   5.794   1.226  11.037  0.3477  0.1391 -0.7882
    5SAPS  H11A  543   5.836   1.322  11.000 -1.3316  1.2107 -0.0316
    5SAPS  H11B  544   5.688   1.253  11.057 -0.2685 -2.5914  0.0382
    5SAPS     P  545   5.689   1.000  10.951  0.6083 -0.1522  0.2406
    5SAPS   O13  546   5.753   0.864  10.939  0.6293 -0.6813 -0.1426
    5SAPS   O14  547   5.589   1.025  11.058 -1.0504  0.1024 -0.2947
    5SAPS   O12  548   5.793   1.120  10.943 -0.8595 -0.0541  0.3307
    5SAPS   O11  549   5.617   1.018  10.814 -0.5809  0.2807 -0.3732
    5SAPS    C1  550   5.698   1.051  10.700  0.4388  0.0158 -0.0744
    5SAPS    HA  551   5.804   1.016  10.702  0.3777 -0.1638  0.0915
    5SAPS    HB  552   5.645   0.992  10.622 -1.9128  0.0567  1.4110
    5SAPS    C2  553   5.692   1.193  10.638 -0.3299  0.9522  0.5968
    5SAPS    HS  554   5.731   1.257  10.720  0.9411  0.2352  0.5845
    5SAPS   O21  555   5.548   1.233  10.633 -0.1542  0.5648  0.3776
    5SAPS   C21  556   5.534   1.368  10.616  0.1809  1.0065 -0.3143
    5SAPS   O22  557   5.625   1.449  10.607 -0.3659 -0.2598 -0.8259
    5SAPS   C22  558   5.392   1.398  10.584 -0.3163  0.4339 -0.1333
    5SAPS   H2R  559   5.325   1.312  10.606  1.1673 -0.6821  0.2021
    5SAPS   H2S  560   5.354   1.474  10.656 -3.2258 -1.5766  0.6325
    5SAPS    C3  561   5.768   1.214  10.510 -0.2577  0.3120 -0.5105
    5SAPS    HX  562   5.862   1.156  10.521  0.2585  1.4567  1.8234
    5SAPS    HY  563   5.794   1.323  10.508  0.4207  0.1897  0.6388
    5SAPS   O31  564   5.699   1.187  10.391 -0.1122  0.3884 -0.6083
    5SAPS   C31  565   5.711   1.068  10.338  1.1777 -0.0522  0.7087
    5SAPS   O32  566   5.770   0.973  10.383 -0.0210  0.3664 -0.1527
    5SAPS   C32  567   5.632   1.062  10.209 -0.2474  0.7204 -0.3620
    5SAPS   H2X  568   5.656   1.150  10.146  2.2022 -1.5071 -2.8116
    5SAPS   H2Y  569   5.524   1.057  10.234 -0.2373  0.0889 -0.4290
    5SAPS   C23  570   5.381   1.458  10.443  0.1919  0.4642  0.1007
    5SAPS   H3R  571   5.470   1.442  10.379 -1.0947 -1.5772 -1.2911
    5SAPS   H3S  572   5.371   1.568  10.456  0.0731  0.5629 -0.7854
    5SAPS   C24  573   5.254   1.417  10.369 -0.8434 -0.1895  0.3977
    5SAPS   H4R  574   5.244   1.477  10.276 -0.6425 -1.7728 -0.6647
    5SAPS   H4S  575   5.168   1.433  10.438 -0.9019  0.9623  0.0938
    5SAPS   C25  576   5.255   1.270  10.331 -0.7960 -0.3951 -0.1076
    5SAPS   H5R  577   5.293   1.198  10.404 -0.5658  1.8468  2.1104
    5SAPS   C26  578   5.228   1.223  10.210 -0.6140  0.4543  0.8539
    5SAPS   H6R  579   5.214   1.115  10.198 -1.2133  0.5780  0.4135
    5SAPS   C27  580   5.192   1.296  10.084  0.8103 -1.2366  0.0836
    5SAPS   H7R  581   5.201   1.405  10.102 -0.0463 -1.2088  0.3810
    5SAPS   H7S  582   5.082   1.292  10.068  0.5505 -1.3345  1.7295
    5SAPS   C28  583   5.262   1.257   9.955  0.0469 -0.0749  0.6973
    5SAPS   H8R  584   5.212   1.181   9.892  0.6852  1.0249 -1.2280
    5SAPS   C29  585   5.379   1.302   9.913 -0.0363  0.6958  0.2047
    5SAPS   H9R  586   5.429   1.271   9.820 -1.2264  0.3793 -0.3537
    5SAPS  C210  587   5.460   1.405   9.991 -0.2097  0.4219 -0.5246
    5SAPS  H10R  588   5.565   1.386   9.960 -0.4907 -0.7672 -0.8086
    5SAPS  H10S  589   5.460   1.386  10.100  0.3663  0.9374 -0.4273
    5SAPS  C211  590   5.424   1.551   9.975 -0.4489 -0.2372  0.1662
    5SAPS  H11R  591   5.373   1.582  10.067  0.6447 -0.1502  0.7568
    5SAPS  C212  592   5.426   1.626   9.864  0.4738 -0.7984  0.0055
    5SAPS  H12R  593   5.404   1.733   9.876  1.3344 -0.7162  0.9540
    5SAPS  C213  594   5.491   1.580   9.734  0.4377  0.8970 -0.2177
    5SAPS  H13R  595   5.420   1.543   9.657  1.4881 -1.9640  0.0656
    5SAPS  H13S  596   5.557   1.491   9.748  0.2235  0.8181  0.3105
    5SAPS  C214  597   5.571   1.683   9.659 -0.4390  0.3095  0.4304
    5SAPS  H14R  598   5.569   1.786   9.699  1.8006 -0.1379  1.8732
    5SAPS  C215  599   5.622   1.663   9.532  0.8268  0.5656 -0.5871
    5SAPS  H15R  600   5.659   1.747   9.471 -0.5035  0.7202 -1.2093
    5SAPS  C216  601   5.600   1.532   9.454 -0.3687 -0.0328 -0.8250
    5SAPS  H16R  602   5.586   1.439   9.513  0.8416 -1.3094 -2.4423
    5SAPS  H16S  603   5.684   1.499   9.389 -0.5594  0.1313 -1.1625
    5SAPS  C217  604   5.476   1.557   9.362  0.0609 -0.7653 -0.5864
    5SAPS  H17R  605   5.395   1.600   9.424 -0.6464  0.9625 -2.5904
    5SAPS  H17S  606   5.452   1.455   9.325 -1.8361 -0.2675 -0.8365
    5SAPS  C218  607   5.502   1.646   9.240  0.2238 -0.2359  0.6058
    5SAPS  H18R  608   5.560   1.739   9.259 -1.8534  1.5282 -1.1744
    5SAPS  H18S  609   5.569   1.586   9.175  0.3967 -0.5953  1.1037
    5SAPS  C219  610   5.373   1.685   9.172  0.3813 -0.3499 -0.4964
    5SAPS  H19R  611   5.334   1.782   9.211  0.8267 -0.1757 -0.4808
    5SAPS  H19S  612   5.291   1.611   9.184  2.4269 -2.5207  0.8031
    5SAPS  C220  613   5.400   1.715   9.026  0.3396 -0.0958 -0.0312
    5SAPS  H20R  614   5.432   1.628   8.965  0.5535  0.2525 -0.4160
    5SAPS  H20S  615   5.479   1.793   9.025 -0.3830  0.6553  0.0014
    5SAPS  H20T  616   5.305   1.760   8.991 -0.0158 -0.0835  0.9221
    5SAPS   C33  617   5.659   0.935  10.121 -0.0038  0.8826 -0.1790
    5SAPS   H3X  618   5.633   0.850  10.187  1.6970  0.5909  0.1685
    5SAPS   H3Y  619   5.768   0.926  10.101 -0.2576 -2.1227 -0.5598
    5SAPS   C34  620   5.571   0.950   9.999  0.2800 -0.6602  0.2492
    5SAPS   H4X  621   5.473   0.996  10.024 -0.0888  0.4182 -2.8136
    5SAPS   H4Y  622   5.551   0.843   9.974 -0.3241 -0.5728  0.3279
    5SAPS   C35  623   5.624   1.025   9.871 -0.0660 -0.2481  1.1772
    5SAPS   H5X  624   5.730   0.999   9.854  1.0484  3.4251  1.7371
    5SAPS   H5Y  625   5.620   1.135   9.887  0.1439 -0.3751  2.1434
    5SAPS   C36  626   5.542   0.978   9.746  0.6334 -0.1691 -0.0997
    5SAPS   H6X  627   5.436   0.978   9.779  1.1893  4.0537  2.3533
    5SAPS   H6Y  628   5.567   0.871   9.728  0.1342 -0.0609 -1.6242
    5SAPS   C37  629   5.573   1.047   9.615 -0.2314  0.0000 -0.1538
    5SAPS   H7X  630   5.683   1.042   9.598  0.0985  1.5383  1.2308
    5SAPS   H7Y  631   5.556   1.156   9.625  1.7320  0.3167  0.1897
    5SAPS   C38  632   5.500   0.980   9.493  0.2572 -0.2047 -0.2743
    5SAPS   H8X  633   5.391   1.001   9.488  0.4031  0.3612 -1.2428
    5SAPS   H8Y  634   5.519   0.871   9.505 -1.0474 -0.3213  1.1349
    5SAPS   C39  635   5.568   1.023   9.358 -0.3264 -0.4324 -0.6074
    5SAPS   H9X  636   5.678   1.035   9.372  0.1982 -2.0765 -2.8099
    5SAPS   H9Y  637   5.534   1.127   9.336  1.7641  0.1204 -1.5021
    5SAPS  C310  638   5.535   0.935   9.238 -0.2153  0.4394  0.5300
    5SAPS  H10X  639   5.425   0.920   9.227 -0.1785 -1.1927  1.9960
    5SAPS  H10Y  640   5.578   0.833   9.248  1.6160  0.9921 -1.1106
    5SAPS  C311  641   5.593   0.992   9.101  0.1128  0.0523 -0.0584
    5SAPS  H11X  642   5.589   0.913   9.022 -0.8336 -0.2387  0.2715
    5SAPS  H11Y  643   5.701   1.005   9.123 -0.1190  2.6941 -0.2150
    5SAPS  C312  644   5.545   1.133   9.063  0.2204  0.2077  0.4343
    5SAPS  H12X  645   5.563   1.219   9.131 -1.5586  0.3886  0.7271
    5SAPS  H12Y  646   5.438   1.118   9.037  0.4994 -3.3661  0.9456
    5SAPS  C313  647   5.604   1.177   8.927  0.4664  0.4706  0.2225
    5SAPS  H13X  648   5.593   1.089   8.860 -1.4191 -0.5925  1.8284
    5SAPS  H13Y  649   5.711   1.207   8.937  0.5072  1.0955 -1.6491
    5SAPS  C314  650   5.541   1.310   8.865  0.2906  0.6153 -0.0970
    5SAPS  H14X  651   5.624   1.342   8.798  1.4130 -1.7249  0.0834
    5SAPS  H14Y  652   5.522   1.384   8.945 -2.4629  0.1846 -0.2641
    5SAPS  C315  653   5.400   1.298   8.810  1.0247 -0.3479 -0.3359
    5SAPS  H15X  654   5.345   1.233   8.882  0.3289 -0.0210 -0.5632
    5SAPS  H15Y  655   5.401   1.247   8.711 -0.4060 -1.1889  0.0539
    5SAPS  C316  656   5.314   1.426   8.794  0.4015  0.2582 -0.8051
    5SAPS  H16X  657   5.314   1.470   8.896 -1.1058  1.1593 -1.1642
    5SAPS  H16Y  658   5.211   1.403   8.759  0.6511  0.0989 -1.4392
    5SAPS  C317  659   5.379   1.536   8.696  1.3417  0.0598  0.3309
    5SAPS  H17X  660   5.463   1.589   8.743  2.1648 -2.0441  1.3677
    5SAPS  H17Y  661   5.295   1.609   8.690 -1.0927 -2.3385  2.3536
    5SAPS  C318  662   5.406   1.476   8.551  0.6049 -0.1841  0.4730
    5SAPS  H18X  663   5.481   1.394   8.561  1.8122  0.8641  0.1354
    5SAPS  H18Y  664   5.449   1.552   8.483  0.5685 -1.3226 -0.8785
    5SAPS  H18Z  665   5.320   1.427   8.499 -1.0771  2.1067  0.9390
    6SAPS     N  666   4.083   1.395  10.762  0.2626 -0.5967  0.0792
    6SAPS   HN1  667   4.069   1.346  10.672 -0.6034 -2.2701  1.0681
    6SAPS   HN2  668   4.063   1.497  10.757  0.0317 -0.5965  0.8548
    6SAPS   HN3  669   4.187   1.405  10.768  0.0998  1.8550 -0.0149
    6SAPS   C12  670   4.035   1.330  10.885 -0.3304  0.4507  0.9527
    6SAPS  H12A  671   4.092   1.238  10.889  0.2297  0.6797 -0.7497
    6SAPS   C13  672   4.072   1.401  11.015 -0.7530  0.0793 -0.5314
    6SAPS  O13A  673   4.145   1.507  11.012 -0.8364 -0.1775  0.5745
    6SAPS  O13B  674   4.039   1.353  11.128 -0.2381 -0.2971 -0.6080
    6SAPS   C11  675   3.886   1.306  10.879  0.1086 -0.5756  0.3861
    6SAPS  H11A  676   3.836   1.405  10.875  0.5184 -0.3332  1.0138
    6SAPS  H11B  677   3.852   1.257  10.973 -0.5536 -0.1248  0.3813
    6SAPS     P  678   3.787   1.259  10.643 -0.2011 -0.1720  0.0382
    6SAPS   O13  679   3.716   1.137  10.604  0.0910 -0.2782  0.2143
    6SAPS   O14  680   3.709   1.383  10.651 -0.1066  0.1477  0.7134
    6SAPS   O12  681   3.859   1.216  10.776  0.3354  0.2941 -0.1641
    6SAPS   O11  682   3.915   1.273  10.555 -0.2508 -0.2064  0.2925
    6SAPS    C1  683   4.008   1.173  10.532 -0.4136 -0.3087 -0.3135
    6SAPS    HA  684   4.058   1.148  10.628 -2.3247 -0.1743  0.7660
    6SAPS    HB  685   3.962   1.085  10.482 -1.7289  0.0280  0.2599
    6SAPS    C2  686   4.121   1.223  10.440  0.3783  0.2058 -1.0077
    6SAPS    HS  687   4.205   1.150  10.444  0.2319 -0.0420 -2.1317
    6SAPS   O21  688   4.158   1.357  10.477  0.0814  0.6611 -0.1513
    6SAPS   C21  689   4.284   1.392  10.450 -0.4070 -0.1534  0.1964
    6SAPS   O22  690   4.373   1.315  10.404  0.5008 -0.3465 -0.0584
    6SAPS   C22  691   4.302   1.544  10.474  0.1088  0.1157 -0.5942
    6SAPS   H2R  692   4.211   1.599  10.442  0.5546  1.1458 -0.1572
    6SAPS   H2S  693   4.309   1.555  10.585  0.3337  0.2171 -0.6183
    6SAPS    C3  694   4.065   1.237  10.297 -0.0557 -0.3004 -1.3779
    6SAPS    HX  695   3.994   1.322  10.304 -0.3888 -0.4993 -2.2113
    6SAPS    HY  696   4.001   1.148  10.276 -0.7786 -0.4891  1.3005
    6SAPS   O31  697   4.170   1.273  10.201  0.1433  0.2210  0.3041
    6SAPS   C31  698   4.222   1.168  10.145 -0.4241  0.5117 -0.1763
    6SAPS   O32  699   4.178   1.053  10.149  0.0038 -0.2955  1.4677
    6SAPS   C32  700   4.364   1.199  10.096  0.0261 -0.7724  0.6250
    6SAPS   H2X  701   4.420   1.112  10.056  1.0227 -0.1859  0.7251
    6SAPS   H2Y  702   4.425   1.240  10.179  0.4271 -2.5556  1.2361
    6SAPS   C23  703   4.418   1.604  10.401 -0.9884  0.1220  0.3701
    6SAPS   H3R  704   4.510   1.546  10.423  0.0548  1.9007  0.9026
    6SAPS   H3S  705   4.439   1.703  10.447 -0.4897  0.6263 -0.9138
    6SAPS   C24  706   4.393   1.634  10.251  0.3819  0.5526  0.6561
    6SAPS   H4R  707   4.303   1.698  10.237  0.5436  0.1846 -2.8440
    6SAPS   H4S  708   4.371   1.536  10.202 -0.6581 -0.1639  2.4393
    6SAPS   C25  709   4.515   1.698  10.192 -0.2141  0.2125 -0.0794
    6SAPS   H5R  710   4.599   1.710  10.262 -0.2562 -0.8079  0.1573
    6SAPS   C26  711   4.525   1.775  10.081  1.2995  0.1285 -0.7679
    6SAPS   H6R  712   4.625   1.800  10.045  1.7054 -0.1619  0.1323
    6SAPS   C27  713   4.406   1.803   9.989 -0.2137  0.2574  0.1896
    6SAPS   H7R  714   4.305   1.777  10.029  0.4670 -1.4245  0.9075
    6SAPS   H7S  715   4.420   1.733   9.904 -0.5306 -0.7689  0.9624
    6SAPS   C28  716   4.418   1.949   9.948  0.1527  0.4334 -0.3686
    6SAPS   H8R  717   4.367   2.027  10.006  2.0252  0.3724  1.4996
    6SAPS   C29  718   4.456   1.985   9.826 -0.3489 -0.8754  0.0650
    6SAPS   H9R  719   4.443   2.092   9.805 -0.4938 -0.8243  0.4171
    6SAPS  C210  720   4.521   1.901   9.711  0.6089 -0.1455  0.0727
    6SAPS  H10R  721   4.489   1.798   9.736  0.0527 -0.2298 -0.9283
    6SAPS  H10S  722   4.630   1.916   9.729  0.8130  1.6218 -2.1337
    6SAPS  C211  723   4.495   1.941   9.572  0.8123 -0.5510  0.9790
    6SAPS  H11R  724   4.553   2.027   9.536  0.0259  0.0720  1.1652
    6SAPS  C212  725   4.410   1.883   9.484 -0.2499 -0.9028  0.2687
    6SAPS  H12R  726   4.418   1.913   9.379 -0.1700 -0.5666  0.3681
    6SAPS  C213  727   4.325   1.763   9.491 -0.1646 -0.1021 -0.5562
    6SAPS  H13R  728   4.331   1.727   9.596 -1.4665 -0.9191 -0.7391
    6SAPS  H13S  729   4.363   1.678   9.430 -0.9760 -1.1352  0.3239
    6SAPS  C214  730   4.185   1.796   9.447  1.2311  0.3260  0.0008
    6SAPS  H14R  731   4.134   1.876   9.502 -0.5496  0.3981 -1.6469
    6SAPS  C215  732   4.116   1.732   9.350  0.0343  0.0555 -0.4337
    6SAPS  H15R  733   4.011   1.755   9.325  0.1754  1.1503 -0.0793
    6SAPS  C216  734   4.171   1.610   9.279  0.3122 -0.0268 -0.5925
    6SAPS  H16R  735   4.102   1.523   9.278 -0.4999  0.5825  0.3183
    6SAPS  H16S  736   4.264   1.570   9.326  1.6005  2.0211 -1.2471
    6SAPS  C217  737   4.223   1.635   9.143 -0.1846  0.0148  0.1428
    6SAPS  H17R  738   4.291   1.723   9.141  0.1670 -0.2621 -0.6011
    6SAPS  H17S  739   4.136   1.669   9.083 -1.2002 -0.2669  1.4167
    6SAPS  C218  740   4.308   1.528   9.079  0.2124 -0.8462  0.2333
    6SAPS  H18R  741   4.240   1.454   9.031  0.0721 -0.5979  0.0492
    6SAPS  H18S  742   4.381   1.484   9.150 -0.1070  0.5207  1.4413
    6SAPS  C219  743   4.393   1.582   8.961  0.9327 -0.0546 -0.1395
    6SAPS  H19R  744   4.447   1.670   9.002  1.5760 -0.5837  0.1843
    6SAPS  H19S  745   4.332   1.606   8.872  0.7377 -1.0465 -0.2874
    6SAPS  C220  746   4.489   1.471   8.915  0.0144 -0.3276 -0.2920
    6SAPS  H20R  747   4.573   1.506   8.851  0.1150  0.8149  0.4182
    6SAPS  H20S  748   4.436   1.407   8.842 -1.5024  0.9548 -0.3633
    6SAPS  H20T  749   4.529   1.421   9.006 -0.4413 -0.2251 -0.0361
    6SAPS   C33  750   4.357   1.319   9.998  0.1211  0.2565  0.3427
    6SAPS   H3X  751   4.454   1.373  10.005 -0.5347  1.2735  2.5564
    6SAPS   H3Y  752   4.278   1.392  10.028  0.2522  0.4500  0.2238
    6SAPS   C34  753   4.328   1.272   9.856 -0.7687 -0.0442 -0.0425
    6SAPS   H4X  754   4.242   1.202   9.855 -0.9948  0.2237  0.3310
    6SAPS   H4Y  755   4.417   1.218   9.818 -1.7655 -1.1070 -0.9511
    6SAPS   C35  756   4.287   1.389   9.765 -0.5788  0.5239 -0.2924
    6SAPS   H5X  757   4.354   1.476   9.780 -0.8560  0.4576  1.7122
    6SAPS   H5Y  758   4.188   1.419   9.807 -1.3726 -1.4525 -0.6374
    6SAPS   C36  759   4.274   1.351   9.623 -0.4869  0.2868 -0.1611
    6SAPS   H6X  760   4.357   1.279   9.606 -0.0263  0.9917 -0.9891
    6SAPS   H6Y  761   4.305   1.441   9.566 -0.9098 -0.5205 -1.7462
    6SAPS   C37  762   4.139   1.304   9.588  0.0951  0.3850  0.1734
    6SAPS   H7X  763   4.067   1.389   9.590 -1.5214 -0.4628 -5.3604
    6SAPS   H7Y  764   4.097   1.217   9.642 -0.9264  0.4999 -0.4190
    6SAPS   C38  765   4.127   1.255   9.440 -0.2839 -0.5401 -0.6027
    6SAPS   H8X  766   4.184   1.160   9.435  2.0377  0.6997  0.5305
    6SAPS   H8Y  767   4.182   1.330   9.378 -2.1384  0.1395 -1.5045
    6SAPS   C39  768   3.981   1.248   9.397 -0.0903 -0.3951 -0.5198
    6SAPS   H9X  769   3.948   1.352   9.376  2.9429  0.6770 -0.3750
    6SAPS   H9Y  770   3.907   1.213   9.472 -1.2318 -2.8698 -2.6069
    6SAPS  C310  771   3.958   1.175   9.264  0.8843  0.2611 -0.6444
    6SAPS  H10X  772   3.961   1.067   9.291  0.3288  0.3998 -0.0242
    6SAPS  H10Y  773   4.038   1.210   9.196  0.8762  1.0957 -0.2289
    6SAPS  C311  774   3.824   1.200   9.196 -0.2115 -0.2025 -0.3753
    6SAPS  H11X  775   3.743   1.190   9.271  0.9500  0.2159  0.9783
    6SAPS  H11Y  776   3.807   1.122   9.119 -3.0540 -1.2854  1.2475
    6SAPS  C312  777   3.811   1.336   9.125 -0.1902  0.4369 -0.2438
    6SAPS  H12X  778   3.804   1.410   9.208 -3.0028 -1.2751  1.2029
    6SAPS  H12Y  779   3.706   1.337   9.087 -0.2580 -2.1040 -0.2542
    6SAPS  C313  780   3.903   1.368   9.009  0.3351 -0.4995 -0.8098
    6SAPS  H13X  781   3.886   1.296   8.926 -1.0411 -1.9610  0.6504
    6SAPS  H13Y  782   4.012   1.366   9.032  0.3368  4.0544  0.5153
    6SAPS  C314  783   3.892   1.513   8.946  0.0382  0.0831 -0.3533
    6SAPS  H14X  784   3.919   1.591   9.020 -1.0203 -0.3223  0.4923
    6SAPS  H14Y  785   3.784   1.527   8.923  0.3757  0.4581 -1.8291
    6SAPS  C315  786   3.974   1.533   8.816  0.2175 -0.0778 -0.8538
    6SAPS  H15X  787   3.947   1.447   8.752 -0.4486 -0.5880  0.0901
    6SAPS  H15Y  788   4.084   1.536   8.831 -0.0746  1.5277  1.3894
    6SAPS  C316  789   3.958   1.672   8.737 -0.0781  0.4382 -0.3519
    6SAPS  H16X  790   3.848   1.679   8.724  0.1383  3.2095 -1.5323
    6SAPS  H16Y  791   4.010   1.647   8.642  1.7138 -0.4223  0.7926
    6SAPS  C317  792   4.013   1.793   8.808 -0.5008 -0.2650  0.5190
    6SAPS  H17X  793   4.124   1.789   8.797 -0.6364 -0.8843 -0.9623
    6SAPS  H17Y  794   3.973   1.796   8.911 -1.0901 -0.8447  0.3184
    6SAPS  C318  795   3.972   1.919   8.726 -0.1335  0.1009  0.6597
    6SAPS  H18X  796   3.983   1.912   8.615 -1.4730  1.0334  0.4414
    6SAPS  H18Y  797   4.022   2.007   8.771  1.5871  0.4214 -1.6913
    6SAPS  H18Z  798   3.862   1.920   8.744 -0.3745  1.5156 -0.6799
    7SAPS     N  799   6.152   0.714  11.071  0.5525  0.4165 -0.2979
    7SAPS   HN1  800   6.224   0.768  11.018 -0.1417  1.3181 -0.3326
    7SAPS   HN2  801   6.055   0.733  11.040  0.5773 -0.2836 -0.8380
    7SAPS   HN3  802   6.152   0.734  11.173  0.6285  1.7889 -0.5452
    7SAPS   C12  803   6.170   0.566  11.030 -0.2165  0.1364 -0.2934
    7SAPS  H12A  804   6.248   0.538  11.100  0.4725  1.3903 -0.5261
    7SAPS   C13  805   6.066   0.459  11.038  0.3378 -0.0550  0.2011
    7SAPS  O13A  806   5.945   0.495  11.070  0.0939  0.3468  0.2490
    7SAPS  O13B  807   6.090   0.339  11.001  0.2851  0.0342 -0.6110
    7SAPS   C11  808   6.228   0.575  10.887  0.8400  0.1491 -0.4552
    7SAPS  H11A  809   6.152   0.606  10.812  1.1435 -0.4596 -1.0272
    7SAPS  H11B  810   6.263   0.472  10.864  0.4874 -0.4268  1.4355
    7SAPS     P  811   6.382   0.737  10.744 -0.0933  0.3832 -0.0270
    7SAPS   O13  812   6.285   0.843  10.710  0.0183  0.3101 -0.3630
    7SAPS   O14  813   6.520   0.780  10.761 -0.5298  0.5830 -0.2715
    7SAPS   O12  814   6.337   0.672  10.877  0.7657  0.5276  0.5450
    7SAPS   O11  815   6.371   0.623  10.634 -0.1973 -0.4448 -0.8963
    7SAPS    C1  816   6.478   0.592  10.558 -0.3843 -0.0776  0.5988
    7SAPS    HA  817   6.572   0.571  10.613 -0.9122  0.9320  1.9498
    7SAPS    HB  818   6.448   0.499  10.505  0.8419 -0.3309  0.3353
    7SAPS    C2  819   6.510   0.685  10.431  0.5705 -0.6632 -0.3311
    7SAPS    HS  820   6.546   0.781  10.476 -0.8747 -0.4104  0.3204
    7SAPS   O21  821   6.397   0.715  10.359  0.9691  0.3173  0.2171
    7SAPS   C21  822   6.384   0.829  10.301  0.2950 -0.5156 -0.0473
    7SAPS   O22  823   6.467   0.919  10.286  0.1085  0.3701  0.7094
    7SAPS   C22  824   6.236   0.841  10.248 -0.3779  0.5543  0.6256
    7SAPS   H2R  825   6.224   0.757  10.177 -0.7150  2.3002 -1.4712
    7SAPS   H2S  826   6.156   0.836  10.325 -0.3889 -0.9828  0.5538
    7SAPS    C3  827   6.619   0.613  10.338  0.4670  0.1891 -0.4373
    7SAPS    HX  828   6.609   0.502  10.338  3.5452 -0.1759 -0.6870
    7SAPS    HY  829   6.709   0.623  10.402 -0.2377 -1.3965  0.8650
    7SAPS   O31  830   6.634   0.673  10.206 -0.6812  0.6706  0.0558
    7SAPS   C31  831   6.722   0.777  10.204  0.1489 -0.5831 -0.4442
    7SAPS   O32  832   6.785   0.819  10.293 -0.0994 -0.3653 -0.5451
    7SAPS   C32  833   6.719   0.828  10.053 -0.9872  0.2219  0.6792
    7SAPS   H2X  834   6.677   0.931  10.043 -0.1123  0.4977 -0.3578
    7SAPS   H2Y  835   6.664   0.747  10.000  0.6492 -0.8558  0.5813
    7SAPS   C23  836   6.211   0.975  10.172 -0.2384  0.2907 -0.4858
    7SAPS   H3R  837   6.288   0.977  10.092  0.6817  2.3778  0.3863
    7SAPS   H3S  838   6.224   1.061  10.240  0.6245 -0.2353  0.0234
    7SAPS   C24  839   6.072   0.981  10.103  0.1576 -0.0721 -0.1824
    7SAPS   H4R  840   5.989   1.003  10.173 -0.1872 -2.5626  0.2835
    7SAPS   H4S  841   6.052   0.882  10.057 -3.0375  0.4152 -0.0644
    7SAPS   C25  842   6.076   1.093  10.004 -0.3899  0.2192 -0.0853
    7SAPS   H5R  843   6.048   1.194  10.036  0.2112  0.5835 -0.6756
    7SAPS   C26  844   6.109   1.084   9.874  0.9121 -0.0438  0.2818
    7SAPS   H6R  845   6.102   1.169   9.804 -1.1126 -1.7185 -1.6942
    7SAPS   C27  846   6.137   0.952   9.812  0.1129 -0.2303 -0.0601
    7SAPS   H7R  847   6.037   0.919   9.776 -1.3600 -0.0428  3.4438
    7SAPS   H7S  848   6.182   0.879   9.882  0.3047 -0.3896 -0.3474
    7SAPS   C28  849   6.239   0.968   9.698 -0.3284  0.0609  0.2338
    7SAPS   H8R  850   6.335   1.009   9.735 -0.1597 -1.5395  1.6710
    7SAPS   C29  851   6.225   0.947   9.570 -0.2766 -0.0755  0.4047
    7SAPS   H9R  852   6.305   0.979   9.501 -2.5918  2.8986 -1.1583
    7SAPS  C210  853   6.104   0.896   9.498  0.4244  0.0783  0.8316
    7SAPS  H10R  854   6.022   0.864   9.566 -0.0634 -1.5119 -0.4476
    7SAPS  H10S  855   6.137   0.813   9.432 -0.3769 -0.1769  0.7428
    7SAPS  C211  856   6.045   1.009   9.412 -0.3293  0.1403  0.5922
    7SAPS  H11R  857   5.958   1.053   9.463 -0.0738 -0.3197  1.4315
    7SAPS  C212  858   6.084   1.056   9.289  0.1200  0.1769 -0.2543
    7SAPS  H12R  859   6.028   1.138   9.241  0.5139 -0.7143 -2.3177
    7SAPS  C213  860   6.199   1.004   9.213 -0.7049  0.5714  0.2225
    7SAPS  H13R  861   6.170   0.923   9.143 -1.5544  0.5090  0.6246
    7SAPS  H13S  862   6.273   0.967   9.287 -0.9327  1.0158  0.6812
    7SAPS  C214  863   6.265   1.118   9.134 -0.3790 -0.0811 -0.3110
    7SAPS  H14R  864   6.322   1.184   9.200 -0.8851 -1.0621  1.1606
    7SAPS  C215  865   6.267   1.128   9.002 -0.2015 -0.3928  0.2454
    7SAPS  H15R  866   6.325   1.210   8.957  0.3167 -0.0981  1.3949
    7SAPS  C216  867   6.212   1.034   8.902 -0.4168  0.6863 -0.5856
    7SAPS  H16R  868   6.135   1.088   8.841 -0.1768  1.2778 -0.3761
    7SAPS  H16S  869   6.167   0.943   8.946 -0.0456  0.4288 -0.7359
    7SAPS  C217  870   6.319   0.992   8.801 -0.0324 -0.9547 -0.9432
    7SAPS  H17R  871   6.362   1.085   8.760 -0.8152 -0.9527 -1.7796
    7SAPS  H17S  872   6.274   0.921   8.729 -0.2959  0.4907 -2.2342
    7SAPS  C218  873   6.435   0.914   8.864 -0.6821  0.2586  0.4339
    7SAPS  H18R  874   6.450   0.815   8.817  1.2275 -1.4880  4.2802
    7SAPS  H18S  875   6.429   0.894   8.973  2.3660  1.6253  0.9563
    7SAPS  C219  876   6.577   0.975   8.842  0.2369 -0.0959  0.2418
    7SAPS  H19R  877   6.583   1.042   8.930  2.3166 -0.0837  0.1250
    7SAPS  H19S  878   6.584   1.041   8.752 -0.6408 -0.1424  0.1230
    7SAPS  C220  879   6.690   0.879   8.829  0.1263  0.4627 -0.2052
    7SAPS  H20R  880   6.785   0.931   8.802 -0.1926  0.9863 -0.3506
    7SAPS  H20S  881   6.663   0.825   8.736  0.5542  0.4092 -0.3005
    7SAPS  H20T  882   6.690   0.811   8.916 -2.6791 -0.5701 -0.8912
    7SAPS   C33  883   6.866   0.834   9.997 -1.0514  0.1130  0.4146
    7SAPS   H3X  884   6.910   0.733  10.008  0.3533  0.6077 -0.4241
    7SAPS   H3Y  885   6.934   0.909  10.042 -0.6731 -0.4772  0.8290
    7SAPS   C34  886   6.871   0.868   9.845 -0.0384  0.2972  0.4854
    7SAPS   H4X  887   6.973   0.841   9.810  0.9912  3.7222  0.4853
    7SAPS   H4Y  888   6.866   0.977   9.828  2.6677  0.2385 -1.3015
    7SAPS   C35  889   6.780   0.782   9.757  0.8321  0.5280 -0.0884
    7SAPS   H5X  890   6.678   0.808   9.792  1.1904 -0.2254  1.6140
    7SAPS   H5Y  891   6.780   0.675   9.787 -1.4223  0.8275  1.2137
    7SAPS   C36  892   6.779   0.800   9.607 -0.5123  0.0537 -0.1465
    7SAPS   H6X  893   6.734   0.721   9.543  2.6015 -3.3112  1.4677
    7SAPS   H6Y  894   6.886   0.782   9.585 -0.8551 -0.2982 -1.6233
    7SAPS   C37  895   6.731   0.943   9.561  0.2722 -0.2291 -0.8672
    7SAPS   H7X  896   6.796   1.014   9.616 -1.7318 -0.6688  2.3062
    7SAPS   H7Y  897   6.625   0.949   9.592  0.1038 -2.0631 -0.9419
    7SAPS   C38  898   6.741   0.966   9.417  0.2075  0.2217  0.1814
    7SAPS   H8X  899   6.671   0.895   9.369 -2.0257  1.6267  1.2156
    7SAPS   H8Y  900   6.843   0.953   9.374 -0.6110 -1.5461 -1.3447
    7SAPS   C39  901   6.682   1.099   9.366 -0.5310  0.3276 -0.4795
    7SAPS   H9X  902   6.746   1.181   9.405  1.5350 -1.6583  0.5080
    7SAPS   H9Y  903   6.577   1.113   9.400 -1.2786  0.8988 -2.7892
    7SAPS  C310  904   6.682   1.104   9.208  0.2724 -0.1470  0.7822
    7SAPS  H10X  905   6.667   1.208   9.172 -2.5213  0.1565  2.5093
    7SAPS  H10Y  906   6.605   1.031   9.173 -0.0540  0.3486  0.4535
    7SAPS  C311  907   6.811   1.062   9.136  0.4814 -0.3302  0.0042
    7SAPS  H11X  908   6.793   1.060   9.027 -0.7047 -0.5376  0.1860
    7SAPS  H11Y  909   6.842   0.958   9.163 -1.8775 -1.8361 -2.5935
    7SAPS  C312  910   6.928   1.159   9.180  0.5553 -0.0990 -0.8664
    7SAPS  H12X  911   7.022   1.106   9.156  0.8153 -0.7629  1.4120
    7SAPS  H12Y  912   6.945   1.156   9.289 -0.9479 -3.4485 -0.6225
    7SAPS  C313  913   6.931   1.304   9.134 -0.2175  0.4795 -0.2977
    7SAPS  H13X  914   6.834   1.355   9.155 -0.4702  0.3911 -1.2135
    7SAPS  H13Y  915   6.949   1.297   9.024  2.0701 -2.6952  0.1362
    7SAPS  C314  916   7.055   1.376   9.191  0.9343 -0.3766 -0.0371
    7SAPS  H14X  917   7.147   1.314   9.185  1.6612  0.5309  1.1924
    7SAPS  H14Y  918   7.033   1.411   9.294 -0.2342 -0.5393 -0.2138
    7SAPS  C315  919   7.074   1.503   9.105  0.0596  0.1858 -0.7468
    7SAPS  H15X  920   7.112   1.578   9.178 -2.3047  0.9802 -0.2388
    7SAPS  H15Y  921   6.972   1.543   9.085 -0.5628 -0.9956 -0.0435
    7SAPS  C316  922   7.152   1.484   8.981 -0.2839  0.3893  0.5418
    7SAPS  H16X  923   7.117   1.411   8.905  1.1542 -1.0671  1.2076
    7SAPS  H16Y  924   7.252   1.442   9.004 -0.9027 -1.7548 -0.4075
    7SAPS  C317  925   7.178   1.611   8.899 -0.1096  0.0599  0.2350
    7SAPS  H17X  926   7.233   1.688   8.957 -0.2011 -0.8372  1.5369
    7SAPS  H17Y  927   7.075   1.651   8.898 -0.3416 -0.0939  3.9341
    7SAPS  C318  928   7.227   1.587   8.755  0.2167 -0.0301  0.0209
    7SAPS  H18X  929   7.158   1.514   8.709 -0.2718 -0.2654  1.0946
    7SAPS  H18Y  930   7.327   1.541   8.768  0.6350  0.7381 -0.3776
    7SAPS  H18Z  931   7.230   1.677   8.689  1.1490 -0.2756 -0.2885
    8SAPS     N  932   3.506   2.916  10.898  0.2588  0.6234 -0.3977
    8SAPS   HN1  933   3.555   2.843  10.843 -0.9025 -1.8482  1.6461
    8SAPS   HN2  934   3.418   2.870  10.929 -0.1765  0.9803 -1.0811
    8SAPS   HN3  935   3.475   2.993  10.835 -1.8191 -0.9955 -1.5053
    8SAPS   C12  936   3.580   2.969  11.011 -0.0334 -0.0618  0.0861
    8SAPS  H12A  937   3.556   3.074  11.022  1.8290  0.2968  1.2595
    8SAPS   C13  938   3.533   2.897  11.143  0.2270 -0.1710 -0.0200
    8SAPS  O13A  939   3.436   2.812  11.144  0.5235  0.1439 -0.6221
    8SAPS  O13B  940   3.559   2.953  11.251  0.0031 -0.6256 -0.7088
    8SAPS   C11  941   3.728   2.966  10.981 -0.1820  0.2876 -0.7103
    8SAPS  H11A  942   3.747   3.009  10.881  1.1822  1.2175 -0.0740
    8SAPS  H11B  943   3.756   2.859  10.995 -0.1903  0.5793  2.0679
    8SAPS     P  944   3.949   3.045  11.085  0.1284  0.1137 -0.1864
    8SAPS   O13  945   3.995   3.150  11.182  0.4323  0.0672  0.8826
    8SAPS   O14  946   3.999   2.911  11.109  0.1914  0.2953  0.2994
    8SAPS   O12  947   3.793   3.042  11.083 -0.3196 -0.4525 -0.1549
    8SAPS   O11  948   3.981   3.084  10.938 -0.4719 -0.3413 -0.6063
    8SAPS    C1  949   3.979   3.226  10.916  0.1952 -0.0823 -0.1942
    8SAPS    HA  950   3.876   3.265  10.928  0.8781  1.5233  0.7963
    8SAPS    HB  951   4.044   3.287  10.983  0.3487 -1.0635  0.5712
    8SAPS    C2  952   4.006   3.268  10.768  0.0197  0.3970 -0.1394
    8SAPS    HS  953   3.970   3.372  10.751 -0.4095  0.3078  0.2159
    8SAPS   O21  954   3.965   3.172  10.669  0.1389  0.1742  0.1603
    8SAPS   C21  955   3.830   3.175  10.651 -0.4146 -0.6629 -0.0810
    8SAPS   O22  956   3.751   3.256  10.699  0.7853  0.0468  0.7734
    8SAPS   C22  957   3.786   3.069  10.562 -0.0218  0.2657  0.1572
    8SAPS   H2R  958   3.782   2.971  10.616  2.1498 -0.5447 -1.0237
    8SAPS   H2S  959   3.687   3.098  10.521 -0.5157 -0.5043  0.7505
    8SAPS    C3  960   4.166   3.283  10.744  0.0416 -0.5851  0.4142
    8SAPS    HX  961   4.197   3.184  10.784  0.6869 -1.7808 -2.8043
    8SAPS    HY  962   4.190   3.367  10.813 -0.2519  0.5150 -0.7944
    8SAPS   O31  963   4.207   3.310  10.608 -0.2882  0.0763  0.0395
    8SAPS   C31  964   4.236   3.205  10.536  0.8779 -0.0497 -0.0927
    8SAPS   O32  965   4.214   3.094  10.579  0.8442 -0.2524  0.0614
    8SAPS   C32  966   4.302   3.245  10.404  0.2200  0.4979  0.4438
    8SAPS   H2X  967   4.408   3.212  10.413  0.9965  1.5465 -3.1759
    8SAPS   H2Y  968   4.291   3.354  10.386  0.0273 -0.1422 -5.0366
    8SAPS   C23  969   3.891   3.041  10.447  0.7774 -0.2385  0.3563
    8SAPS   H3R  970   3.861   2.937  10.421  1.6091 -0.5611  0.6523
    8SAPS   H3S  971   3.998   3.035  10.476  0.7941 -1.4637  0.0986
    8SAPS   C24  972   3.867   3.132  10.324  0.2600  0.7450  0.3886
    8SAPS   H4R  973   3.889   3.239  10.347 -0.8365  0.8013  1.2702
    8SAPS   H4S  974   3.759   3.130  10.296 -0.2106 -2.2815  1.9645
    8SAPS   C25  975   3.941   3.099  10.197  0.3692 -0.1266 -0.2217
    8SAPS   H5R  976   4.017   3.021  10.214 -1.2765 -1.9352 -0.7018
    8SAPS   C26  977   3.919   3.134  10.071 -0.3637 -0.1019 -0.0603
    8SAPS   H6R  978   3.984   3.099   9.990 -2.2978 -0.1270 -1.6650
    8SAPS   C27  979   3.808   3.222  10.023 -0.1013 -0.2486 -0.0617
    8SAPS   H7R  980   3.787   3.286  10.111 -0.5039 -0.3930 -0.0494
    8SAPS   H7S  981   3.712   3.168  10.004  1.1139 -2.3273 -0.6574
    8SAPS   C28  982   3.831   3.298   9.896  0.6601  0.1551  0.1774
    8SAPS   H8R  983   3.844   3.407   9.909  1.2939  0.0618  0.3236
    8SAPS   C29  984   3.848   3.247   9.767 -0.4796  0.5400 -0.4424
    8SAPS   H9R  985   3.874   3.322   9.691  0.6912 -1.9038 -2.5986
    8SAPS  C210  986   3.857   3.100   9.718 -0.3252  0.2880 -0.4336
    8SAPS  H10R  987   3.780   3.069   9.644  1.3980  0.8895 -2.5828
    8SAPS  H10S  988   3.828   3.038   9.806  0.2010  0.2697 -0.2689
    8SAPS  C211  989   3.987   3.071   9.648  0.2396  0.9900 -0.2013
    8SAPS  H11R  990   4.064   3.029   9.714 -0.0712  2.0064  0.8485
    8SAPS  C212  991   4.022   3.104   9.520  0.2094 -0.0595 -0.1805
    8SAPS  H12R  992   4.118   3.078   9.473 -0.3005 -1.1563 -0.6432
    8SAPS  C213  993   3.925   3.171   9.423  0.2214 -0.3309 -0.2416
    8SAPS  H13R  994   3.826   3.206   9.457  0.5367 -0.6016  1.0231
    8SAPS  H13S  995   3.894   3.087   9.358 -0.7288  0.0319 -0.2691
    8SAPS  C214  996   3.998   3.280   9.355 -0.4668 -0.2782 -0.0163
    8SAPS  H14R  997   3.994   3.374   9.411 -1.3520 -0.4287  0.1972
    8SAPS  C215  998   4.066   3.280   9.241  0.2969 -0.2030 -0.7036
    8SAPS  H15R  999   4.128   3.365   9.209 -0.5210  1.3729  1.5937
    8SAPS  C216 1000   4.086   3.163   9.144 -0.2441  0.5814  0.4195
    8SAPS  H16R 1001   4.040   3.072   9.189 -0.5710 -0.4027 -1.7812
    8SAPS  H16S 1002   4.196   3.157   9.132  0.0629  1.7294  2.1984
    8SAPS  C217 1003   4.027   3.187   9.006 -0.3118  0.7667  0.2108
    8SAPS  H17R 1004   4.096   3.265   8.966  0.4856  1.0339  2.0308
    8SAPS  H17S 1005   3.921   3.220   9.010 -0.9257 -1.1166  0.1850
    8SAPS  C218 1006   4.033   3.055   8.924 -0.1091 -0.4253  0.7093
    8SAPS  H18R 1007   3.960   3.056   8.839 -0.3212  1.6782  0.8525
    8SAPS  H18S 1008   4.010   2.971   8.992  1.2171 -2.0614 -0.7629
    8SAPS  C219 1009   4.177   3.017   8.870  0.2847  0.0555  0.1645
    8SAPS  H19R 1010   4.231   2.990   8.963  0.1503 -0.2336  0.1602
    8SAPS  H19S 1011   4.211   3.113   8.824 -0.7339  0.4235  0.1667
    8SAPS  C220 1012   4.183   2.906   8.761  0.9130 -0.0140 -0.0665
    8SAPS  H20R 1013   4.158   2.930   8.655  1.0586 -0.0419 -0.1084
    8SAPS  H20S 1014   4.110   2.830   8.794  0.7492 -0.8242 -2.1515
    8SAPS  H20T 1015   4.284   2.860   8.753  0.1552 -1.8611  0.5795
    8SAPS   C33 1016   4.256   3.184  10.274  0.6136  0.3599 -0.6231
    8SAPS   H3X 1017   4.159   3.226  10.240 -0.1562  0.0712  1.1042
    8SAPS   H3Y 1018   4.244   3.077  10.302 -1.6393  0.8018  0.3193
    8SAPS   C34 1019   4.366   3.207  10.173 -0.0247 -0.0345 -0.5414
    8SAPS   H4X 1020   4.458   3.151  10.198 -0.4553 -0.6835 -0.3653
    8SAPS   H4Y 1021   4.398   3.311  10.152  0.8489 -0.1095  0.3462
    8SAPS   C35 1022   4.318   3.151  10.036 -0.0645  0.1898  0.4939
    8SAPS   H5X 1023   4.233   3.209   9.997  0.4643  1.3731  1.0512
    8SAPS   H5Y 1024   4.297   3.042  10.046 -0.5175  0.1897 -0.4371
    8SAPS   C36 1025   4.421   3.155   9.920  0.2730  0.1225 -0.4383
    8SAPS   H6X 1026   4.504   3.085   9.945 -0.2278 -0.2028  0.3850
    8SAPS   H6Y 1027   4.454   3.260   9.915 -1.1521  0.5509 -1.6641
    8SAPS   C37 1028   4.352   3.130   9.786  0.3672 -1.0013  0.1194
    8SAPS   H7X 1029   4.270   3.203   9.767  0.8093 -1.0663 -2.4161
    8SAPS   H7Y 1030   4.287   3.040   9.792 -0.7469 -0.4204 -2.0468
    8SAPS   C38 1031   4.441   3.127   9.670  0.2687 -0.1062  0.2728
    8SAPS   H8X 1032   4.397   3.075   9.583  0.6544 -1.0416  0.6240
    8SAPS   H8Y 1033   4.537   3.075   9.693  0.4959  0.3019  0.2503
    8SAPS   C39 1034   4.479   3.273   9.621  0.1464  0.4726  0.0418
    8SAPS   H9X 1035   4.481   3.336   9.712  3.4113 -1.1332  1.2316
    8SAPS   H9Y 1036   4.408   3.312   9.545  0.3018 -0.2971 -0.5066
    8SAPS  C310 1037   4.608   3.286   9.547 -0.3833  0.2056  0.3044
    8SAPS  H10X 1038   4.693   3.271   9.617 -0.5746  1.2032  0.7763
    8SAPS  H10Y 1039   4.622   3.386   9.501  1.5555  0.2918  0.9674
    8SAPS  C311 1040   4.619   3.193   9.423  0.1340 -0.5881 -0.3083
    8SAPS  H11X 1041   4.579   3.099   9.467 -1.3040  0.8725  1.7061
    8SAPS  H11Y 1042   4.727   3.175   9.403  0.2654 -0.7689  0.5273
    8SAPS  C312 1043   4.533   3.222   9.299 -0.9112  0.4843 -0.2703
    8SAPS  H12X 1044   4.433   3.260   9.330 -1.0411  0.5703 -0.7758
    8SAPS  H12Y 1045   4.512   3.128   9.244 -1.0083  0.2629  0.1438
    8SAPS  C313 1046   4.599   3.324   9.203 -0.4253  0.4036 -0.0758
    8SAPS  H13X 1047   4.641   3.411   9.258  0.0485  0.2092 -0.1202
    8SAPS  H13Y 1048   4.522   3.356   9.129 -2.6261 -0.7120  1.6124
    8SAPS  C314 1049   4.718   3.257   9.138 -0.5257  0.3375 -0.4247
    8SAPS  H14X 1050   4.689   3.159   9.094 -0.1477 -1.7883  3.6001
    8SAPS  H14Y 1051   4.798   3.231   9.211 -0.0574 -0.4749 -1.2051
    8SAPS  C315 1052   4.788   3.353   9.031 -0.3793  0.1828  0.3261
    8SAPS  H15X 1053   4.846   3.437   9.075  0.9171  0.7282 -2.2418
    8SAPS  H15Y 1054   4.707   3.397   8.969  0.2848  2.2625  0.8457
    8SAPS  C316 1055   4.871   3.267   8.930 -0.6920 -0.2618 -0.0312
    8SAPS  H16X 1056   4.801   3.184   8.904 -0.9008 -0.6345  1.6184
    8SAPS  H16Y 1057   4.953   3.214   8.983 -1.2038  0.0201  1.0679
    8SAPS  C317 1058   4.938   3.343   8.810  0.1597 -0.7248 -0.3266
    8SAPS  H17X 1059   4.995   3.427   8.855 -1.6101 -0.1245  0.9059
    8SAPS  H17Y 1060   4.846   3.377   8.757 -1.8644 -1.1947  2.6451
    8SAPS  C318 1061   5.034   3.264   8.727 -0.0208 -0.3832 -0.3647
    8SAPS  H18X 1062   5.026   3.307   8.624  1.2055  0.8132  0.0012
    8SAPS  H18Y 1063   5.024   3.154   8.726  4.5433 -1.0008 -1.1540
    8SAPS  H18Z 1064   5.137   3.273   8.768  0.8748  1.1860 -2.6648
    9SAPS     N 1065   0.234   6.304   6.512 -0.2730 -0.1190 -0.0337
    9SAPS   HN1 1066   0.269   6.351   6.597 -1.1547 -0.1002  0.3316
    9SAPS   HN2 1067   0.164   6.364   6.464 -0.0473 -0.1527 -0.4104
    9SAPS   HN3 1068   0.182   6.220   6.545  1.5320 -0.7234  1.4148
    9SAPS   C12 1069   0.325   6.270   6.411  0.1682  0.1562  0.1072
    9SAPS  H12A 1070   0.384   6.186   6.444  1.4212  0.5426 -1.0348
    9SAPS   C13 1071   0.257   6.229   6.275  0.3083 -0.6858  0.8400
    9SAPS  O13A 1072   0.135   6.215   6.267  0.3217 -0.2990 -0.1934
    9SAPS  O13B 1073   0.332   6.197   6.179 -0.5164  0.0294 -0.5815
    9SAPS   C11 1074   0.417   6.389   6.382  1.2676  0.5501 -0.3324
    9SAPS  H11A 1075   0.361   6.480   6.353  0.2487  0.0274 -0.0624
    9SAPS  H11B 1076   0.473   6.364   6.290  2.6881 -0.4734  0.7570
    9SAPS     P 1077   0.657   6.455   6.475  0.0600  0.1881  0.0779
    9SAPS   O13 1078   0.713   6.369   6.375 -0.1482  0.4771 -0.0648
    9SAPS   O14 1079   0.670   6.599   6.454  0.3063  0.8195  0.6960
    9SAPS   O12 1080   0.502   6.422   6.488 -0.1379  0.6392 -0.1028
    9SAPS   O11 1081   0.722   6.416   6.616 -0.7005  0.0799  0.2012
    9SAPS    C1 1082   0.638   6.345   6.702  0.0208  0.7923 -0.4970
    9SAPS    HA 1083   0.575   6.418   6.757 -0.0579  2.1343 -2.2705
    9SAPS    HB 1084   0.572   6.268   6.656 -1.1359 -0.1316  2.4783
    9SAPS    C2 1085   0.738   6.272   6.801  0.0230 -0.6512  0.0327
    9SAPS    HS 1086   0.750   6.170   6.758 -1.0461 -0.4848 -0.6982
    9SAPS   O21 1087   0.682   6.276   6.929  1.0339  0.5888  0.2172
    9SAPS   C21 1088   0.706   6.163   6.999 -0.3196  0.3202 -0.0138
    9SAPS   O22 1089   0.723   6.051   6.959  0.3650  0.5522 -0.0481
    9SAPS   C22 1090   0.684   6.192   7.150  0.2147  0.0067 -0.1026
    9SAPS   H2R 1091   0.591   6.137   7.177  0.4082 -0.4878 -0.4355
    9SAPS   H2S 1092   0.769   6.144   7.202 -0.6126 -0.3527  0.9736
    9SAPS    C3 1093   0.883   6.325   6.816 -0.3427  0.6139 -0.0448
    9SAPS    HX 1094   0.875   6.423   6.868  0.5367  0.3666  0.5860
    9SAPS    HY 1095   0.924   6.342   6.715 -0.7802  0.1738 -0.2980
    9SAPS   O31 1096   0.965   6.239   6.897 -0.4176 -0.4962 -0.9487
    9SAPS   C31 1097   1.092   6.217   6.849  0.0065  0.6964  0.2485
    9SAPS   O32 1098   1.143   6.260   6.749 -0.1920 -0.6418 -0.5526
    9SAPS   C32 1099   1.152   6.105   6.936  0.1616  0.4698 -0.3233
    9SAPS   H2X 1100   1.254   6.084   6.896 -1.0040 -2.0185 -2.2531
    9SAPS   H2Y 1101   1.092   6.013   6.921  1.1511 -0.3974  0.8170
    9SAPS   C23 1102   0.692   6.343   7.187 -0.1517 -0.5386  0.1396
    9SAPS   H3R 1103   0.607   6.406   7.153  0.5311  2.7462  3.7710
    9SAPS   H3S 1104   0.789   6.385   7.154  0.1242 -0.4657  1.0207
    9SAPS   C24 1105   0.701   6.363   7.346 -0.3738 -0.3511 -0.1217
    9SAPS   H4R 1106   0.754   6.458   7.369 -0.2082 -0.8861  1.9026
    9SAPS   H4S 1107   0.760   6.276   7.383 -0.6344  0.2952  1.9856
    9SAPS   C25 1108   0.561   6.373   7.410  0.3846  0.7457  0.2872
    9SAPS   H5R 1109   0.480   6.401   7.340 -0.7562 -2.1307  0.3087
    9SAPS   C26 1110   0.517   6.336   7.534  0.8716  0.3819  0.4864
    9SAPS   H6R 1111   0.412   6.354   7.564 -0.7192 -3.0552 -2.2390
    9SAPS   C27 1112   0.604   6.266   7.636  0.1614  0.0263  0.2990
    9SAPS   H7R 1113   0.712   6.284   7.619  0.7147 -0.6065  2.7439
    9SAPS   H7S 1114   0.597   6.156   7.634  1.6484 -0.0712 -0.9541
    9SAPS   C28 1115   0.591   6.319   7.774 -0.5636  0.8769 -0.6795
    9SAPS   H8R 1116   0.598   6.428   7.778  0.0642  0.7932  1.2725
    9SAPS   C29 1117   0.596   6.246   7.891 -0.1917  0.6972 -0.2565
    9SAPS   H9R 1118   0.596   6.299   7.987  0.3167 -0.1709  0.2317
    9SAPS  C210 1119   0.601   6.097   7.911 -0.2277  0.0650  0.3043
    9SAPS  H10R 1120   0.545   6.035   7.837 -1.0979  1.0446  0.1081
    9SAPS  H10S 1121   0.551   6.068   8.005  1.2299 -1.2629  0.7105
    9SAPS  C211 1122   0.744   6.059   7.927 -0.5522 -0.6146  0.0135
    9SAPS  H11R 1123   0.812   6.083   7.844 -2.0279  1.7859 -0.5973
    9SAPS  C212 1124   0.792   6.005   8.041 -0.9822 -0.2727  0.1772
    9SAPS  H12R 1125   0.901   5.990   8.047 -0.6782  0.6208 -2.1319
    9SAPS  C213 1126   0.718   5.969   8.167  0.5552 -0.4571  0.1437
    9SAPS  H13R 1127   0.783   5.901   8.226  0.8166  0.2518  0.6821
    9SAPS  H13S 1128   0.637   5.899   8.139  0.2653  0.5346 -1.6621
    9SAPS  C214 1129   0.685   6.088   8.245  0.8250  0.3709 -0.7430
    9SAPS  H14R 1130   0.731   6.183   8.216  0.2860  0.8946  0.0601
    9SAPS  C215 1131   0.604   6.083   8.354  0.2001 -0.0038 -0.0124
    9SAPS  H15R 1132   0.571   6.177   8.401  0.5394  0.9434 -1.6102
    9SAPS  C216 1133   0.537   5.959   8.408 -0.2331 -0.0435 -0.2236
    9SAPS  H16R 1134   0.549   5.872   8.340 -3.8905 -0.1421 -0.9245
    9SAPS  H16S 1135   0.427   5.967   8.409 -0.3625 -1.3426 -1.0544
    9SAPS  C217 1136   0.593   5.938   8.553  0.3622 -0.2138 -0.5654
    9SAPS  H17R 1137   0.537   5.846   8.578  1.4056 -0.4283  1.1571
    9SAPS  H17S 1138   0.568   6.023   8.621  1.1368 -0.8078  0.4876
    9SAPS  C218 1139   0.746   5.910   8.555 -0.2226  0.1907  0.4019
    9SAPS  H18R 1140   0.802   6.002   8.528 -0.0443  0.0190  0.1822
    9SAPS  H18S 1141   0.774   5.837   8.476  0.8558 -0.5466  1.4210
    9SAPS  C219 1142   0.792   5.864   8.689 -0.2801 -0.0116  0.5119
    9SAPS  H19R 1143   0.742   5.929   8.763  0.2132 -0.1037  0.9321
    9SAPS  H19S 1144   0.900   5.882   8.705 -0.6314  0.3481  2.7272
    9SAPS  C220 1145   0.768   5.718   8.709  1.0800 -0.2324  0.5755
    9SAPS  H20R 1146   0.664   5.685   8.688  0.3735  1.6575  0.9097
    9SAPS  H20S 1147   0.805   5.682   8.808 -0.1553 -1.6958  0.5470
    9SAPS  H20T 1148   0.833   5.664   8.637  0.0901 -1.1460  0.3501
    9SAPS   C33 1149   1.136   6.132   7.086 -0.2348 -0.5097 -0.3984
    9SAPS   H3X 1150   1.029   6.157   7.102 -0.7253  0.7739 -4.4043
    9SAPS   H3Y 1151   1.187   6.230   7.100 -0.8198 -0.3180  0.4681
    9SAPS   C34 1152   1.187   6.022   7.176 -0.3912 -0.0136 -0.7445
    9SAPS   H4X 1153   1.292   5.999   7.148  1.1720  1.8512  2.8552
    9SAPS   H4Y 1154   1.131   5.928   7.155  0.5366 -0.2382 -2.3759
    9SAPS   C35 1155   1.176   6.070   7.326  0.3778 -0.7669  0.3274
    9SAPS   H5X 1156   1.075   6.091   7.368  0.7779  1.1039  0.4717
    9SAPS   H5Y 1157   1.229   6.168   7.328  1.7363 -1.4928  2.0973
    9SAPS   C36 1158   1.226   5.976   7.440 -0.2403 -0.9228 -0.2568
    9SAPS   H6X 1159   1.329   5.935   7.428 -0.6626 -2.4897  1.0632
    9SAPS   H6Y 1160   1.160   5.888   7.454  1.0984 -1.7046  1.4989
    9SAPS   C37 1161   1.235   6.051   7.571  0.4484  0.1110  0.1535
    9SAPS   H7X 1162   1.130   6.060   7.605  0.6870  2.1043  0.4904
    9SAPS   H7Y 1163   1.280   6.151   7.550 -0.3470  0.5930  0.6998
    9SAPS   C38 1164   1.303   5.969   7.685 -0.0349 -0.3424 -0.0501
    9SAPS   H8X 1165   1.408   5.962   7.649  0.1120  0.9707  0.0614
    9SAPS   H8Y 1166   1.260   5.868   7.671  0.8264 -0.6602 -0.4704
    9SAPS   C39 1167   1.288   6.036   7.820  0.6747 -0.6621  0.6786
    9SAPS   H9X 1168   1.183   6.015   7.852 -0.2427  0.7880 -1.1611
    9SAPS   H9Y 1169   1.294   6.147   7.822 -0.3831 -0.5897  2.2548
    9SAPS  C310 1170   1.404   5.990   7.915  0.5962  0.0067 -0.8001
    9SAPS  H10X 1171   1.491   6.004   7.847  0.6845 -0.3972 -0.7709
    9SAPS  H10Y 1172   1.385   5.884   7.942 -2.4625  1.0652  1.8155
    9SAPS  C311 1173   1.422   6.072   8.047  0.9851 -0.0983 -0.8313
    9SAPS  H11X 1174   1.450   6.180   8.038  1.2937  0.0615  1.4578
    9SAPS  H11Y 1175   1.519   6.030   8.081  1.3953  0.6439 -1.0517
    9SAPS  C312 1176   1.311   6.069   8.147  0.8180 -0.1980  0.4939
    9SAPS  H12X 1177   1.303   5.959   8.161  0.9981 -0.4709 -1.2278
    9SAPS  H12Y 1178   1.218   6.110   8.103 -0.9956 -2.0154  2.3821
    9SAPS  C313 1179   1.352   6.131   8.283  0.6537 -0.7705  0.4853
    9SAPS  H13X 1180   1.370   6.240   8.273  1.0567 -1.0086 -2.5186
    9SAPS  H13Y 1181   1.444   6.088   8.328  2.2111  2.1884  0.3895
    9SAPS  C314 1182   1.238   6.113   8.389  0.1758 -0.4882 -0.6752
    9SAPS  H14X 1183   1.212   6.005   8.386 -2.0559 -0.0238 -0.1585
    9SAPS  H14Y 1184   1.142   6.160   8.358  1.2724  0.9253 -2.0683
    9SAPS  C315 1185   1.268   6.147   8.535  0.2066  0.2830 -0.5472
    9SAPS  H15X 1186   1.316   6.246   8.554 -0.9830  0.6426  0.7927
    9SAPS  H15Y 1187   1.350   6.084   8.577  1.1126  3.6333  3.4314
    9SAPS  C316 1188   1.154   6.122   8.637 -0.7984  0.1388  0.0243
    9SAPS  H16X 1189   1.124   6.015   8.643  1.5235 -0.6114 -0.7555
    9SAPS  H16Y 1190   1.067   6.188   8.616 -1.8450 -0.9575  0.7462
    9SAPS  C317 1191   1.188   6.175   8.774  1.0792 -0.4255 -0.3765
    9SAPS  H17X 1192   1.098   6.190   8.837 -0.3522  0.2983 -2.4849
    9SAPS  H17Y 1193   1.236   6.275   8.765  1.2817 -0.6991 -2.9409
    9SAPS  C318 1194   1.293   6.091   8.846 -0.0411 -0.2466 -0.0621
    9SAPS  H18X 1195   1.247   5.997   8.882 -0.4451  0.9098  2.7350
    9SAPS  H18Y 1196   1.322   6.147   8.938 -0.3198  1.0039 -0.7113
    9SAPS  H18Z 1197   1.376   6.080   8.773 -1.1644  3.8770 -2.2871
   10SAPS     N 1198   2.591   5.099   6.103  0.2929  0.0076 -0.1219
   10SAPS   HN1 1199   2.583   5.127   6.004 -1.9802  0.7041  0.2153
   10SAPS   HN2 1200   2.494   5.076   6.133  0.6191  1.5149  2.3802
   10SAPS   HN3 1201   2.624   5.176   6.165 -0.6036  0.0870  0.2705
   10SAPS   C12 1202   2.688   4.985   6.122 -0.2976 -0.1689 -0.2114
   10SAPS  H12A 1203   2.664   4.896   6.066 -3.1084  0.5524 -0.3111
   10SAPS   C13 1204   2.831   5.028   6.084 -0.0498 -0.2261 -0.5027
   10SAPS  O13A 1205   2.860   5.136   6.029 -0.7425 -0.7444 -0.3616
   10SAPS  O13B 1206   2.921   4.947   6.111  0.5784 -1.1313  0.0586
   10SAPS   C11 1207   2.693   4.949   6.274 -0.0442  0.2034  0.1162
   10SAPS  H11A 1208   2.723   5.036   6.336 -1.0748 -1.1947  2.7333
   10SAPS  H11B 1209   2.776   4.879   6.295  1.1838  1.0753 -1.5305
   10SAPS     P 1210   2.531   4.832   6.459  0.5877 -0.2281 -0.3812
   10SAPS   O13 1211   2.386   4.857   6.482  0.0991 -0.1732  0.2956
   10SAPS   O14 1212   2.567   4.688   6.458  0.5233 -0.1908 -0.1781
   10SAPS   O12 1213   2.571   4.891   6.323  0.5455  0.1924  0.3250
   10SAPS   O11 1214   2.611   4.915   6.568  0.1470 -0.6371  0.4202
   10SAPS    C1 1215   2.719   4.846   6.631  0.0435 -0.1751  0.6303
   10SAPS    HA 1216   2.773   4.780   6.561 -0.2091 -1.6454  1.7761
   10SAPS    HB 1217   2.793   4.919   6.669 -0.6985 -0.5420  2.9467
   10SAPS    C2 1218   2.662   4.765   6.749 -0.4058  0.9398 -0.4361
   10SAPS    HS 1219   2.564   4.719   6.724 -0.0530 -0.1547  0.1348
   10SAPS   O21 1220   2.641   4.851   6.866 -0.0929 -0.4513  0.0211
   10SAPS   C21 1221   2.524   4.911   6.877  0.0741  0.1116 -0.5795
   10SAPS   O22 1222   2.428   4.888   6.805 -0.2330  0.1511  0.0983
   10SAPS   C22 1223   2.526   5.016   6.990  0.4769  0.1095 -0.3537
   10SAPS   H2R 1224   2.557   4.969   7.086  1.5394 -1.2875 -1.3368
   10SAPS   H2S 1225   2.612   5.080   6.963  0.4756  0.5269  0.5911
   10SAPS    C3 1226   2.757   4.648   6.797 -0.1364 -0.2436  0.9598
   10SAPS    HX 1227   2.853   4.684   6.840 -0.9031  2.3198  0.6914
   10SAPS    HY 1228   2.777   4.596   6.701 -1.7343 -1.5928  1.3210
   10SAPS   O31 1229   2.682   4.551   6.879  0.3855  0.4999  0.2952
   10SAPS   C31 1230   2.743   4.527   6.991  0.0277 -0.5341  0.2302
   10SAPS   O32 1231   2.851   4.571   7.024 -0.2092 -0.1305 -0.4690
   10SAPS   C32 1232   2.657   4.432   7.077 -0.0475  0.6319  0.7467
   10SAPS   H2X 1233   2.666   4.333   7.029  3.5278  1.5022 -0.7488
   10SAPS   H2Y 1234   2.550   4.458   7.063  0.4060  1.0556 -2.7701
   10SAPS   C23 1235   2.393   5.092   7.000 -0.6176 -0.6363 -0.8061
   10SAPS   H3R 1236   2.316   5.012   7.007  1.6682 -2.8321  1.0604
   10SAPS   H3S 1237   2.378   5.156   6.910 -1.1443  0.6685  0.1757
   10SAPS   C24 1238   2.389   5.190   7.111 -0.5445 -0.2173  0.9595
   10SAPS   H4R 1239   2.453   5.275   7.079 -1.3610  0.2097  0.4197
   10SAPS   H4S 1240   2.428   5.138   7.201 -1.4748 -0.9889  0.9341
   10SAPS   C25 1241   2.251   5.238   7.146 -0.1693  0.6569 -0.3474
   10SAPS   H5R 1242   2.185   5.262   7.061  2.6713 -2.0751 -3.6646
   10SAPS   C26 1243   2.208   5.264   7.267 -0.1552  0.1828 -0.9001
   10SAPS   H6R 1244   2.110   5.311   7.284 -0.1680 -0.6645  1.6396
   10SAPS   C27 1245   2.271   5.249   7.398 -0.2796 -0.0765 -0.0074
   10SAPS   H7R 1246   2.373   5.205   7.389  0.6728  2.1048 -0.4772
   10SAPS   H7S 1247   2.206   5.181   7.457  1.2448  0.5298  2.5453
   10SAPS   C28 1248   2.290   5.373   7.478  0.5255  0.0490  0.1294
   10SAPS   H8R 1249   2.341   5.448   7.418 -0.7675  2.1803  1.5509
   10SAPS   C29 1250   2.235   5.409   7.594  0.4474  0.4736 -0.8318
   10SAPS   H9R 1251   2.271   5.503   7.639  1.3042  0.6766 -1.9162
   10SAPS  C210 1252   2.146   5.327   7.687 -0.1868 -0.0710  0.0521
   10SAPS  H10R 1253   2.101   5.240   7.634 -0.4150  0.8432 -1.2902
   10SAPS  H10S 1254   2.057   5.387   7.715 -0.5096 -0.0715 -0.9325
   10SAPS  C211 1255   2.216   5.286   7.816 -0.3160  0.6848  0.0449
   10SAPS  H11R 1256   2.321   5.252   7.808 -0.3221  0.6457  0.1340
   10SAPS  C212 1257   2.159   5.293   7.938 -0.4985  0.6397 -0.2577
   10SAPS  H12R 1258   2.216   5.260   8.026 -2.2962 -0.1969  0.6496
   10SAPS  C213 1259   2.020   5.342   7.980 -0.0273 -0.3892  0.3157
   10SAPS  H13R 1260   1.960   5.337   7.886  1.2156 -2.2568 -0.4366
   10SAPS  H13S 1261   2.030   5.447   8.016 -0.7519 -0.7934  1.8008
   10SAPS  C214 1262   1.944   5.264   8.088  0.4728  0.5879  0.8517
   10SAPS  H14R 1263   1.880   5.184   8.048 -0.9609  0.5043  3.1313
   10SAPS  C215 1264   1.940   5.287   8.222 -0.1832 -0.2813  0.0084
   10SAPS  H15R 1265   1.872   5.228   8.285  0.6415 -0.1873  1.0170
   10SAPS  C216 1266   2.017   5.406   8.284  0.5742 -0.1935  0.0660
   10SAPS  H16R 1267   1.970   5.449   8.375 -0.2829 -1.7571  0.4144
   10SAPS  H16S 1268   2.034   5.479   8.202  2.8004 -1.6349 -0.8582
   10SAPS  C217 1269   2.167   5.368   8.331 -0.3014  0.6367  0.1273
   10SAPS  H17R 1270   2.209   5.329   8.236 -1.2781  0.9869 -0.4620
   10SAPS  H17S 1271   2.179   5.284   8.403  0.4639  0.5863 -0.0574
   10SAPS  C218 1272   2.233   5.494   8.387  0.0193 -0.5753  0.6148
   10SAPS  H18R 1273   2.185   5.532   8.480 -1.7451  2.9075 -1.5160
   10SAPS  H18S 1274   2.226   5.583   8.322  0.7918  0.9220  2.4999
   10SAPS  C219 1275   2.377   5.460   8.411  0.7460 -0.3471 -0.1359
   10SAPS  H19R 1276   2.428   5.447   8.313 -0.0394 -2.9456 -0.2762
   10SAPS  H19S 1277   2.381   5.372   8.480  1.1812  1.3301  2.0807
   10SAPS  C220 1278   2.448   5.575   8.488  0.0380  0.3035  0.1436
   10SAPS  H20R 1279   2.404   5.574   8.590  0.7672 -1.9704  0.4757
   10SAPS  H20S 1280   2.429   5.671   8.435 -0.1009 -0.6461 -1.6081
   10SAPS  H20T 1281   2.558   5.565   8.478  0.3669  2.0606  1.4134
   10SAPS   C33 1282   2.711   4.422   7.221 -0.1964  0.5188 -0.1112
   10SAPS   H3X 1283   2.725   4.524   7.262  1.5406  1.1512 -2.1385
   10SAPS   H3Y 1284   2.811   4.375   7.227 -1.1428 -1.6448 -0.1524
   10SAPS   C34 1285   2.610   4.351   7.312  0.1746  0.1406 -0.0817
   10SAPS   H4X 1286   2.621   4.244   7.284  0.7096 -0.5410  2.5119
   10SAPS   H4Y 1287   2.507   4.387   7.293 -0.7293 -2.4312 -0.4030
   10SAPS   C35 1288   2.637   4.364   7.458  0.1894  0.6843 -0.1451
   10SAPS   H5X 1289   2.747   4.379   7.462  0.2363  1.1331 -2.1015
   10SAPS   H5Y 1290   2.607   4.268   7.505  0.9591  0.7668  0.5364
   10SAPS   C36 1291   2.574   4.486   7.530  0.1266 -0.0199  0.7016
   10SAPS   H6X 1292   2.464   4.494   7.511  0.6042  2.0300 -1.6820
   10SAPS   H6Y 1293   2.626   4.575   7.490  1.4139 -0.8082  0.5691
   10SAPS   C37 1294   2.602   4.469   7.678 -0.0242 -0.0248 -0.0417
   10SAPS   H7X 1295   2.711   4.454   7.691  0.0591 -0.5267 -1.1576
   10SAPS   H7Y 1296   2.538   4.386   7.715 -1.2281 -0.1247 -2.1472
   10SAPS   C38 1297   2.572   4.599   7.748 -0.0291  0.4289 -0.6656
   10SAPS   H8X 1298   2.463   4.602   7.771  0.3345  0.5854  1.1369
   10SAPS   H8Y 1299   2.609   4.688   7.693  1.0053  0.1994 -0.3521
   10SAPS   C39 1300   2.637   4.612   7.886 -0.4569 -0.4950 -0.4295
   10SAPS   H9X 1301   2.573   4.682   7.945  1.5491 -0.9090  2.3596
   10SAPS   H9Y 1302   2.742   4.644   7.875 -1.2221  2.2307 -0.6573
   10SAPS  C310 1303   2.640   4.483   7.972 -0.3092  0.2370  0.1436
   10SAPS  H10X 1304   2.712   4.413   7.925  2.3132  1.3946  2.1364
   10SAPS  H10Y 1305   2.539   4.439   7.981 -0.3210  0.2996  0.3217
   10SAPS  C311 1306   2.695   4.502   8.119 -1.1602  0.1103  0.0201
   10SAPS  H11X 1307   2.806   4.507   8.113 -1.2190  0.3095 -1.0482
   10SAPS  H11Y 1308   2.671   4.412   8.179 -0.5894  0.2276  0.4387
   10SAPS  C312 1309   2.648   4.619   8.189 -0.0327  0.0514  0.1519
   10SAPS  H12X 1310   2.539   4.609   8.208 -0.4562 -0.6945 -2.3046
   10SAPS  H12Y 1311   2.665   4.710   8.127  1.5129 -0.5897 -0.3933
   10SAPS  C313 1312   2.725   4.641   8.325  0.4650  0.2293  0.0724
   10SAPS  H13X 1313   2.655   4.706   8.381  2.3957 -0.6650  3.8412
   10SAPS  H13Y 1314   2.827   4.683   8.309 -0.2048  1.7581 -0.4129
   10SAPS  C314 1315   2.740   4.513   8.403  0.2972  0.6804  1.2811
   10SAPS  H14X 1316   2.813   4.446   8.352  1.3358  3.0387 -0.4963
   10SAPS  H14Y 1317   2.638   4.470   8.402  0.5739  0.0048 -0.2636
   10SAPS  C315 1318   2.781   4.535   8.546 -0.3061 -0.3091 -0.2312
   10SAPS  H15X 1319   2.711   4.615   8.578  0.2153  0.4108 -0.8522
   10SAPS  H15Y 1320   2.882   4.582   8.542 -1.3077  2.1546  1.2163
   10SAPS  C316 1321   2.761   4.418   8.644  0.2335 -0.4947 -0.4623
   10SAPS  H16X 1322   2.836   4.337   8.634  0.0715 -0.6556 -0.3768
   10SAPS  H16Y 1323   2.663   4.370   8.627  0.6680 -2.0603  1.2088
   10SAPS  C317 1324   2.771   4.462   8.798 -0.2822 -0.0156  0.0230
   10SAPS  H17X 1325   2.755   4.372   8.861  0.7762  0.3919  0.9204
   10SAPS  H17Y 1326   2.703   4.543   8.829 -0.4769  0.1191 -0.7274
   10SAPS  C318 1327   2.914   4.513   8.838  0.5952  0.6167 -0.1798
   10SAPS  H18X 1328   2.950   4.602   8.781 -0.7409  1.2624 -0.0487
   10SAPS  H18Y 1329   2.990   4.433   8.827 -0.2698 -0.2641  0.1238
   10SAPS  H18Z 1330   2.918   4.531   8.948  0.4297 -1.4584  0.1966
   11SAPS     N 1331   4.234   0.100   6.297  0.4488  0.3371 -0.3161
   11SAPS   HN1 1332   4.198   0.195   6.274 -1.2036  0.2215  1.5534
   11SAPS   HN2 1333   4.159   0.048   6.346 -0.3319  0.7130 -1.0962
   11SAPS   HN3 1334   4.305   0.114   6.373 -1.4716  3.2577  1.1453
   11SAPS   C12 1335   4.270   0.004   6.189 -0.9561  0.2240  0.0508
   11SAPS  H12A 1336   4.296  -0.090   6.234  3.4849  1.6056  0.8464
   11SAPS   C13 1337   4.163  -0.023   6.077  0.0199 -0.5269 -0.0378
   11SAPS  O13A 1338   4.054   0.036   6.078  0.2899  0.0800  0.1622
   11SAPS  O13B 1339   4.200  -0.086   5.975 -0.8301 -0.0681  0.2289
   11SAPS   C11 1340   4.415   0.047   6.139  0.4143  0.3014 -0.0529
   11SAPS  H11A 1341   4.408   0.151   6.099 -3.7781  0.5427  0.9342
   11SAPS  H11B 1342   4.449  -0.025   6.061  1.4810  0.4608  0.2476
   11SAPS     P 1343   4.660   0.010   6.207 -0.0129  0.1395  0.1781
   11SAPS   O13 1344   4.669  -0.128   6.162  0.3274 -0.7385  0.0282
   11SAPS   O14 1345   4.718   0.123   6.127 -0.7122  0.6017 -0.1700
   11SAPS   O12 1346   4.509   0.047   6.248 -0.0738 -0.2551  0.1702
   11SAPS   O11 1347   4.727   0.010   6.349  0.9561  0.3024  0.2705
   11SAPS    C1 1348   4.705   0.101   6.455  0.1393  0.4459 -0.0286
   11SAPS    HA 1349   4.777   0.180   6.427 -0.0749 -0.3314 -3.0892
   11SAPS    HB 1350   4.599   0.135   6.448 -0.2795 -0.9618 -0.8316
   11SAPS    C2 1351   4.728   0.042   6.597  0.7684  0.0320  0.6346
   11SAPS    HS 1352   4.833   0.004   6.604  1.3202  1.5744  1.0827
   11SAPS   O21 1353   4.626  -0.057   6.618  0.3071  0.2227  0.0638
   11SAPS   C21 1354   4.678  -0.171   6.662 -0.7307 -0.4144 -0.3870
   11SAPS   O22 1355   4.796  -0.191   6.689 -0.2172 -0.0998  0.2170
   11SAPS   C22 1356   4.584  -0.284   6.668  0.3811 -0.6988  0.0426
   11SAPS   H2R 1357   4.502  -0.267   6.595  2.2587 -0.0049 -2.0456
   11SAPS   H2S 1358   4.646  -0.367   6.630 -0.2660 -2.2589  2.2227
   11SAPS    C3 1359   4.716   0.150   6.703  0.6283 -0.1492 -0.6562
   11SAPS    HX 1360   4.610   0.184   6.695  1.0157  0.6794 -2.7073
   11SAPS    HY 1361   4.778   0.226   6.653  1.0153 -0.9422 -1.4076
   11SAPS   O31 1362   4.760   0.112   6.832  0.3051 -0.1299  0.2137
   11SAPS   C31 1363   4.742   0.211   6.920 -0.2495  0.0067  0.6417
   11SAPS   O32 1364   4.719   0.326   6.899 -0.5900  0.0634 -0.3551
   11SAPS   C32 1365   4.750   0.139   7.058  0.0394  0.2184  0.1328
   11SAPS   H2X 1366   4.848   0.087   7.058 -0.9592 -1.8240  1.7260
   11SAPS   H2Y 1367   4.667   0.065   7.059 -0.4041  0.6978  1.3797
   11SAPS   C23 1368   4.525  -0.302   6.811 -0.8891  0.4474  0.1338
   11SAPS   H3R 1369   4.602  -0.281   6.888 -0.6987  1.0449 -0.2116
   11SAPS   H3S 1370   4.516  -0.412   6.818 -2.2369  0.6117  1.2548
   11SAPS   C24 1371   4.387  -0.247   6.821  0.2697  0.2270 -0.7193
   11SAPS   H4R 1372   4.335  -0.286   6.911  2.4520 -3.1363 -0.7275
   11SAPS   H4S 1373   4.336  -0.284   6.729  2.3106 -2.3582 -0.9339
   11SAPS   C25 1374   4.387  -0.092   6.810 -0.4383  0.2482 -0.6841
   11SAPS   H5R 1375   4.366  -0.051   6.710 -0.3996  1.7224 -0.1195
   11SAPS   C26 1376   4.406  -0.004   6.912  1.1391  0.3011 -0.5129
   11SAPS   H6R 1377   4.397   0.104   6.892 -1.9959  0.2942  0.4537
   11SAPS   C27 1378   4.417  -0.048   7.052 -0.0581 -0.3837 -0.6647
   11SAPS   H7R 1379   4.477   0.020   7.116 -0.9491 -0.1392 -0.0710
   11SAPS   H7S 1380   4.484  -0.136   7.064  1.8922  1.1280  0.1213
   11SAPS   C28 1381   4.285  -0.065   7.120  0.0704  0.5080  0.4369
   11SAPS   H8R 1382   4.198  -0.015   7.075 -0.8468 -0.3289  1.2231
   11SAPS   C29 1383   4.273  -0.114   7.247 -0.7524 -0.0393 -0.1540
   11SAPS   H9R 1384   4.179  -0.113   7.304  1.5493  0.3952  4.0624
   11SAPS  C210 1385   4.386  -0.156   7.337  0.4439  0.8833 -0.9952
   11SAPS  H10R 1386   4.418  -0.068   7.397 -1.1611  0.6037  0.3342
   11SAPS  H10S 1387   4.470  -0.197   7.276  0.4622  1.9252 -1.6976
   11SAPS  C211 1388   4.344  -0.268   7.433  0.9622  0.6988 -0.1325
   11SAPS  H11R 1389   4.280  -0.237   7.517  0.9206  0.5228 -0.0976
   11SAPS  C212 1390   4.368  -0.399   7.429  0.5772 -0.3809 -0.5564
   11SAPS  H12R 1391   4.311  -0.460   7.500 -2.5611  3.4404  0.5165
   11SAPS  C213 1392   4.452  -0.471   7.330  0.1108 -0.0076 -0.1388
   11SAPS  H13R 1393   4.456  -0.578   7.360  0.1539 -0.3346 -1.2798
   11SAPS  H13S 1394   4.555  -0.434   7.349 -0.3061  0.6693  0.8762
   11SAPS  C214 1395   4.417  -0.468   7.182 -0.5015  0.1533 -0.4513
   11SAPS  H14R 1396   4.409  -0.365   7.144 -1.3566 -0.0921 -0.9460
   11SAPS  C215 1397   4.391  -0.573   7.103 -0.4764 -0.0212  0.4795
   11SAPS  H15R 1398   4.363  -0.566   6.997  0.6283 -0.4255  0.1493
   11SAPS  C216 1399   4.385  -0.712   7.147  1.1239  0.2451  0.0816
   11SAPS  H16R 1400   4.308  -0.761   7.083  0.7647  1.3185 -0.3189
   11SAPS  H16S 1401   4.334  -0.716   7.246 -0.2625  2.2461 -0.5022
   11SAPS  C217 1402   4.504  -0.802   7.166 -0.4550  0.2720  0.3729
   11SAPS  H17R 1403   4.480  -0.908   7.187  1.0556 -0.0277  0.7029
   11SAPS  H17S 1404   4.562  -0.768   7.256  2.0328 -0.3735 -0.8983
   11SAPS  C218 1405   4.599  -0.809   7.043 -0.2594 -0.5916  0.0184
   11SAPS  H18R 1406   4.646  -0.711   7.022 -0.0396 -0.6816  0.0836
   11SAPS  H18S 1407   4.529  -0.847   6.966 -1.1849 -0.6295  0.8663
   11SAPS  C219 1408   4.711  -0.913   7.065  0.0307  0.4903  0.6569
   11SAPS  H19R 1409   4.760  -0.928   6.967  1.2829  1.9630  1.0070
   11SAPS  H19S 1410   4.664  -1.009   7.092  0.3955  0.5065  1.3939
   11SAPS  C220 1411   4.822  -0.861   7.161 -0.2022  0.0819 -0.6388
   11SAPS  H20R 1412   4.779  -0.858   7.264 -2.1238  2.7796 -1.3946
   11SAPS  H20S 1413   4.853  -0.759   7.130 -3.5241  0.3976 -3.5221
   11SAPS  H20T 1414   4.902  -0.937   7.153  0.6831  0.8500  0.5658
   11SAPS   C33 1415   4.734   0.236   7.179 -0.7399 -0.5088  0.0363
   11SAPS   H3X 1416   4.630   0.274   7.190 -0.7201  0.2566 -1.9424
   11SAPS   H3Y 1417   4.800   0.325   7.166  1.0321 -1.7309  0.2017
   11SAPS   C34 1418   4.791   0.178   7.310 -0.4813  0.4180  0.7597
   11SAPS   H4X 1419   4.751   0.074   7.312  0.6065 -0.1640 -2.6115
   11SAPS   H4Y 1420   4.776   0.238   7.403  0.4428 -0.4780  1.5142
   11SAPS   C35 1421   4.945   0.152   7.326 -0.2816  0.3130 -0.2390
   11SAPS   H5X 1422   5.003   0.243   7.301  0.3240 -0.1841 -0.6928
   11SAPS   H5Y 1423   4.974   0.087   7.241  2.5593  3.3867 -1.8389
   11SAPS   C36 1424   4.992   0.104   7.461 -0.0208  0.9368  0.4882
   11SAPS   H6X 1425   5.092   0.059   7.443 -1.5861 -3.1977  1.1176
   11SAPS   H6Y 1426   4.916   0.032   7.499 -0.2673  0.3794 -1.0151
   11SAPS   C37 1427   5.015   0.208   7.570  0.4221 -0.0524 -0.3233
   11SAPS   H7X 1428   4.919   0.257   7.596  0.7237  0.5055 -0.2587
   11SAPS   H7Y 1429   5.089   0.285   7.539 -0.4327  0.7562 -0.3866
   11SAPS   C38 1430   5.071   0.151   7.695 -0.7618  0.3422 -1.2344
   11SAPS   H8X 1431   5.178   0.124   7.691 -0.6364 -0.0349  1.9805
   11SAPS   H8Y 1432   5.013   0.058   7.711 -0.3975  0.4724  1.3348
   11SAPS   C39 1433   5.062   0.257   7.807  0.4342 -0.0782 -0.2567
   11SAPS   H9X 1434   4.954   0.279   7.816  0.4272  0.0982 -0.7428
   11SAPS   H9Y 1435   5.122   0.341   7.767 -0.8864  0.1161 -1.9282
   11SAPS  C310 1436   5.106   0.218   7.951  0.2040  0.1097  0.2322
   11SAPS  H10X 1437   5.119   0.304   8.020  1.6149 -1.2459  1.7597
   11SAPS  H10Y 1438   5.209   0.178   7.943 -0.3952 -1.4984  0.0725
   11SAPS  C311 1439   5.022   0.107   8.009  0.4339  0.0978 -0.1457
   11SAPS  H11X 1440   5.082   0.068   8.094  2.9912  2.2515 -0.8044
   11SAPS  H11Y 1441   5.006   0.021   7.941  0.0975 -0.4511  0.6092
   11SAPS  C312 1442   4.884   0.158   8.055  0.3627  0.2670 -0.3905
   11SAPS  H12X 1443   4.829   0.175   7.959 -0.6509 -1.0337 -0.0753
   11SAPS  H12Y 1444   4.889   0.252   8.114 -0.7683 -0.4457  0.8863
   11SAPS  C313 1445   4.807   0.052   8.141 -0.1160  0.2188 -1.1598
   11SAPS  H13X 1446   4.854   0.059   8.242 -1.5689 -0.9626 -0.3758
   11SAPS  H13Y 1447   4.826  -0.051   8.103 -0.8948 -0.0336 -0.8855
   11SAPS  C314 1448   4.655   0.053   8.161  0.3136 -0.1292 -0.7051
   11SAPS  H14X 1449   4.628  -0.038   8.219  0.3556  1.3618  1.8006
   11SAPS  H14Y 1450   4.599   0.050   8.065 -1.6986  2.4383  0.2599
   11SAPS  C315 1451   4.600   0.181   8.222 -1.0431 -0.4672  0.1551
   11SAPS  H15X 1452   4.538   0.223   8.140 -2.3660 -0.6440  1.0201
   11SAPS  H15Y 1453   4.677   0.259   8.237 -0.2817 -1.0980 -0.4319
   11SAPS  C316 1454   4.534   0.175   8.356  0.1020 -0.0846 -0.7423
   11SAPS  H16X 1455   4.468   0.086   8.365 -0.2637  0.3613  1.5656
   11SAPS  H16Y 1456   4.463   0.259   8.365  1.0054  0.5198  1.7551
   11SAPS  C317 1457   4.634   0.200   8.478  1.0174  0.5293  0.3173
   11SAPS  H17X 1458   4.673   0.304   8.477  0.3662  0.7748 -0.3920
   11SAPS  H17Y 1459   4.716   0.127   8.462 -0.2684 -0.8047 -0.4512
   11SAPS  C318 1460   4.566   0.162   8.609 -0.1169  0.2384  0.1065
   11SAPS  H18X 1461   4.478   0.225   8.634 -0.9372 -0.2987 -1.3017
   11SAPS  H18Y 1462   4.643   0.174   8.687 -0.2004  0.8718  0.0967
   11SAPS  H18Z 1463   4.535   0.056   8.601 -0.0429  0.1757  0.6290
   12SAPS     N 1464   2.202   1.315   6.090 -0.6728  0.0571 -0.4292
   12SAPS   HN1 1465   2.114   1.262   6.071  0.1927 -1.7315  0.3244
   12SAPS   HN2 1466   2.205   1.357   6.185  1.0892  0.9410 -0.8358
   12SAPS   HN3 1467   2.207   1.394   6.023 -2.0442  2.1050  1.7484
   12SAPS   C12 1468   2.316   1.231   6.064 -0.2620  0.1435  0.5848
   12SAPS  H12A 1469   2.328   1.167   6.150 -1.8948  2.5740  2.8023
   12SAPS   C13 1470   2.301   1.136   5.941 -0.0639  0.3807  0.3520
   12SAPS  O13A 1471   2.186   1.137   5.878 -0.0510 -0.3144 -0.6451
   12SAPS  O13B 1472   2.390   1.058   5.913 -0.1862  0.1311  0.0954
   12SAPS   C11 1473   2.434   1.320   6.044 -0.0798  0.4503  0.1596
   12SAPS  H11A 1474   2.421   1.398   5.967  1.2261  1.0701  0.5403
   12SAPS  H11B 1475   2.519   1.258   6.008 -0.7897 -0.1190 -0.5636
   12SAPS     P 1476   2.617   1.468   6.165  0.0207  0.4620  0.1233
   12SAPS   O13 1477   2.698   1.424   6.048 -0.1358 -0.7990  0.5499
   12SAPS   O14 1478   2.586   1.608   6.180  0.4540  0.0655 -0.0783
   12SAPS   O12 1479   2.469   1.390   6.164 -0.1697 -0.0808 -0.2769
   12SAPS   O11 1480   2.689   1.415   6.296 -0.9262 -0.2640 -0.2229
   12SAPS    C1 1481   2.718   1.282   6.341  0.0423 -0.1460 -0.3426
   12SAPS    HA 1482   2.715   1.222   6.248 -0.9179  0.7031 -0.8803
   12SAPS    HB 1483   2.821   1.282   6.381 -0.3168  0.8493  0.6532
   12SAPS    C2 1484   2.628   1.233   6.457  0.2795 -0.9890  0.5074
   12SAPS    HS 1485   2.521   1.245   6.429  0.5513 -0.3384 -0.2807
   12SAPS   O21 1486   2.666   1.318   6.564 -0.4571 -0.0352 -0.3721
   12SAPS   C21 1487   2.574   1.347   6.646  0.2560  0.5356 -0.8379
   12SAPS   O22 1488   2.459   1.300   6.646  0.3617  0.0429 -0.0643
   12SAPS   C22 1489   2.628   1.442   6.758  1.4028  0.1676 -0.5285
   12SAPS   H2R 1490   2.729   1.482   6.736  1.8374  0.1813  1.2983
   12SAPS   H2S 1491   2.570   1.538   6.754  0.8089 -0.2124 -1.4685
   12SAPS    C3 1492   2.652   1.080   6.488  0.0156 -0.2463  0.1037
   12SAPS    HX 1493   2.762   1.064   6.492 -0.2588 -2.1143  1.3638
   12SAPS    HY 1494   2.618   1.020   6.400  0.6320 -0.7944  0.2275
   12SAPS   O31 1495   2.604   1.032   6.616  0.5777 -0.5634 -0.0001
   12SAPS   C31 1496   2.477   1.018   6.626 -0.0659  0.3397  0.1771
   12SAPS   O32 1497   2.388   1.037   6.540  0.1284  0.0795 -0.6696
   12SAPS   C32 1498   2.443   0.979   6.774 -0.1029  0.5857 -0.3932
   12SAPS   H2X 1499   2.519   1.035   6.833  1.8357 -2.1216 -0.1399
   12SAPS   H2Y 1500   2.461   0.870   6.787 -2.5316  0.1421 -0.3648
   12SAPS   C23 1501   2.601   1.373   6.895 -0.1359 -0.0719  0.1260
   12SAPS   H3R 1502   2.649   1.273   6.897 -0.1077 -0.0547  0.7378
   12SAPS   H3S 1503   2.495   1.353   6.921 -0.2613 -0.1665 -0.4525
   12SAPS   C24 1504   2.650   1.455   7.013  0.7153  0.5331  0.2069
   12SAPS   H4R 1505   2.757   1.481   6.999  1.0035 -0.9351 -0.5502
   12SAPS   H4S 1506   2.653   1.392   7.105  0.3777 -3.4562 -2.2822
   12SAPS   C25 1507   2.567   1.584   7.036  1.0800 -0.7110 -0.1366
   12SAPS   H5R 1508   2.544   1.645   6.947 -0.3913  1.5471  1.7062
   12SAPS   C26 1509   2.501   1.618   7.154 -0.1712 -0.4675  0.9378
   12SAPS   H6R 1510   2.442   1.711   7.146 -0.5960 -0.6094  2.2054
   12SAPS   C27 1511   2.495   1.534   7.279 -0.5431  0.3605  0.7752
   12SAPS   H7R 1512   2.594   1.523   7.329 -1.1083  1.0407  2.1064
   12SAPS   H7S 1513   2.459   1.436   7.241  1.5694  0.3220 -1.4053
   12SAPS   C28 1514   2.400   1.576   7.382  0.7292  0.2930  0.0006
   12SAPS   H8R 1515   2.301   1.596   7.338 -0.7193  0.5647  3.1700
   12SAPS   C29 1516   2.413   1.568   7.514 -0.1461 -0.1119  0.2016
   12SAPS   H9R 1517   2.330   1.596   7.580  0.9503  1.6374  0.9012
   12SAPS  C210 1518   2.539   1.525   7.581  0.3941  0.2439  0.6736
   12SAPS  H10R 1519   2.584   1.436   7.532 -2.7283  0.2857 -2.7092
   12SAPS  H10S 1520   2.504   1.486   7.680 -0.2927 -0.3952  0.1925
   12SAPS  C211 1521   2.632   1.649   7.588 -0.1045  0.1755  0.5391
   12SAPS  H11R 1522   2.639   1.702   7.491 -0.5603  0.7917  0.8332
   12SAPS  C212 1523   2.712   1.685   7.686  1.2627 -0.7046 -0.1826
   12SAPS  H12R 1524   2.771   1.777   7.675  1.1394 -0.6032 -0.0025
   12SAPS  C213 1525   2.748   1.610   7.808 -0.2421 -0.7159  0.2743
   12SAPS  H13R 1526   2.816   1.525   7.785 -0.5477 -0.8376 -0.1720
   12SAPS  H13S 1527   2.661   1.565   7.860  1.2558 -2.2599  1.5865
   12SAPS  C214 1528   2.820   1.692   7.910  0.9236 -0.1217 -0.1001
   12SAPS  H14R 1529   2.853   1.795   7.890  0.3681  0.0229 -0.2925
   12SAPS  C215 1530   2.847   1.653   8.033 -0.2791 -0.2973 -1.1370
   12SAPS  H15R 1531   2.908   1.721   8.094 -0.1466 -1.6053  0.2425
   12SAPS  C216 1532   2.825   1.518   8.098 -0.2253  0.1212  0.1182
   12SAPS  H16R 1533   2.908   1.497   8.169 -1.5010 -1.9574  1.0998
   12SAPS  H16S 1534   2.827   1.435   8.024  0.1914  0.4560 -0.2571
   12SAPS  C217 1535   2.698   1.501   8.180  0.2666  0.1160  1.0789
   12SAPS  H17R 1536   2.699   1.404   8.235 -0.8393  0.0507  1.0105
   12SAPS  H17S 1537   2.611   1.498   8.110  0.5046  2.5283  0.6079
   12SAPS  C218 1538   2.670   1.617   8.276  0.0753  0.3600 -0.0393
   12SAPS  H18R 1539   2.634   1.708   8.225 -0.6108  2.2499  3.4772
   12SAPS  H18S 1540   2.762   1.641   8.333  1.6886 -1.8759 -1.5256
   12SAPS  C219 1541   2.555   1.575   8.377  0.6782 -0.2217 -1.1845
   12SAPS  H19R 1542   2.536   1.661   8.444 -1.3547 -0.4820 -1.3693
   12SAPS  H19S 1543   2.589   1.484   8.430  0.4779  1.2923  1.7223
   12SAPS  C220 1544   2.415   1.543   8.306 -0.0659 -0.3334 -0.9411
   12SAPS  H20R 1545   2.420   1.460   8.233 -0.6034 -1.4441  0.2302
   12SAPS  H20S 1546   2.372   1.633   8.257  1.6145  0.1267 -1.6165
   12SAPS  H20T 1547   2.335   1.514   8.378 -0.9679  0.7709 -1.4685
   12SAPS   C33 1548   2.302   1.018   6.815 -0.9393  0.3748 -0.0663
   12SAPS   H3X 1549   2.231   0.992   6.734  0.5521  5.1514 -3.3281
   12SAPS   H3Y 1550   2.298   1.129   6.825 -0.2580  0.3070  1.1429
   12SAPS   C34 1551   2.259   0.955   6.950 -1.1828 -0.4411  0.3885
   12SAPS   H4X 1552   2.252   0.845   6.956  0.8573 -0.5468  3.2933
   12SAPS   H4Y 1553   2.154   0.985   6.971 -0.2581  0.9059  3.7776
   12SAPS   C35 1554   2.357   1.003   7.060  0.0988  0.1865  0.1731
   12SAPS   H5X 1555   2.388   1.109   7.044  1.5833 -0.3511 -0.6488
   12SAPS   H5Y 1556   2.454   0.950   7.062  0.6722  1.1402 -0.8856
   12SAPS   C36 1557   2.298   0.984   7.197 -0.3509 -0.2949 -0.5703
   12SAPS   H6X 1558   2.267   0.879   7.216  2.1541 -1.1933 -1.1908
   12SAPS   H6Y 1559   2.207   1.048   7.204  0.2698  0.5950 -0.4733
   12SAPS   C37 1560   2.400   1.032   7.308  0.5055  0.5585 -0.3003
   12SAPS   H7X 1561   2.435   1.135   7.284  1.5915 -0.2120 -2.3059
   12SAPS   H7Y 1562   2.491   0.969   7.302  0.9828  1.2766 -0.9225
   12SAPS   C38 1563   2.329   1.025   7.445 -0.7100 -0.3711 -0.2500
   12SAPS   H8X 1564   2.350   0.921   7.479  0.5716  0.0303  0.2858
   12SAPS   H8Y 1565   2.225   1.062   7.433 -0.7311 -0.1647  0.5442
   12SAPS   C39 1566   2.384   1.126   7.543 -0.9401  0.1425 -0.0656
   12SAPS   H9X 1567   2.388   1.223   7.488  1.0557 -0.6715 -1.4874
   12SAPS   H9Y 1568   2.484   1.094   7.579 -1.5867 -0.4999  1.2065
   12SAPS  C310 1569   2.288   1.143   7.660 -0.0230 -0.7063  0.1244
   12SAPS  H10X 1570   2.288   1.051   7.723 -0.3427 -1.4261 -0.8904
   12SAPS  H10Y 1571   2.189   1.163   7.615  0.6205  2.5611 -0.0670
   12SAPS  C311 1572   2.318   1.264   7.751  0.0600 -0.7934 -0.4428
   12SAPS  H11X 1573   2.289   1.358   7.699  0.8918 -0.5101 -0.4095
   12SAPS  H11Y 1574   2.424   1.261   7.783 -0.0816 -0.7432  0.0381
   12SAPS  C312 1575   2.249   1.253   7.897  0.2751 -0.6872  0.9620
   12SAPS  H12X 1576   2.142   1.259   7.870  0.7337 -0.3513 -0.8970
   12SAPS  H12Y 1577   2.265   1.349   7.950 -3.8857 -0.2817  1.7677
   12SAPS  C313 1578   2.311   1.136   7.980 -0.0797  0.2581  0.1259
   12SAPS  H13X 1579   2.422   1.149   7.983 -0.1410  1.5438 -1.5199
   12SAPS  H13Y 1580   2.283   1.037   7.939  0.5741  0.2019 -0.1949
   12SAPS  C314 1581   2.255   1.143   8.125 -0.4599 -0.9894  0.4516
   12SAPS  H14X 1582   2.144   1.133   8.125 -0.4741 -1.2460 -1.3727
   12SAPS  H14Y 1583   2.284   1.243   8.163  3.4352 -1.8729  0.1988
   12SAPS  C315 1584   2.328   1.050   8.223  0.0623  0.4681 -0.2298
   12SAPS  H15X 1585   2.437   1.065   8.232  0.0544  0.3044  0.1571
   12SAPS  H15Y 1586   2.314   0.943   8.195  1.0037  0.4293 -0.5732
   12SAPS  C316 1587   2.272   1.074   8.363 -0.3052 -0.2468  0.5080
   12SAPS  H16X 1588   2.168   1.036   8.359 -0.1817 -0.4938 -1.3600
   12SAPS  H16Y 1589   2.266   1.182   8.389  0.8311  0.1328 -0.7253
   12SAPS  C317 1590   2.350   1.012   8.481 -0.2750 -0.0709 -0.6257
   12SAPS  H17X 1591   2.452   1.057   8.490  0.3674 -1.5648 -0.1045
   12SAPS  H17Y 1592   2.349   0.905   8.454 -0.3267  0.2748 -2.0576
   12SAPS  C318 1593   2.286   1.042   8.617  0.1235  0.4154  0.1238
   12SAPS  H18X 1594   2.212   0.960   8.634  1.6069 -0.8108  0.9154
   12SAPS  H18Y 1595   2.246   1.144   8.635 -1.4764  0.1870 -1.7477
   12SAPS  H18Z 1596   2.357   1.026   8.701 -0.4872 -0.4134  0.4906
   13SAPS     N 1597   3.969   4.052   6.237 -0.1691  0.0191  0.9214
   13SAPS   HN1 1598   3.973   4.013   6.334 -0.3893  0.9888  1.3403
   13SAPS   HN2 1599   3.946   4.153   6.247 -0.7752  0.0133 -0.2712
   13SAPS   HN3 1600   3.889   4.011   6.185 -0.1171  0.6645  0.3234
   13SAPS   C12 1601   4.093   4.031   6.158 -0.6622  0.2541  0.2607
   13SAPS  H12A 1602   4.124   3.929   6.174  1.0279  0.3700 -1.8707
   13SAPS   C13 1603   4.067   4.047   6.009  0.3791  0.4734 -0.2056
   13SAPS  O13A 1604   3.953   4.081   5.959 -0.3929  0.3609  0.3895
   13SAPS  O13B 1605   4.157   3.998   5.935  0.2683  0.2254  0.5720
   13SAPS   C11 1606   4.204   4.126   6.202  0.6022  0.2396  0.2053
   13SAPS  H11A 1607   4.197   4.227   6.157 -1.6418 -0.5839 -1.4828
   13SAPS  H11B 1608   4.296   4.080   6.158 -0.7116 -1.5038 -0.8236
   13SAPS     P 1609   4.355   4.184   6.401 -0.0439  0.3226 -0.1831
   13SAPS   O13 1610   4.455   4.079   6.396  0.2416  0.1709  0.0790
   13SAPS   O14 1611   4.388   4.315   6.338 -0.1323  0.1704  0.2621
   13SAPS   O12 1612   4.229   4.127   6.344 -0.1535 -0.3716 -0.2883
   13SAPS   O11 1613   4.325   4.206   6.553 -0.4859  0.1498 -0.0751
   13SAPS    C1 1614   4.210   4.259   6.605  0.1110  0.3239  0.1423
   13SAPS    HA 1615   4.180   4.356   6.561 -0.9185  0.6705  1.5087
   13SAPS    HB 1616   4.128   4.191   6.570  0.5533  0.1534 -0.5829
   13SAPS    C2 1617   4.215   4.276   6.758  0.3887 -0.7897 -0.0593
   13SAPS    HS 1618   4.120   4.311   6.803  1.9252 -0.0352  2.8901
   13SAPS   O21 1619   4.312   4.373   6.790 -0.2406  0.3834  0.5523
   13SAPS   C21 1620   4.294   4.495   6.748  0.4858 -0.6444  0.3053
   13SAPS   O22 1621   4.190   4.537   6.703  0.5398  0.3251  0.3331
   13SAPS   C22 1622   4.419   4.583   6.774 -0.7091  0.0209 -0.3276
   13SAPS   H2R 1623   4.477   4.520   6.845  1.2340 -1.4040 -3.0331
   13SAPS   H2S 1624   4.474   4.591   6.678  3.1976 -2.2826  1.4892
   13SAPS    C3 1625   4.245   4.146   6.836 -0.5393 -0.3289 -0.1374
   13SAPS    HX 1626   4.342   4.103   6.801 -1.4303 -0.8808 -2.0959
   13SAPS    HY 1627   4.160   4.081   6.807 -1.6430  1.9388 -2.3488
   13SAPS   O31 1628   4.241   4.185   6.978 -0.0320 -0.1729  0.3842
   13SAPS   C31 1629   4.270   4.096   7.074 -0.5797 -0.1143 -0.0299
   13SAPS   O32 1630   4.316   3.985   7.055 -0.0008 -0.7910 -0.2639
   13SAPS   C32 1631   4.221   4.153   7.210  0.0070 -0.8477 -0.2182
   13SAPS   H2X 1632   4.126   4.209   7.205 -0.6289 -1.4332  2.9009
   13SAPS   H2Y 1633   4.296   4.227   7.245  1.2637 -1.1429 -2.1382
   13SAPS   C23 1634   4.381   4.722   6.826  0.7910  0.1008  0.1277
   13SAPS   H3R 1635   4.304   4.711   6.904 -0.0568 -0.6778 -0.7959
   13SAPS   H3S 1636   4.331   4.778   6.744 -1.1884 -0.1834  1.0914
   13SAPS   C24 1637   4.513   4.785   6.883  0.1279 -0.7491  0.3101
   13SAPS   H4R 1638   4.591   4.807   6.807  1.3150 -0.9647  1.4187
   13SAPS   H4S 1639   4.563   4.716   6.955 -0.1694 -0.0106  1.2577
   13SAPS   C25 1640   4.481   4.912   6.963  0.2202 -0.2088  0.6824
   13SAPS   H5R 1641   4.470   5.001   6.899 -1.2297 -0.4168  0.6142
   13SAPS   C26 1642   4.460   4.926   7.096  0.4020  0.1635 -0.0969
   13SAPS   H6R 1643   4.432   5.025   7.134 -1.5827 -1.4905  3.2748
   13SAPS   C27 1644   4.455   4.820   7.211 -0.8087  0.2296  0.3895
   13SAPS   H7R 1645   4.480   4.720   7.169  2.3653 -0.2674  3.0804
   13SAPS   H7S 1646   4.348   4.822   7.241  0.2326 -0.1107  4.7049
   13SAPS   C28 1647   4.553   4.850   7.321 -0.4465 -0.1261 -0.4827
   13SAPS   H8R 1648   4.651   4.804   7.307 -0.2639  0.1039  0.0114
   13SAPS   C29 1649   4.545   4.921   7.431  0.4010 -0.4406  0.3594
   13SAPS   H9R 1650   4.629   4.922   7.502  0.1915  0.8083  0.5957
   13SAPS  C210 1651   4.421   4.998   7.476 -0.1193  0.2470  0.3013
   13SAPS  H10R 1652   4.352   4.916   7.506 -1.0869  1.0169  0.1985
   13SAPS  H10S 1653   4.365   5.050   7.396  0.4097 -0.0413 -0.2739
   13SAPS  C211 1654   4.441   5.091   7.592 -0.3398  0.1461  0.5935
   13SAPS  H11R 1655   4.409   5.192   7.561  0.8466  0.0274 -1.2240
   13SAPS  C212 1656   4.477   5.050   7.715 -0.2597 -0.1661  0.1042
   13SAPS  H12R 1657   4.495   5.120   7.798  2.0570  1.3476 -1.5441
   13SAPS  C213 1658   4.504   4.913   7.766  0.2493  0.6583 -0.2751
   13SAPS  H13R 1659   4.601   4.926   7.819 -0.8861  3.2055  1.3197
   13SAPS  H13S 1660   4.519   4.846   7.678  2.2268  1.7592 -0.8363
   13SAPS  C214 1661   4.396   4.855   7.849 -0.1350 -0.0645  0.0128
   13SAPS  H14R 1662   4.354   4.762   7.808 -0.5630  0.1627 -0.0784
   13SAPS  C215 1663   4.347   4.911   7.962 -0.1252 -0.7563 -0.4153
   13SAPS  H15R 1664   4.262   4.857   8.006  0.5380 -0.4238  1.3848
   13SAPS  C216 1665   4.388   5.040   8.041 -0.0164  0.2066  0.5210
   13SAPS  H16R 1666   4.375   5.134   7.984  0.8829 -1.2708 -2.2826
   13SAPS  H16S 1667   4.493   5.021   8.074 -0.0990  0.4722  0.9504
   13SAPS  C217 1668   4.304   5.048   8.166 -0.5297 -0.4433  0.2886
   13SAPS  H17R 1669   4.198   5.025   8.142 -0.6066 -2.9277  2.4927
   13SAPS  H17S 1670   4.302   5.149   8.213 -1.6261 -0.0783 -0.5057
   13SAPS  C218 1671   4.363   4.955   8.269 -0.2891 -0.4298 -0.5819
   13SAPS  H18R 1672   4.466   4.986   8.295 -0.6614  2.2817 -2.0624
   13SAPS  H18S 1673   4.367   4.848   8.240 -1.1937 -1.1417  1.6304
   13SAPS  C219 1674   4.292   4.974   8.403  0.1756  0.4373 -0.9578
   13SAPS  H19R 1675   4.188   4.937   8.393  0.0729 -0.9119  3.0836
   13SAPS  H19S 1676   4.283   5.083   8.424 -2.1276  0.1611 -0.1759
   13SAPS  C220 1677   4.355   4.892   8.522 -0.2386 -0.3459  0.3503
   13SAPS  H20R 1678   4.343   4.787   8.488 -2.8300  0.8962 -3.2051
   13SAPS  H20S 1679   4.313   4.904   8.624 -1.2537 -0.3521 -0.0534
   13SAPS  H20T 1680   4.462   4.918   8.533 -0.0218 -0.5968 -0.9640
   13SAPS   C33 1681   4.208   4.040   7.315  0.5098  0.1618 -0.5257
   13SAPS   H3X 1682   4.303   3.991   7.346 -0.2492 -0.8264  0.3030
   13SAPS   H3Y 1683   4.135   3.964   7.278  1.7648 -1.4706  0.2017
   13SAPS   C34 1684   4.145   4.105   7.440 -0.1287 -0.4202  0.4920
   13SAPS   H4X 1685   4.044   4.149   7.427 -0.5387 -0.5079  2.8732
   13SAPS   H4Y 1686   4.208   4.194   7.462  0.6374 -0.6121 -0.8505
   13SAPS   C35 1687   4.142   4.018   7.570 -0.5507  0.5052 -0.2443
   13SAPS   H5X 1688   4.250   4.008   7.594 -0.0915 -0.7722 -2.5727
   13SAPS   H5Y 1689   4.106   3.914   7.555  0.0752  0.2356  0.0703
   13SAPS   C36 1690   4.063   4.079   7.688  0.3228 -0.0731 -0.6922
   13SAPS   H6X 1691   3.955   4.065   7.667  0.5402 -1.6823 -0.8376
   13SAPS   H6Y 1692   4.082   4.189   7.686  1.0063 -0.1787 -2.3606
   13SAPS   C37 1693   4.105   4.038   7.823 -0.2065 -0.6050 -0.7318
   13SAPS   H7X 1694   4.215   4.032   7.837  0.1996  1.4813 -2.5482
   13SAPS   H7Y 1695   4.055   3.939   7.831 -0.8825 -0.2911 -0.9150
   13SAPS   C38 1696   4.037   4.116   7.940  0.4640  0.5252  0.4816
   13SAPS   H8X 1697   3.929   4.092   7.929  0.9884 -1.1598 -1.8791
   13SAPS   H8Y 1698   4.042   4.226   7.949 -0.4289  0.5610  0.6958
   13SAPS   C39 1699   4.098   4.047   8.066  1.0212  0.2358  0.5142
   13SAPS   H9X 1700   4.205   4.076   8.076  2.0737 -2.4132 -1.6061
   13SAPS   H9Y 1701   4.091   3.936   8.056  1.5160  0.3028 -0.7909
   13SAPS  C310 1702   4.012   4.091   8.193  0.4773 -0.7573 -0.1197
   13SAPS  H10X 1703   3.941   4.019   8.238 -0.2548  0.4547  0.7442
   13SAPS  H10Y 1704   3.953   4.181   8.166 -1.5582 -2.1468 -0.5141
   13SAPS  C311 1705   4.097   4.133   8.313 -0.7597 -1.1267 -0.2724
   13SAPS  H11X 1706   4.151   4.226   8.284 -0.9918 -1.3520 -1.4700
   13SAPS  H11Y 1707   4.184   4.065   8.317  0.0286 -0.2468 -1.7438
   13SAPS  C312 1708   4.033   4.124   8.456  0.0244 -0.4123 -0.1520
   13SAPS  H12X 1709   3.983   4.026   8.471 -2.4204  0.4940 -1.7231
   13SAPS  H12Y 1710   3.948   4.196   8.449  0.3136 -0.1285 -0.7919
   13SAPS  C313 1711   4.131   4.158   8.567  0.4390 -0.4750  0.0501
   13SAPS  H13X 1712   4.204   4.234   8.534 -0.4203 -0.5412 -2.1896
   13SAPS  H13Y 1713   4.198   4.071   8.586  1.9034  0.8974  1.4227
   13SAPS  C314 1714   4.064   4.212   8.696  0.1771 -0.0146  0.0835
   13SAPS  H14X 1715   4.009   4.308   8.688  1.3948  0.7116  0.0635
   13SAPS  H14Y 1716   4.145   4.225   8.772  0.9059  1.3419 -0.8874
   13SAPS  C315 1717   3.966   4.109   8.751  0.2586 -0.8110  0.3228
   13SAPS  H15X 1718   4.026   4.015   8.753  1.8915  0.1726 -0.0162
   13SAPS  H15Y 1719   3.881   4.089   8.683  1.6335 -0.4341 -1.6228
   13SAPS  C316 1720   3.913   4.136   8.894  0.1744 -0.0321  0.2064
   13SAPS  H16X 1721   3.843   4.222   8.887 -0.6830 -0.7305 -0.1208
   13SAPS  H16Y 1722   3.995   4.164   8.964 -1.5235  1.6986  1.6101
   13SAPS  C317 1723   3.829   4.028   8.946 -0.1605  0.3406 -0.9959
   13SAPS  H17X 1724   3.889   3.942   8.984 -1.9735 -0.4125  0.2998
   13SAPS  H17Y 1725   3.758   4.004   8.865 -0.4148  0.9071 -0.9483
   13SAPS  C318 1726   3.738   4.076   9.067  0.6112 -0.4108  0.6087
   13SAPS  H18X 1727   3.672   3.994   9.102 -3.3215  1.7907 -1.0270
   13SAPS  H18Y 1728   3.673   4.158   9.029  0.5475 -1.4620 -1.7450
   13SAPS  H18Z 1729   3.804   4.099   9.153  0.4366  0.4536  0.5200
   14SAPS     N 1730   1.681   1.453   5.770  0.8907 -0.0348 -0.0746
   14SAPS   HN1 1731   1.617   1.535   5.775  0.0072 -0.7156 -0.0362
   14SAPS   HN2 1732   1.686   1.437   5.667 -0.5789  0.7401 -0.2935
   14SAPS   HN3 1733   1.621   1.381   5.814  1.5832 -0.3947  0.3126
   14SAPS   C12 1734   1.809   1.500   5.837 -0.0466  0.1085 -0.4545
   14SAPS  H12A 1735   1.887   1.427   5.821  1.8358  1.8891  0.2462
   14SAPS   C13 1736   1.850   1.636   5.778  0.1026 -0.0313  0.4490
   14SAPS  O13A 1737   1.754   1.703   5.725 -0.1739  0.9012  0.6042
   14SAPS  O13B 1738   1.949   1.691   5.833  0.6438  0.1831  0.0361
   14SAPS   C11 1739   1.793   1.511   5.991 -0.5142  0.8201  0.9571
   14SAPS  H11A 1740   1.735   1.604   6.008 -0.1158  1.1430  0.5928
   14SAPS  H11B 1741   1.895   1.531   6.032  0.0441 -1.8553  1.0733
   14SAPS     P 1742   1.813   1.298   6.129  0.0931  0.2211 -0.1874
   14SAPS   O13 1743   1.720   1.201   6.189  0.3108 -0.2723  0.6156
   14SAPS   O14 1744   1.929   1.248   6.052 -0.0398  0.2135  0.2821
   14SAPS   O12 1745   1.725   1.395   6.052  0.5711  0.2387  0.6197
   14SAPS   O11 1746   1.864   1.385   6.250 -0.3644 -0.2196 -0.2248
   14SAPS    C1 1747   1.783   1.473   6.330 -0.3265  0.3190 -0.2202
   14SAPS    HA 1748   1.817   1.576   6.307  2.1523 -0.5437 -0.7540
   14SAPS    HB 1749   1.675   1.461   6.310 -0.5086 -0.6841  1.2085
   14SAPS    C2 1750   1.806   1.444   6.484 -0.0879  0.2028  0.2220
   14SAPS    HS 1751   1.722   1.483   6.546  1.7826  2.0628  1.7396
   14SAPS   O21 1752   1.941   1.473   6.531 -0.0311  0.3432 -0.2585
   14SAPS   C21 1753   1.954   1.600   6.556 -0.4268 -0.1565 -0.1357
   14SAPS   O22 1754   1.872   1.689   6.546  0.3941 -0.4201  0.0121
   14SAPS   C22 1755   2.097   1.621   6.603  0.0443  0.3700  0.3450
   14SAPS   H2R 1756   2.148   1.530   6.566 -1.4513 -1.2071  1.9859
   14SAPS   H2S 1757   2.144   1.704   6.546  0.4700 -1.3388 -1.9272
   14SAPS    C3 1758   1.788   1.290   6.503  0.4950  0.2582  0.3258
   14SAPS    HX 1759   1.883   1.241   6.472  0.2788 -1.9739  2.8192
   14SAPS    HY 1760   1.706   1.260   6.435  0.9436  3.7318 -1.9932
   14SAPS   O31 1761   1.755   1.261   6.646 -0.3896  0.2363  0.1927
   14SAPS   C31 1762   1.820   1.168   6.710  0.3406  0.5889 -0.2556
   14SAPS   O32 1763   1.908   1.099   6.663 -0.3051  0.3470 -0.0984
   14SAPS   C32 1764   1.768   1.158   6.847 -0.6354 -0.0102 -0.4122
   14SAPS   H2X 1765   1.657   1.154   6.847 -0.7034  0.5031  1.7240
   14SAPS   H2Y 1766   1.790   1.256   6.894  1.0438 -0.5171 -0.0646
   14SAPS   C23 1767   2.110   1.647   6.753 -0.9158 -0.6268 -0.1355
   14SAPS   H3R 1768   2.011   1.640   6.803 -1.6642  2.0351 -1.1062
   14SAPS   H3S 1769   2.131   1.756   6.754  2.8432 -1.2193  0.7052
   14SAPS   C24 1770   2.215   1.562   6.824  0.1697  0.3488  0.8816
   14SAPS   H4R 1771   2.240   1.595   6.927  2.0811 -1.9345  1.2357
   14SAPS   H4S 1772   2.307   1.576   6.763 -1.5733  1.5440 -1.6198
   14SAPS   C25 1773   2.171   1.417   6.830  0.4883  0.2829 -0.0117
   14SAPS   H5R 1774   2.192   1.359   6.739 -0.1815  1.2758 -0.8202
   14SAPS   C26 1775   2.114   1.352   6.933 -0.8613  0.8011  0.7666
   14SAPS   H6R 1776   2.098   1.246   6.910  2.2458  0.5688 -0.9172
   14SAPS   C27 1777   2.077   1.402   7.068  0.3420 -0.2816 -0.9650
   14SAPS   H7R 1778   1.967   1.395   7.082  0.6022 -0.7580  1.2200
   14SAPS   H7S 1779   2.099   1.511   7.074 -1.0246  0.0835 -2.1222
   14SAPS   C28 1780   2.149   1.328   7.175  0.4299 -0.4177 -0.9567
   14SAPS   H8R 1781   2.249   1.288   7.155  0.5902 -0.7774  0.4916
   14SAPS   C29 1782   2.109   1.328   7.307 -0.1210 -1.4407 -0.1081
   14SAPS   H9R 1783   2.169   1.272   7.381  3.8231 -0.8793 -2.5747
   14SAPS  C210 1784   1.987   1.383   7.376 -0.1942 -0.5358  0.2455
   14SAPS  H10R 1785   1.950   1.315   7.455  1.7283 -1.4379  0.4139
   14SAPS  H10S 1786   1.902   1.390   7.305  0.7635  0.4867 -0.8371
   14SAPS  C211 1787   2.008   1.529   7.411  0.3663  0.6971  0.2333
   14SAPS  H11R 1788   1.996   1.603   7.331  2.0886 -0.2342 -0.9545
   14SAPS  C212 1789   2.032   1.589   7.528 -0.0241  0.1480  0.3606
   14SAPS  H12R 1790   2.022   1.699   7.532 -1.7735  0.0113  0.6596
   14SAPS  C213 1791   2.039   1.525   7.661 -0.6976  0.4354 -0.8030
   14SAPS  H13R 1792   2.091   1.428   7.649 -2.8983 -0.7791 -1.1266
   14SAPS  H13S 1793   1.937   1.486   7.683 -0.1452  0.1855  1.4710
   14SAPS  C214 1794   2.091   1.620   7.771 -0.3738  0.1289 -0.5291
   14SAPS  H14R 1795   2.157   1.702   7.742  0.7508 -0.5184  0.1441
   14SAPS  C215 1796   2.052   1.604   7.900  0.1333 -0.9352  0.1835
   14SAPS  H15R 1797   2.075   1.686   7.970  0.0496 -0.1253 -0.7145
   14SAPS  C216 1798   1.962   1.499   7.962  0.2129  0.1357 -0.2946
   14SAPS  H16R 1799   1.956   1.402   7.909 -0.7832 -0.1719  0.3469
   14SAPS  H16S 1800   1.858   1.538   7.965 -0.4692 -1.6174  0.1622
   14SAPS  C217 1801   1.991   1.459   8.106  0.8020 -0.4183  0.2175
   14SAPS  H17R 1802   2.100   1.436   8.116  1.3832  1.5756 -1.0541
   14SAPS  H17S 1803   1.936   1.371   8.146 -1.6168  0.9106 -0.0143
   14SAPS  C218 1804   1.983   1.575   8.204 -0.1901 -0.0336 -0.2539
   14SAPS  H18R 1805   1.893   1.639   8.193  0.2554  0.6978  0.2794
   14SAPS  H18S 1806   2.069   1.642   8.184 -0.0550 -0.2891 -0.5318
   14SAPS  C219 1807   1.991   1.536   8.353 -0.4133  0.6658 -0.3034
   14SAPS  H19R 1808   2.075   1.467   8.377 -0.8499  1.0724  2.8801
   14SAPS  H19S 1809   1.898   1.478   8.374 -0.9702  2.0402  1.3128
   14SAPS  C220 1810   2.019   1.652   8.452 -0.5160  0.4822 -0.3383
   14SAPS  H20R 1811   1.996   1.618   8.555 -0.0670  2.1904  0.3623
   14SAPS  H20S 1812   1.957   1.741   8.427  0.6642  0.6733 -2.9136
   14SAPS  H20T 1813   2.127   1.682   8.456 -0.3183 -0.1715 -0.7061
   14SAPS   C33 1814   1.827   1.046   6.926 -0.2191 -0.3427 -0.7165
   14SAPS   H3X 1815   1.933   1.075   6.938 -0.5762  0.9344 -0.5006
   14SAPS   H3Y 1816   1.812   0.945   6.883 -1.2483 -0.9465  0.9341
   14SAPS   C34 1817   1.785   1.054   7.068  0.0188  0.4962 -0.1176
   14SAPS   H4X 1818   1.679   1.023   7.080 -0.7264  2.6211 -0.7595
   14SAPS   H4Y 1819   1.796   1.157   7.108 -2.1254 -0.0520  2.1346
   14SAPS   C35 1820   1.866   0.968   7.164 -0.5515 -0.3319  0.0856
   14SAPS   H5X 1821   1.967   0.984   7.123 -1.1269  3.6144 -0.1790
   14SAPS   H5Y 1822   1.834   0.862   7.153 -0.8380 -0.3888  1.2440
   14SAPS   C36 1823   1.864   1.015   7.308 -0.2785 -0.0304 -0.0670
   14SAPS   H6X 1824   1.757   1.034   7.331 -0.7103 -2.7075  0.4859
   14SAPS   H6Y 1825   1.921   1.109   7.325 -0.0817 -0.3693  1.2102
   14SAPS   C37 1826   1.927   0.917   7.411  0.5835  0.3323 -0.1671
   14SAPS   H7X 1827   2.035   0.914   7.383  0.1804  0.5490 -1.8838
   14SAPS   H7Y 1828   1.897   0.813   7.388  3.9439 -0.5155 -1.3789
   14SAPS   C38 1829   1.906   0.961   7.559  0.5921 -0.0576  0.0502
   14SAPS   H8X 1830   1.797   0.967   7.577  0.4390  2.4604 -1.2675
   14SAPS   H8Y 1831   1.953   1.061   7.567 -0.9241  0.6157  0.7286
   14SAPS   C39 1832   1.974   0.873   7.659 -0.7116  0.2314  0.2776
   14SAPS   H9X 1833   2.076   0.841   7.629 -0.9125 -2.2664  1.9755
   14SAPS   H9Y 1834   1.920   0.776   7.653  0.5366 -0.4478 -0.4950
   14SAPS  C310 1835   1.991   0.930   7.799 -0.1931  0.3575  0.8882
   14SAPS  H10X 1836   2.062   1.015   7.808  0.8040 -0.4438  0.8243
   14SAPS  H10Y 1837   2.033   0.845   7.856  1.0728  0.3659  0.0082
   14SAPS  C311 1838   1.852   0.966   7.865 -0.8086 -0.8816  0.1356
   14SAPS  H11X 1839   1.773   0.888   7.857 -2.0978  0.3837  0.1514
   14SAPS  H11Y 1840   1.812   1.051   7.806  0.4919 -2.2414 -2.8789
   14SAPS  C312 1841   1.863   1.014   8.011 -0.1761 -0.3934 -0.3433
   14SAPS  H12X 1842   1.905   1.116   8.024  0.4552 -0.9433  2.6444
   14SAPS  H12Y 1843   1.925   0.938   8.062 -0.1012 -1.7046 -2.2990
   14SAPS  C313 1844   1.724   1.012   8.077  0.1649 -0.0263 -0.0660
   14SAPS  H13X 1845   1.682   0.909   8.074 -1.0409  0.4675 -0.8408
   14SAPS  H13Y 1846   1.638   1.056   8.023  0.4348 -0.3735 -0.7893
   14SAPS  C314 1847   1.721   1.038   8.224  0.0135 -0.3746  0.0042
   14SAPS  H14X 1848   1.796   0.970   8.270 -1.7722 -2.2035  0.3873
   14SAPS  H14Y 1849   1.619   1.015   8.262  0.0148 -1.1908 -0.4730
   14SAPS  C315 1850   1.744   1.179   8.266 -0.9138  0.0951 -0.1868
   14SAPS  H15X 1851   1.687   1.254   8.208  1.6009  2.0402 -0.2868
   14SAPS  H15Y 1852   1.849   1.209   8.247 -0.9279  0.7150  0.6349
   14SAPS  C316 1853   1.728   1.209   8.416 -0.1583 -0.1529 -0.1814
   14SAPS  H16X 1854   1.619   1.195   8.435 -0.1688  0.7994  0.5789
   14SAPS  H16Y 1855   1.743   1.318   8.431 -0.8548 -0.0078 -0.4685
   14SAPS  C317 1856   1.800   1.118   8.513  0.0768  0.5353 -0.5687
   14SAPS  H17X 1857   1.906   1.148   8.528  0.3973 -0.7220 -0.1855
   14SAPS  H17Y 1858   1.786   1.014   8.475 -1.9388 -0.9395  3.5285
   14SAPS  C318 1859   1.737   1.135   8.652  0.1128  0.3153  0.5209
   14SAPS  H18X 1860   1.774   1.234   8.685  0.2387 -0.1451  1.7796
   14SAPS  H18Y 1861   1.771   1.060   8.726  1.1370  0.1298 -0.1129
   14SAPS  H18Z 1862   1.626   1.141   8.651  0.1196  0.4439  0.4139
   15SAPS     N 1863   3.125   0.805   5.960 -0.0946 -0.0386 -0.1555
   15SAPS   HN1 1864   3.113   0.718   5.905 -1.3944  0.7293 -1.1335
   15SAPS   HN2 1865   3.027   0.826   5.989  0.3563 -0.8809  2.2020
   15SAPS   HN3 1866   3.177   0.880   5.909 -0.3487  0.0767 -0.2465
   15SAPS   C12 1867   3.204   0.769   6.083 -0.1759  0.5324  0.3151
   15SAPS  H12A 1868   3.153   0.703   6.152  0.6853  0.7404  1.1622
   15SAPS   C13 1869   3.340   0.702   6.055  0.0972  0.1253  0.2130
   15SAPS  O13A 1870   3.373   0.707   5.929 -0.6556 -0.2029 -0.4452
   15SAPS  O13B 1871   3.416   0.660   6.143  0.0498 -0.7384  0.3276
   15SAPS   C11 1872   3.240   0.886   6.176  0.5109 -0.4276  0.2099
   15SAPS  H11A 1873   3.320   0.950   6.132  2.8037 -0.9352  3.3473
   15SAPS  H11B 1874   3.276   0.843   6.272 -0.1360  0.0654  0.6826
   15SAPS     P 1875   3.134   1.116   6.248  0.3026 -0.3522  0.0288
   15SAPS   O13 1876   3.272   1.157   6.278  0.7536 -0.2009 -0.5624
   15SAPS   O14 1877   3.072   1.195   6.143 -0.4076 -0.5962  0.7117
   15SAPS   O12 1878   3.127   0.964   6.210  0.3246 -0.2735  0.0472
   15SAPS   O11 1879   3.048   1.135   6.376 -0.0498  0.1408  0.3787
   15SAPS    C1 1880   3.059   1.050   6.492 -0.0682 -0.4463  0.1628
   15SAPS    HA 1881   2.964   0.996   6.512  0.2550 -0.2421  2.5767
   15SAPS    HB 1882   3.145   0.981   6.482 -1.0940 -1.4942 -1.9682
   15SAPS    C2 1883   3.083   1.136   6.623  0.2876 -0.5750 -0.1029
   15SAPS    HS 1884   3.168   1.206   6.606  0.9360 -1.9052 -3.0421
   15SAPS   O21 1885   3.112   1.052   6.732 -0.0220  0.0934 -0.0375
   15SAPS   C21 1886   3.194   1.092   6.826  0.0935 -0.2919  0.1232
   15SAPS   O22 1887   3.245   1.206   6.843 -0.2263  0.3053 -0.3876
   15SAPS   C22 1888   3.204   0.979   6.932 -0.3437  0.0012 -0.3194
   15SAPS   H2R 1889   3.106   0.930   6.943 -0.6699  0.7971  0.3984
   15SAPS   H2S 1890   3.270   0.903   6.884  0.4926  0.3349  0.2828
   15SAPS    C3 1891   2.963   1.240   6.657 -0.3733  0.4506  0.1255
   15SAPS    HX 1892   2.869   1.180   6.664 -2.0794  2.8865 -0.6935
   15SAPS    HY 1893   2.959   1.298   6.562  1.5971 -1.1875 -1.0458
   15SAPS   O31 1894   2.977   1.320   6.778 -0.0821  0.3314 -0.1207
   15SAPS   C31 1895   3.054   1.423   6.768  0.0909 -0.3063 -0.6012
   15SAPS   O32 1896   3.107   1.467   6.665 -0.8056  0.1476  0.2972
   15SAPS   C32 1897   3.074   1.488   6.906  0.4106  0.9210  0.3800
   15SAPS   H2X 1898   3.159   1.432   6.951 -0.6693 -0.2044  1.0526
   15SAPS   H2Y 1899   2.980   1.467   6.960  1.4386  0.0392  1.9105
   15SAPS   C23 1900   3.270   1.015   7.061  0.2488 -0.2697 -0.1324
   15SAPS   H3R 1901   3.203   1.089   7.109  0.9154  0.7344 -0.7006
   15SAPS   H3S 1902   3.368   1.067   7.055 -0.3184  1.2245  2.1733
   15SAPS   C24 1903   3.284   0.891   7.150  0.2122  0.2293  0.2689
   15SAPS   H4R 1904   3.359   0.919   7.227  1.5425  1.3165 -1.3770
   15SAPS   H4S 1905   3.318   0.806   7.087 -0.0254  0.7257 -0.5413
   15SAPS   C25 1906   3.157   0.866   7.224 -0.5005  0.1695  0.1738
   15SAPS   H5R 1907   3.072   0.896   7.161 -1.1519 -0.7114  0.6179
   15SAPS   C26 1908   3.139   0.830   7.351 -0.0051  0.1641  1.0537
   15SAPS   H6R 1909   3.037   0.824   7.391  0.1850 -0.3164  1.4686
   15SAPS   C27 1910   3.239   0.797   7.455 -0.3723 -0.0495  0.1842
   15SAPS   H7R 1911   3.324   0.743   7.409 -0.1658  0.7797 -0.4200
   15SAPS   H7S 1912   3.204   0.724   7.532  2.7266 -3.0908 -1.0245
   15SAPS   C28 1913   3.290   0.915   7.538 -0.5861  0.1487 -0.5070
   15SAPS   H8R 1914   3.334   0.994   7.476  0.4713  0.0731  0.1231
   15SAPS   C29 1915   3.293   0.931   7.673 -0.1267  0.0230  0.1773
   15SAPS   H9R 1916   3.347   1.020   7.708 -1.0404  0.7979 -0.3445
   15SAPS  C210 1917   3.244   0.834   7.774  0.3629  0.5963 -0.2303
   15SAPS  H10R 1918   3.190   0.751   7.723  1.9824  0.0287 -1.0885
   15SAPS  H10S 1919   3.165   0.875   7.841 -0.5404 -0.3204 -0.7083
   15SAPS  C211 1920   3.360   0.771   7.853  0.2002 -0.1049 -0.2441
   15SAPS  H11R 1921   3.403   0.682   7.805 -0.1316  0.3542 -1.4529
   15SAPS  C212 1922   3.409   0.817   7.970  0.2455 -1.1421 -0.2188
   15SAPS  H12R 1923   3.493   0.769   8.022 -0.2644  0.3396  2.1151
   15SAPS  C213 1924   3.354   0.943   8.033  0.6435  0.6060 -0.3871
   15SAPS  H13R 1925   3.249   0.927   8.066  0.3523 -1.4163 -2.0707
   15SAPS  H13S 1926   3.347   1.028   7.962  0.4873  0.0111 -1.0912
   15SAPS  C214 1927   3.441   0.973   8.148  0.0423  0.2846 -0.4022
   15SAPS  H14R 1928   3.534   1.028   8.127  0.3497 -0.4374 -0.9646
   15SAPS  C215 1929   3.407   0.941   8.275  0.1385 -0.2603  0.4688
   15SAPS  H15R 1930   3.476   0.971   8.355 -0.6558  2.8590  0.1333
   15SAPS  C216 1931   3.281   0.873   8.327 -0.3077 -0.2318 -0.1271
   15SAPS  H16R 1932   3.271   0.771   8.285  5.1615 -0.0074 -2.8211
   15SAPS  H16S 1933   3.192   0.932   8.296 -0.4850  0.6638  1.9450
   15SAPS  C217 1934   3.290   0.881   8.485  0.6337  0.8804  0.3453
   15SAPS  H17R 1935   3.264   0.986   8.510 -1.1464  0.4784  0.3041
   15SAPS  H17S 1936   3.392   0.870   8.528  0.3612 -1.0343  0.5886
   15SAPS  C218 1937   3.190   0.779   8.554 -0.0139 -0.2877  0.2299
   15SAPS  H18R 1938   3.203   0.676   8.512 -0.7213  0.0176 -0.7667
   15SAPS  H18S 1939   3.092   0.818   8.521  0.4055  0.4156 -0.2129
   15SAPS  C219 1940   3.203   0.774   8.709  0.3761 -0.0385 -0.2901
   15SAPS  H19R 1941   3.196   0.881   8.738  1.8545 -0.6935  3.0251
   15SAPS  H19S 1942   3.308   0.748   8.735  0.9367 -1.5746 -3.5244
   15SAPS  C220 1943   3.091   0.691   8.778  0.0204  0.3089  0.2965
   15SAPS  H20R 1944   3.106   0.706   8.888 -0.9181 -1.7905  0.7614
   15SAPS  H20S 1945   3.092   0.582   8.759  1.0572  0.2627  0.5536
   15SAPS  H20T 1946   2.987   0.726   8.759  0.5387  1.0425 -1.3513
   15SAPS   C33 1947   3.087   1.640   6.908 -0.2953 -0.1665 -0.3900
   15SAPS   H3X 1948   3.024   1.679   6.825  0.3778  1.2890 -0.2533
   15SAPS   H3Y 1949   3.191   1.676   6.902  0.0763 -0.1685  3.4671
   15SAPS   C34 1950   3.014   1.706   7.024  0.3165  0.3451  0.3954
   15SAPS   H4X 1951   2.907   1.705   6.995  0.7291  1.4633 -1.3180
   15SAPS   H4Y 1952   3.047   1.811   7.036  1.9037 -0.1288  0.3668
   15SAPS   C35 1953   3.027   1.627   7.157 -0.6886 -0.3380  0.1094
   15SAPS   H5X 1954   3.127   1.653   7.198 -0.4202  1.9686 -1.7816
   15SAPS   H5Y 1955   3.008   1.518   7.149  2.5097 -0.9704 -0.2875
   15SAPS   C36 1956   2.925   1.671   7.270  0.1188 -0.1863  0.6739
   15SAPS   H6X 1957   2.825   1.640   7.233  1.3444 -0.6885 -2.6145
   15SAPS   H6Y 1958   2.937   1.781   7.272  1.5967 -0.2798 -0.8327
   15SAPS   C37 1959   2.960   1.615   7.409  0.4215 -0.1694  0.3784
   15SAPS   H7X 1960   3.001   1.513   7.389 -2.3747 -1.3090  0.0060
   15SAPS   H7Y 1961   2.873   1.594   7.475  0.3997 -2.1024 -0.1885
   15SAPS   C38 1962   3.060   1.706   7.476 -0.5249  0.2019 -0.7874
   15SAPS   H8X 1963   3.015   1.807   7.489 -1.8253 -0.4313 -0.1808
   15SAPS   H8Y 1964   3.143   1.710   7.402  0.1939 -1.7854 -0.1498
   15SAPS   C39 1965   3.115   1.653   7.608 -0.0547  0.4166  0.3023
   15SAPS   H9X 1966   3.026   1.652   7.675 -1.8106 -2.4033 -1.8470
   15SAPS   H9Y 1967   3.199   1.714   7.647 -0.2149 -0.3066  1.8680
   15SAPS  C310 1968   3.170   1.512   7.584  0.7189  0.1620 -0.1165
   15SAPS  H10X 1969   3.254   1.525   7.512  1.1962  0.5974  0.5169
   15SAPS  H10Y 1970   3.088   1.450   7.541 -0.4994  1.8197 -0.2978
   15SAPS  C311 1971   3.229   1.431   7.696  0.0523 -0.2296  0.7779
   15SAPS  H11X 1972   3.329   1.477   7.711 -0.5542  1.5265 -0.2258
   15SAPS  H11Y 1973   3.232   1.324   7.668 -3.8539 -0.8674  2.0830
   15SAPS  C312 1974   3.160   1.432   7.837  0.5130 -0.0599 -0.2037
   15SAPS  H12X 1975   3.052   1.408   7.830 -0.0801  2.0345  0.7597
   15SAPS  H12Y 1976   3.148   1.539   7.866  1.1380  0.2130 -0.9167
   15SAPS  C313 1977   3.227   1.353   7.948 -0.0178  0.4229 -0.5429
   15SAPS  H13X 1978   3.317   1.407   7.981 -0.0667 -0.5575  1.3580
   15SAPS  H13Y 1979   3.257   1.249   7.922 -0.9466  0.1083 -0.3925
   15SAPS  C314 1980   3.150   1.343   8.083  0.2563  0.4228 -0.7798
   15SAPS  H14X 1981   3.070   1.266   8.081 -0.2720  0.8443  1.2080
   15SAPS  H14Y 1982   3.107   1.444   8.100  3.0838  1.8875 -1.5487
   15SAPS  C315 1983   3.231   1.316   8.211  0.8517  0.7227  0.0987
   15SAPS  H15X 1984   3.308   1.391   8.240 -0.3178  1.7843  0.5557
   15SAPS  H15Y 1985   3.278   1.215   8.205 -1.4570 -0.6343  2.4457
   15SAPS  C316 1986   3.130   1.321   8.341 -0.2141 -0.0210  0.0298
   15SAPS  H16X 1987   3.066   1.231   8.327  0.5166 -0.3623 -1.3880
   15SAPS  H16Y 1988   3.077   1.417   8.328 -2.4907 -0.5915  3.6536
   15SAPS  C317 1989   3.201   1.332   8.481  0.3731  0.2252  1.0578
   15SAPS  H17X 1990   3.303   1.290   8.467 -0.6018 -1.7738 -0.5018
   15SAPS  H17Y 1991   3.148   1.256   8.541 -0.2042  0.2381  0.5745
   15SAPS  C318 1992   3.200   1.460   8.553 -0.1633  0.3358  0.0058
   15SAPS  H18X 1993   3.263   1.528   8.492 -1.3773  2.4598  0.9985
   15SAPS  H18Y 1994   3.240   1.453   8.657  0.6479 -2.1845 -0.3933
   15SAPS  H18Z 1995   3.101   1.511   8.553  0.2392  1.1527 -1.4127
   16SAPS     N 1996   4.946   3.135   6.422 -0.3967  0.5500  0.1288
   16SAPS   HN1 1997   5.024   3.170   6.363  0.9534 -0.7310  1.0729
   16SAPS   HN2 1998   4.855   3.182   6.406  0.4795  1.9130 -1.2442
   16SAPS   HN3 1999   4.969   3.149   6.522 -0.7414  2.1991  0.0063
   16SAPS   C12 2000   4.921   2.988   6.409 -0.2487  0.8891 -0.0142
   16SAPS  H12A 2001   4.849   2.961   6.485 -0.5114  1.1193 -0.1795
   16SAPS   C13 2002   4.868   2.954   6.268 -1.1551 -0.5639 -0.0536
   16SAPS  O13A 2003   4.881   3.037   6.176 -0.9115  0.1339  0.1583
   16SAPS  O13B 2004   4.848   2.834   6.245  0.5529 -0.2317 -0.5134
   16SAPS   C11 2005   5.052   2.907   6.443  0.2990  0.0592 -0.3951
   16SAPS  H11A 2006   5.131   2.932   6.370  0.7625 -2.4794 -0.8507
   16SAPS  H11B 2007   5.050   2.796   6.449  1.0104  0.1240  1.5429
   16SAPS     P 2008   5.233   2.909   6.637  0.2836  0.4034 -0.2748
   16SAPS   O13 2009   5.287   2.789   6.572 -0.0705 -0.2735 -0.1669
   16SAPS   O14 2010   5.315   3.027   6.628 -0.2191 -0.6101  0.2173
   16SAPS   O12 2011   5.086   2.941   6.578  0.1540  0.5022  0.2147
   16SAPS   O11 2012   5.209   2.872   6.786 -0.1259 -0.1336  0.4775
   16SAPS    C1 2013   5.149   2.961   6.891 -0.3749  0.1305 -0.5244
   16SAPS    HA 2014   5.076   3.030   6.845  0.9131 -0.1769 -3.1968
   16SAPS    HB 2015   5.097   2.900   6.968  1.3044  0.4220  0.9088
   16SAPS    C2 2016   5.269   3.029   6.971  0.3494  0.4656  0.1369
   16SAPS    HS 2017   5.342   3.066   6.896 -0.1551 -0.6642 -0.9491
   16SAPS   O21 2018   5.328   2.919   7.051  0.3127 -0.6795  0.3289
   16SAPS   C21 2019   5.455   2.940   7.094  0.1753  0.2857  0.5310
   16SAPS   O22 2020   5.528   3.025   7.046  0.2697  0.1366  0.2929
   16SAPS   C22 2021   5.499   2.837   7.192  0.1229 -0.3312 -0.4266
   16SAPS   H2R 2022   5.497   2.734   7.151 -0.0289 -0.2043 -0.7420
   16SAPS   H2S 2023   5.605   2.860   7.219 -0.9510  0.5305  3.6924
   16SAPS    C3 2024   5.216   3.146   7.060  0.3335 -0.4336 -0.1193
   16SAPS    HX 2025   5.190   3.225   6.987  1.0231 -0.6907 -0.6527
   16SAPS    HY 2026   5.296   3.188   7.124  0.4529  0.7349 -1.0203
   16SAPS   O31 2027   5.088   3.117   7.124 -0.1938  0.2571 -0.2425
   16SAPS   C31 2028   5.108   3.055   7.239  0.1464  0.1831  0.2116
   16SAPS   O32 2029   5.215   3.043   7.298  0.1177  0.6447  0.3108
   16SAPS   C32 2030   4.970   3.013   7.299 -0.3697 -0.2151  0.2482
   16SAPS   H2X 2031   4.920   2.937   7.235 -2.9720  0.1559  1.7117
   16SAPS   H2Y 2032   4.905   3.103   7.307 -0.6764 -0.2762 -1.1949
   16SAPS   C23 2033   5.412   2.827   7.315  0.9151 -0.0563 -0.6998
   16SAPS   H3R 2034   5.304   2.810   7.293  1.0570 -2.7884  0.3674
   16SAPS   H3S 2035   5.416   2.922   7.371 -0.3434 -0.2205 -0.2944
   16SAPS   C24 2036   5.447   2.707   7.396 -0.3014 -0.5174 -0.4468
   16SAPS   H4R 2037   5.446   2.612   7.339 -1.2314 -1.3848  0.9444
   16SAPS   H4S 2038   5.361   2.685   7.464  0.0414 -1.4266 -0.2926
   16SAPS   C25 2039   5.576   2.714   7.475 -0.3274 -0.1327  0.4975
   16SAPS   H5R 2040   5.663   2.666   7.429  0.1771 -1.2263  2.4569
   16SAPS   C26 2041   5.587   2.754   7.603  0.3362 -0.1479  0.6039
   16SAPS   H6R 2042   5.686   2.757   7.652  0.9202 -1.1681 -0.4494
   16SAPS   C27 2043   5.476   2.813   7.689 -0.2425  0.4398  0.4976
   16SAPS   H7R 2044   5.408   2.873   7.624 -0.1143 -1.0666 -1.0742
   16SAPS   H7S 2045   5.511   2.880   7.771 -0.3147  0.6300  0.3734
   16SAPS   C28 2046   5.386   2.703   7.739  0.0303 -0.2312 -0.2049
   16SAPS   H8R 2047   5.339   2.647   7.656  2.1839 -0.0016 -1.6740
   16SAPS   C29 2048   5.371   2.661   7.863  0.1541 -0.0615  0.3854
   16SAPS   H9R 2049   5.303   2.577   7.880 -2.7455  2.0754  0.1907
   16SAPS  C210 2050   5.436   2.715   7.987 -0.3665  0.0494 -0.3080
   16SAPS  H10R 2051   5.373   2.704   8.077  0.0650 -0.5332 -0.0701
   16SAPS  H10S 2052   5.444   2.826   7.988 -0.2346  0.0773  2.5636
   16SAPS  C211 2053   5.570   2.661   8.012 -0.0778  0.5933  0.2197
   16SAPS  H11R 2054   5.641   2.680   7.931  0.4934  0.4064  0.6726
   16SAPS  C212 2055   5.616   2.599   8.122  0.1875 -0.8793 -0.3256
   16SAPS  H12R 2056   5.720   2.565   8.120 -0.3003 -2.4817 -0.0835
   16SAPS  C213 2057   5.535   2.574   8.247  0.8945 -0.2699  0.2602
   16SAPS  H13R 2058   5.480   2.477   8.251  1.8558 -0.8446 -0.1532
   16SAPS  H13S 2059   5.464   2.657   8.264  0.2602 -0.3715 -1.6673
   16SAPS  C214 2060   5.628   2.578   8.362 -0.4317  0.2164  0.7077
   16SAPS  H14R 2061   5.696   2.664   8.358  0.7862 -0.7756 -0.8904
   16SAPS  C215 2062   5.649   2.489   8.462 -0.1652 -0.2903  0.1749
   16SAPS  H15R 2063   5.718   2.515   8.543 -0.7343  0.6677  0.3697
   16SAPS  C216 2064   5.576   2.357   8.486  0.3046  0.3878  0.1105
   16SAPS  H16R 2065   5.604   2.296   8.396  1.4310  0.4249  0.4140
   16SAPS  H16S 2066   5.466   2.368   8.496  0.2531 -1.5113  2.5025
   16SAPS  C217 2067   5.634   2.274   8.606 -0.3904 -0.8373  0.6382
   16SAPS  H17R 2068   5.744   2.265   8.589 -0.1990 -0.5525  1.6523
   16SAPS  H17S 2069   5.594   2.171   8.596 -1.9438 -0.4211  2.1812
   16SAPS  C218 2070   5.613   2.337   8.742 -0.3201 -0.8341 -0.0714
   16SAPS  H18R 2071   5.513   2.383   8.753 -0.6754 -1.5221 -0.3673
   16SAPS  H18S 2072   5.689   2.417   8.755 -1.1420 -0.2031  1.0409
   16SAPS  C219 2073   5.624   2.240   8.860 -0.4075  0.2567  0.4812
   16SAPS  H19R 2074   5.594   2.302   8.947  0.9430  1.3363  0.2032
   16SAPS  H19S 2075   5.730   2.210   8.877 -0.1401  1.2014  0.4994
   16SAPS  C220 2076   5.540   2.111   8.849  0.0359 -0.6519  0.2382
   16SAPS  H20R 2077   5.565   2.047   8.762 -2.8340 -1.7958  0.1619
   16SAPS  H20S 2078   5.437   2.138   8.820 -0.1278 -1.3669  0.1519
   16SAPS  H20T 2079   5.550   2.055   8.944  1.9913  1.4763  1.4195
   16SAPS   C33 2080   4.991   2.954   7.437  0.2319 -0.0916  0.4021
   16SAPS   H3X 2081   5.034   3.027   7.509 -0.8687  0.0653  0.9408
   16SAPS   H3Y 2082   5.069   2.877   7.421 -0.6748 -1.1035  0.7386
   16SAPS   C34 2083   4.865   2.893   7.508 -0.3291 -0.2518  0.8666
   16SAPS   H4X 2084   4.810   2.812   7.454  0.1407 -0.7078  1.0599
   16SAPS   H4Y 2085   4.795   2.974   7.534  0.1142  0.8322 -1.1033
   16SAPS   C35 2086   4.903   2.818   7.636 -0.2249 -0.1302  0.4508
   16SAPS   H5X 2087   4.958   2.731   7.596  0.2737 -0.3768  1.6312
   16SAPS   H5Y 2088   4.814   2.765   7.677 -1.1020 -0.3822 -1.6464
   16SAPS   C36 2089   4.986   2.897   7.745 -0.3886  0.3023  0.7749
   16SAPS   H6X 2090   4.926   2.981   7.786 -0.7122 -0.1851  1.3227
   16SAPS   H6Y 2091   5.078   2.943   7.704 -0.3133 -1.1116 -0.7541
   16SAPS   C37 2092   5.027   2.815   7.867 -0.1001  0.4906 -0.3740
   16SAPS   H7X 2093   5.098   2.736   7.837 -0.7419 -0.1186 -0.3007
   16SAPS   H7Y 2094   4.937   2.769   7.913 -2.9052  3.1074 -2.8100
   16SAPS   C38 2095   5.104   2.896   7.977  0.9414  0.6695  0.1878
   16SAPS   H8X 2096   5.062   2.998   7.986  1.0555  0.6032  1.6809
   16SAPS   H8Y 2097   5.204   2.910   7.930  0.0712  0.5507 -1.8069
   16SAPS   C39 2098   5.112   2.827   8.110 -0.0189  0.3262  0.0663
   16SAPS   H9X 2099   5.148   2.727   8.079 -1.8397 -0.5328  0.6246
   16SAPS   H9Y 2100   5.009   2.817   8.149 -0.4786  1.7438 -0.6949
   16SAPS  C310 2101   5.208   2.896   8.206  0.1285  0.0838  0.5083
   16SAPS  H10X 2102   5.166   2.999   8.217  2.5396  1.1121  0.7973
   16SAPS  H10Y 2103   5.312   2.901   8.169 -0.1961  1.0846 -0.3433
   16SAPS  C311 2104   5.191   2.835   8.354  0.2897  0.4325  0.2046
   16SAPS  H11X 2105   5.275   2.764   8.365  1.6782  1.8793 -0.5598
   16SAPS  H11Y 2106   5.090   2.790   8.360  1.5374 -2.8483 -1.3373
   16SAPS  C312 2107   5.210   2.954   8.452  0.1005  0.5030 -0.0531
   16SAPS  H12X 2108   5.154   3.045   8.421  1.5277  0.9369 -1.5223
   16SAPS  H12Y 2109   5.316   2.988   8.456  0.3905  0.1897 -2.7884
   16SAPS  C313 2110   5.162   2.896   8.584 -0.1086 -0.2083  0.1871
   16SAPS  H13X 2111   5.071   2.832   8.582 -0.0689 -0.2455 -0.8517
   16SAPS  H13Y 2112   5.130   2.981   8.648  1.4503 -0.6598  1.6407
   16SAPS  C314 2113   5.284   2.848   8.670  0.1839  0.7368  0.1569
   16SAPS  H14X 2114   5.353   2.929   8.700 -0.7964  1.3552  0.7855
   16SAPS  H14Y 2115   5.337   2.778   8.602 -0.8536  0.9255 -0.8710
   16SAPS  C315 2116   5.245   2.759   8.786 -0.8297 -0.0049 -0.2419
   16SAPS  H15X 2117   5.204   2.668   8.739 -0.5283  0.2353 -0.9848
   16SAPS  H15Y 2118   5.168   2.807   8.850  0.0517  2.9041 -1.2110
   16SAPS  C316 2119   5.361   2.720   8.892  0.1405 -0.6154  0.5427
   16SAPS  H16X 2120   5.394   2.816   8.937  0.7042  0.1090 -1.3030
   16SAPS  H16Y 2121   5.439   2.667   8.832  0.6383  0.2918  0.3685
   16SAPS  C317 2122   5.313   2.619   9.001 -0.1599  0.3698  0.2101
   16SAPS  H17X 2123   5.264   2.525   8.969 -1.6181  1.4082 -0.7321
   16SAPS  H17Y 2124   5.241   2.671   9.068  0.5018  0.3414  0.9625
   16SAPS  C318 2125   5.423   2.590   9.102  0.8273  0.7026  0.3289
   16SAPS  H18X 2126   5.467   2.688   9.133 -0.6675  0.7556  2.4990
   16SAPS  H18Y 2127   5.502   2.529   9.054 -0.8451 -0.4362 -1.0620
   16SAPS  H18Z 2128   5.387   2.542   9.196 -2.1511  3.3458  0.7025
   17SAPC     N 2129   2.307   5.852  10.872  0.0667 -0.2078 -0.4845
   17SAPC   C12 2130   2.289   5.831  10.723 -0.0518  0.1964 -0.0320
   17SAPC  H12A 2131   2.222   5.906  10.683  0.3365  1.7690  2.1392
   17SAPC  H12B 2132   2.239   5.735  10.714  0.4140 -0.1259  0.8047
   17SAPC   C13 2133   2.400   5.964  10.911  0.1996 -0.2105  0.5310
   17SAPC  H13A 2134   2.388   6.002  11.011 -2.1871  1.1993 -0.2072
   17SAPC  H13B 2135   2.503   5.939  10.890 -0.3720 -0.3328 -2.7537
   17SAPC  H13C 2136   2.397   6.048  10.843  0.3406  1.1218  2.0985
   17SAPC   C14 2137   2.179   5.883  10.936 -0.1174  0.7021 -0.0881
   17SAPC  H14A 2138   2.118   5.797  10.961  0.1786  0.7938  1.0091
   17SAPC  H14B 2139   2.187   5.924  11.035 -0.5455 -0.9014  0.6556
   17SAPC  H14C 2140   2.121   5.954  10.879 -0.3355  1.9352  1.5878
   17SAPC   C15 2141   2.359   5.733  10.942 -0.3314  0.5842  0.2158
   17SAPC  H15A 2142   2.459   5.707  10.913 -0.4451  1.5923 -1.1737
   17SAPC  H15B 2143   2.353   5.756  11.047 -3.9497  1.3571 -0.0080
   17SAPC  H15C 2144   2.295   5.649  10.919  0.5237  0.4352 -1.7965
   17SAPC   C11 2145   2.413   5.829  10.637  0.3649 -0.7442  0.0702
   17SAPC  H11A 2146   2.449   5.934  10.642 -0.8840 -0.3589  3.2003
   17SAPC  H11B 2147   2.396   5.827  10.527 -0.0479  0.4604  0.0956
   17SAPC     P 2148   2.488   5.582  10.634 -0.0150  0.1433 -0.2140
   17SAPC   O13 2149   2.584   5.505  10.715  0.0447 -0.2906  0.5509
   17SAPC   O14 2150   2.346   5.550  10.661  0.0590 -0.1479  0.2041
   17SAPC   O12 2151   2.507   5.734  10.673 -0.8720  0.5478 -0.4938
   17SAPC   O11 2152   2.522   5.571  10.480  0.2786 -0.0228  0.1924
   17SAPC    C1 2153   2.652   5.586  10.419  0.7752 -0.0675 -0.2383
   17SAPC    HA 2154   2.728   5.600  10.499  1.2581  0.5212 -0.7903
   17SAPC    HB 2155   2.678   5.503  10.351  1.1115  1.1684 -1.6716
   17SAPC    C2 2156   2.661   5.708  10.326  0.1243 -0.4591  0.0889
   17SAPC    HS 2157   2.755   5.693  10.268  0.3755 -0.7270  0.5627
   17SAPC   O21 2158   2.661   5.832  10.393  0.5465  0.0145 -0.6493
   17SAPC   C21 2159   2.776   5.866  10.453 -0.9188 -0.1268 -0.0787
   17SAPC   O22 2160   2.879   5.798  10.461 -0.8251  0.2352  0.3288
   17SAPC   C22 2161   2.768   6.005  10.510 -0.0613  0.6347  0.1974
   17SAPC   H2R 2162   2.662   6.038  10.500 -0.9586 -0.9941  3.2512
   17SAPC   H2S 2163   2.790   6.016  10.618 -0.7393  1.0176  0.3030
   17SAPC    C3 2164   2.555   5.704  10.216 -0.2445  0.1450  0.8688
   17SAPC    HX 2165   2.464   5.756  10.254  0.2050 -1.0874  3.8991
   17SAPC    HY 2166   2.520   5.599  10.206 -2.3534  0.9510 -1.1335
   17SAPC   O31 2167   2.596   5.755  10.094 -0.1823 -0.3469  0.5259
   17SAPC   C31 2168   2.505   5.747  10.002  0.0039 -0.8703 -0.2971
   17SAPC   O32 2169   2.391   5.713  10.022  0.3062  0.3640  0.3659
   17SAPC   C32 2170   2.552   5.801   9.865  0.1801  0.1726  0.1233
   17SAPC   H2X 2171   2.662   5.807   9.878  0.0523 -1.5258  2.7917
   17SAPC   H2Y 2172   2.506   5.902   9.865 -1.9113 -0.6608  2.8185
   17SAPC   C23 2173   2.851   6.111  10.435  0.5896 -0.1895  1.1242
   17SAPC   H3R 2174   2.961   6.094  10.436  0.6547  0.2270  1.5943
   17SAPC   H3S 2175   2.843   6.214  10.475 -1.3099 -0.2837  1.0797
   17SAPC   C24 2176   2.817   6.132  10.290  0.7224 -0.9915  0.0575
   17SAPC   H4R 2177   2.799   6.037  10.236 -2.5652  0.0475 -0.9571
   17SAPC   H4S 2178   2.885   6.197  10.231 -2.2435 -0.1968 -2.7696
   17SAPC   C25 2179   2.683   6.203  10.277 -0.4704 -0.1791  0.3138
   17SAPC   H5R 2180   2.636   6.219  10.375  0.1068 -0.8852  0.7170
   17SAPC   C26 2181   2.614   6.235  10.168 -0.7341  0.2196  0.1748
   17SAPC   H6R 2182   2.524   6.296  10.183 -0.7861  0.0294  0.6517
   17SAPC   C27 2183   2.663   6.214  10.020  0.3308  0.1541  0.4343
   17SAPC   H7R 2184   2.717   6.117  10.014 -0.9940 -0.5313 -0.5919
   17SAPC   H7S 2185   2.742   6.290   9.997  0.5771 -0.2758 -0.1459
   17SAPC   C28 2186   2.547   6.217   9.929  0.4991  0.6794 -0.7605
   17SAPC   H8R 2187   2.456   6.268   9.966 -1.5691 -2.0609 -1.7650
   17SAPC   C29 2188   2.543   6.195   9.800  0.0769  0.7471  0.7101
   17SAPC   H9R 2189   2.451   6.221   9.746  0.7122  0.0030 -0.7930
   17SAPC  C210 2190   2.658   6.157   9.712 -0.3194  0.2423  0.3038
   17SAPC  H10R 2191   2.622   6.110   9.618 -0.2915 -0.0482  0.4362
   17SAPC  H10S 2192   2.712   6.069   9.753 -0.7020 -0.4429 -0.6356
   17SAPC  C211 2193   2.764   6.268   9.690  0.6677 -0.0446 -0.4359
   17SAPC  H11R 2194   2.831   6.287   9.774  1.0411  3.0326 -1.3146
   17SAPC  C212 2195   2.788   6.330   9.574  0.2482  0.5170  0.5546
   17SAPC  H12R 2196   2.862   6.411   9.566 -1.3014  1.7821 -2.2894
   17SAPC  C213 2197   2.703   6.307   9.449  0.0780  0.7257  0.5046
   17SAPC  H13R 2198   2.607   6.259   9.475  0.2605 -0.1044 -0.2996
   17SAPC  H13S 2199   2.770   6.232   9.402 -0.3688  1.9308 -2.2926
   17SAPC  C214 2200   2.696   6.425   9.355 -0.0299  0.2322  0.2178
   17SAPC  H14R 2201   2.747   6.518   9.387 -0.4843  0.7819 -0.6026
   17SAPC  C215 2202   2.618   6.439   9.245 -0.9199  0.7996 -0.2865
   17SAPC  H15R 2203   2.609   6.538   9.197  0.4596  0.4727 -1.2759
   17SAPC  C216 2204   2.526   6.340   9.183  0.1149  0.1875  0.4595
   17SAPC  H16R 2205   2.424   6.383   9.179  0.6021  1.3227 -0.2566
   17SAPC  H16S 2206   2.549   6.239   9.222  3.0740  0.9084  0.8451
   17SAPC  C217 2207   2.564   6.318   9.034 -0.1308  0.6525  0.4503
   17SAPC  H17R 2208   2.507   6.231   8.993  1.2786  0.1159 -0.4262
   17SAPC  H17S 2209   2.671   6.295   9.020 -0.3350 -0.3532  0.4434
   17SAPC  C218 2210   2.533   6.447   8.955 -0.6155 -0.5012 -0.4726
   17SAPC  H18R 2211   2.578   6.539   8.998 -1.1853  0.7040 -2.3009
   17SAPC  H18S 2212   2.428   6.485   8.949 -0.5888 -0.4108 -0.3717
   17SAPC  C219 2213   2.583   6.435   8.809  1.1970 -0.0965  0.1149
   17SAPC  H19R 2214   2.520   6.354   8.766  0.6147 -0.6092  1.8393
   17SAPC  H19S 2215   2.688   6.398   8.820  0.7330 -2.2273 -1.8184
   17SAPC  C220 2216   2.549   6.564   8.737  0.3457  0.0800 -0.3926
   17SAPC  H20R 2217   2.440   6.581   8.739  0.1500 -1.1412  0.7722
   17SAPC  H20S 2218   2.581   6.570   8.631 -0.4836 -2.7555 -0.8848
   17SAPC  H20T 2219   2.592   6.649   8.795  0.7271  0.6640 -1.5157
   17SAPC   C33 2220   2.520   5.722   9.738 -0.1071 -0.6169  0.3761
   17SAPC   H3X 2221   2.409   5.723   9.735 -0.1741  2.5069  0.6550
   17SAPC   H3Y 2222   2.549   5.616   9.750  2.7747  0.2973  3.0860
   17SAPC   C34 2223   2.586   5.798   9.623  0.1246  0.6004  0.9753
   17SAPC   H4X 2224   2.692   5.816   9.653 -0.2376  3.0553  1.0429
   17SAPC   H4Y 2225   2.533   5.896   9.621 -1.6261 -0.3154  0.8359
   17SAPC   C35 2226   2.569   5.750   9.478  0.4021  0.3806  0.3959
   17SAPC   H5X 2227   2.465   5.720   9.454  1.7155 -4.0502 -0.7731
   17SAPC   H5Y 2228   2.618   5.650   9.473 -0.5338 -0.0623 -0.1022
   17SAPC   C36 2229   2.637   5.839   9.369 -0.2145  0.1944  0.0220
   17SAPC   H6X 2230   2.742   5.866   9.394 -0.8552  1.1490  1.8119
   17SAPC   H6Y 2231   2.586   5.936   9.382  0.4905  0.3837  1.5501
   17SAPC   C37 2232   2.633   5.781   9.229 -0.6726 -0.4054  0.6010
   17SAPC   H7X 2233   2.531   5.736   9.224 -0.9990  0.3427  0.4050
   17SAPC   H7Y 2234   2.704   5.695   9.225 -0.7808 -0.4809  0.3092
   17SAPC   C38 2235   2.645   5.884   9.113 -0.1321 -0.1535 -0.2998
   17SAPC   H8X 2236   2.748   5.924   9.118  0.0413 -0.3579 -1.8060
   17SAPC   H8Y 2237   2.572   5.968   9.118  2.1720  1.9698 -0.4660
   17SAPC   C39 2238   2.639   5.810   8.971 -0.3211 -0.4458 -0.2927
   17SAPC   H9X 2239   2.546   5.751   8.964  0.3541 -1.6543  0.6053
   17SAPC   H9Y 2240   2.722   5.737   8.972  0.6102  0.5827 -0.0682
   17SAPC  C310 2241   2.666   5.911   8.858  0.1841  0.0458 -0.4601
   17SAPC  H10X 2242   2.764   5.959   8.881 -0.7985  1.3515  1.1896
   17SAPC  H10Y 2243   2.594   5.996   8.862 -0.4213 -0.2128 -3.6342
   17SAPC  C311 2244   2.658   5.847   8.721 -0.1397  0.4476 -0.6862
   17SAPC  H11X 2245   2.648   5.933   8.651  1.8079  0.8662 -0.5127
   17SAPC  H11Y 2246   2.562   5.792   8.722  0.1173 -0.0371  1.2885
   17SAPC  C312 2247   2.780   5.769   8.665 -0.2527  0.0463 -0.0911
   17SAPC  H12X 2248   2.749   5.737   8.563 -0.3757  2.1946 -0.7859
   17SAPC  H12Y 2249   2.807   5.685   8.731  0.7940  1.2446  1.0712
   17SAPC  C313 2250   2.903   5.860   8.635 -0.1668  0.7344  0.0706
   17SAPC  H13X 2251   2.930   5.916   8.727 -0.4172 -1.3456  1.4701
   17SAPC  H13Y 2252   2.890   5.926   8.546 -0.4404 -1.6077 -1.7321
   17SAPC  C314 2253   3.030   5.776   8.613  0.2346 -0.4363 -0.8390
   17SAPC  H14X 2254   3.021   5.709   8.525 -0.4145 -0.8292 -0.4807
   17SAPC  H14Y 2255   3.022   5.707   8.700 -0.1050  1.0936  0.3986
   17SAPC  C315 2256   3.167   5.842   8.617  0.1669  0.8376  0.2545
   17SAPC  H15X 2257   3.244   5.765   8.637  0.0421  0.9846  1.3684
   17SAPC  H15Y 2258   3.170   5.905   8.709  0.7510 -3.8533  3.7972
   17SAPC  C316 2259   3.210   5.916   8.489 -0.4530 -0.1598 -0.2473
   17SAPC  H16X 2260   3.141   6.002   8.474  1.2233  1.8224  2.4796
   17SAPC  H16Y 2261   3.185   5.849   8.403 -0.8203 -0.1279 -0.1695
   17SAPC  C317 2262   3.359   5.957   8.495  0.3301 -0.1721  0.0915
   17SAPC  H17X 2263   3.407   6.002   8.406  0.2637 -2.7189 -1.3459
   17SAPC  H17Y 2264   3.434   5.876   8.512  2.4408  1.5653 -0.5506
   17SAPC  C318 2265   3.377   6.054   8.613 -0.4022  0.1040 -0.1496
   17SAPC  H18X 2266   3.301   6.134   8.603 -0.9846 -0.5973 -1.6826
   17SAPC  H18Y 2267   3.357   6.003   8.709 -1.0286  0.6990  0.0399
   17SAPC  H18Z 2268   3.475   6.105   8.620 -0.4215  1.0204 -4.0801
   18SAPC     N 2269   2.212   4.155  10.686  0.3430  0.2755  0.6468
   18SAPC   C12 2270   2.304   4.208  10.567  0.8199  0.8033  0.2043
   18SAPC  H12A 2271   2.317   4.125  10.499  1.8670  0.8552  0.3296
   18SAPC  H12B 2272   2.396   4.247  10.607  1.3240 -0.1222 -0.0069
   18SAPC   C13 2273   2.072   4.126  10.638 -0.1574  1.2324  0.3059
   18SAPC  H13A 2274   2.004   4.210  10.638 -2.4300 -0.4279 -2.8478
   18SAPC  H13B 2275   2.068   4.072  10.545 -2.9669 -2.9748  2.5599
   18SAPC  H13C 2276   2.035   4.052  10.708  0.6365 -1.2681 -1.7519
   18SAPC   C14 2277   2.267   4.028  10.741  0.6916  0.2996  0.7194
   18SAPC  H14A 2278   2.366   4.042  10.781  0.0481  3.1140  1.5611
   18SAPC  H14B 2279   2.202   3.999  10.822  1.2466 -0.4151  0.9083
   18SAPC  H14C 2280   2.274   3.954  10.663 -1.8688 -2.1488  2.6171
   18SAPC   C15 2281   2.197   4.261  10.783 -0.1003 -0.3145  0.1130
   18SAPC  H15A 2282   2.160   4.353  10.740 -0.5231 -0.1514  0.8214
   18SAPC  H15B 2283   2.131   4.245  10.866 -0.4671 -2.2477 -0.4959
   18SAPC  H15C 2284   2.292   4.293  10.824  0.0222  1.2950 -1.2693
   18SAPC   C11 2285   2.244   4.331  10.497  0.4421 -0.3508 -0.1898
   18SAPC  H11A 2286   2.141   4.324  10.456 -0.8406  2.4403  2.2269
   18SAPC  H11B 2287   2.306   4.354  10.407 -0.5245 -0.1429 -0.8187
   18SAPC     P 2288   2.342   4.558  10.623  0.1975 -0.1872 -0.0559
   18SAPC   O13 2289   2.289   4.638  10.733 -0.3716 -0.0948 -0.2583
   18SAPC   O14 2290   2.476   4.503  10.644  0.4236  0.0084 -0.7784
   18SAPC   O12 2291   2.238   4.442  10.586  0.0811 -1.0703 -0.4644
   18SAPC   O11 2292   2.345   4.633  10.486 -0.3610 -0.7087  0.1871
   18SAPC    C1 2293   2.237   4.699  10.414  0.2805 -0.3685  0.3645
   18SAPC    HA 2294   2.212   4.628  10.332 -0.0915  1.0538 -0.8005
   18SAPC    HB 2295   2.155   4.723  10.484  0.2463 -2.1684  0.9754
   18SAPC    C2 2296   2.283   4.827  10.352 -0.1985 -0.3957 -0.0696
   18SAPC    HS 2297   2.192   4.871  10.307 -0.6130 -1.1258  0.0304
   18SAPC   O21 2298   2.398   4.811  10.268  0.0752 -0.3815 -0.0571
   18SAPC   C21 2299   2.380   4.756  10.148  0.3207 -0.8032  0.2281
   18SAPC   O22 2300   2.275   4.712  10.106 -0.1042  0.2823  0.0499
   18SAPC   C22 2301   2.511   4.763  10.063 -0.1929 -0.0632  0.4540
   18SAPC   H2R 2302   2.583   4.827  10.118 -0.0474  0.0827  0.0991
   18SAPC   H2S 2303   2.546   4.658  10.059 -0.0725 -0.0438  1.0166
   18SAPC    C3 2304   2.315   4.934  10.471 -0.0633  0.5108  0.5382
   18SAPC    HX 2305   2.394   4.888  10.534 -0.4501 -0.5559  0.2729
   18SAPC    HY 2306   2.218   4.927  10.525 -0.4564  0.2585 -0.1755
   18SAPC   O31 2307   2.362   5.059  10.425 -0.1008 -0.0815  0.5666
   18SAPC   C31 2308   2.270   5.158  10.400 -0.1070  0.0577  0.3139
   18SAPC   O32 2309   2.149   5.144  10.402  0.1126  0.8748 -0.8140
   18SAPC   C32 2310   2.336   5.287  10.350  0.2820  0.2404 -0.1789
   18SAPC   H2X 2311   2.427   5.314  10.408 -0.0653  1.2176 -0.0598
   18SAPC   H2Y 2312   2.260   5.364  10.376  0.6282  1.1827 -1.8229
   18SAPC   C23 2313   2.490   4.826   9.918  0.3105  0.1341  0.0815
   18SAPC   H3R 2314   2.574   4.889   9.883  0.7194 -0.8069 -0.6758
   18SAPC   H3S 2315   2.399   4.890   9.914 -0.4454 -0.9313 -0.3456
   18SAPC   C24 2316   2.475   4.723   9.810  1.1375  0.3646  0.0312
   18SAPC   H4R 2317   2.431   4.776   9.722 -2.4198  0.1083  1.5253
   18SAPC   H4S 2318   2.401   4.647   9.840 -1.1480  1.8390 -1.5652
   18SAPC   C25 2319   2.591   4.639   9.770  0.0524 -0.4429  0.2338
   18SAPC   H5R 2320   2.632   4.582   9.854  1.1573  0.5933  0.4220
   18SAPC   C26 2321   2.636   4.623   9.646  0.9390 -0.4827  0.3690
   18SAPC   H6R 2322   2.728   4.564   9.634  0.0347 -1.4816 -2.7713
   18SAPC   C27 2323   2.599   4.692   9.515  0.0875  0.0695 -0.2165
   18SAPC   H7R 2324   2.489   4.705   9.515 -0.1273 -1.3430 -2.1040
   18SAPC   H7S 2325   2.622   4.625   9.429 -0.7971 -0.2688 -0.1950
   18SAPC   C28 2326   2.676   4.820   9.504  0.1883 -0.3079 -0.0611
   18SAPC   H8R 2327   2.742   4.854   9.586  2.1948 -3.7387 -0.0513
   18SAPC   C29 2328   2.655   4.910   9.403  0.1798 -0.3827  0.2294
   18SAPC   H9R 2329   2.722   4.996   9.390  1.0320 -1.1308 -0.4676
   18SAPC  C210 2330   2.561   4.898   9.286 -0.1798  0.0463 -0.3953
   18SAPC  H10R 2331   2.534   4.992   9.234  1.6818 -0.3774 -2.2786
   18SAPC  H10S 2332   2.464   4.861   9.326  1.1339 -1.5563  1.5127
   18SAPC  C211 2333   2.606   4.786   9.188 -0.5363  0.2153 -0.5478
   18SAPC  H11R 2334   2.549   4.692   9.186 -1.0266  0.4686  0.7995
   18SAPC  C212 2335   2.695   4.789   9.088  0.4692 -0.4259 -0.0699
   18SAPC  H12R 2336   2.695   4.705   9.016  1.0344 -1.9875  1.6740
   18SAPC  C213 2337   2.779   4.911   9.049 -0.3579  0.2374  0.4675
   18SAPC  H13R 2338   2.798   4.969   9.142 -0.2247  1.4551 -0.2982
   18SAPC  H13S 2339   2.715   4.985   8.996 -1.6426  0.3864  2.1448
   18SAPC  C214 2340   2.891   4.900   8.954  0.3501 -0.0226 -0.5780
   18SAPC  H14R 2341   2.983   4.892   9.014 -1.8638  0.8842  3.2739
   18SAPC  C215 2342   2.893   4.886   8.817 -0.8733 -0.1430 -0.7987
   18SAPC  H15R 2343   2.983   4.861   8.760 -0.8314 -0.7663 -0.4762
   18SAPC  C216 2344   2.777   4.890   8.726  0.3219 -0.5672 -0.2335
   18SAPC  H16R 2345   2.687   4.935   8.772 -0.3432 -0.5818 -1.4919
   18SAPC  H16S 2346   2.753   4.785   8.700  2.3326 -1.8532  2.5512
   18SAPC  C217 2347   2.825   4.971   8.607 -0.5275  0.3785  0.0921
   18SAPC  H17R 2348   2.855   5.077   8.626 -0.6394  0.1802  1.4280
   18SAPC  H17S 2349   2.733   4.985   8.547 -0.1769  1.0738 -0.2974
   18SAPC  C218 2350   2.920   4.889   8.509 -0.1154 -0.1242 -0.3051
   18SAPC  H18R 2351   2.857   4.803   8.478  1.9559 -2.1177  0.6477
   18SAPC  H18S 2352   3.003   4.836   8.561  1.0399 -1.4261 -3.2364
   18SAPC  C219 2353   2.966   4.962   8.387 -0.3000  0.2337  0.0529
   18SAPC  H19R 2354   3.007   4.886   8.316  1.0937  1.4855 -0.5300
   18SAPC  H19S 2355   3.050   5.033   8.401  0.4878 -0.5904 -0.3428
   18SAPC  C220 2356   2.856   5.047   8.320  0.5581  0.3585 -0.1354
   18SAPC  H20R 2357   2.769   4.982   8.295  1.3932 -2.1827  2.9237
   18SAPC  H20S 2358   2.907   5.084   8.229 -0.9060  0.8987 -0.7744
   18SAPC  H20T 2359   2.819   5.134   8.379  1.1334  1.0378 -0.7553
   18SAPC   C33 2360   2.355   5.289  10.198 -0.4774  0.0059 -0.2030
   18SAPC   H3X 2361   2.405   5.386  10.178 -1.6149  1.2912  2.6235
   18SAPC   H3Y 2362   2.265   5.281  10.133 -0.7067  0.2217  0.0851
   18SAPC   C34 2363   2.460   5.183  10.156 -0.2751  0.4554 -0.2216
   18SAPC   H4X 2364   2.407   5.086  10.140 -0.3436  0.7449 -1.9699
   18SAPC   H4Y 2365   2.530   5.169  10.241 -1.8032 -1.3091  0.8269
   18SAPC   C35 2366   2.540   5.226  10.027 -0.7421  0.4119 -0.3228
   18SAPC   H5X 2367   2.629   5.160  10.017 -2.2327 -1.8402  0.4550
   18SAPC   H5Y 2368   2.574   5.330  10.046  2.2380 -0.5920  0.3816
   18SAPC   C36 2369   2.456   5.222   9.902 -0.2384  0.5142 -0.6672
   18SAPC   H6X 2370   2.363   5.280   9.917 -1.0496 -0.9243  0.0798
   18SAPC   H6Y 2371   2.432   5.116   9.881  0.6540  0.0391  0.5945
   18SAPC   C37 2372   2.546   5.278   9.793  0.6097  0.0384  0.0265
   18SAPC   H7X 2373   2.639   5.217   9.789  0.3357 -0.4085  0.4385
   18SAPC   H7Y 2374   2.571   5.386   9.807 -0.7548  0.6698 -1.9635
   18SAPC   C38 2375   2.484   5.263   9.650 -0.1877  0.1358  0.1524
   18SAPC   H8X 2376   2.379   5.301   9.657 -1.5646 -2.9106 -1.7907
   18SAPC   H8Y 2377   2.488   5.159   9.612  0.3409 -0.3327  1.4344
   18SAPC   C39 2378   2.556   5.339   9.536  0.3499  0.4373  0.4069
   18SAPC   H9X 2379   2.660   5.300   9.529 -0.0507 -0.8229  1.1133
   18SAPC   H9Y 2380   2.558   5.446   9.565  0.3340  0.2122  1.2632
   18SAPC  C310 2381   2.483   5.330   9.398 -0.2274  0.1619  0.5214
   18SAPC  H10X 2382   2.384   5.379   9.412  0.0729  0.4260  1.8620
   18SAPC  H10Y 2383   2.461   5.223   9.376 -2.2545  0.4869  0.6996
   18SAPC  C311 2384   2.552   5.408   9.285 -0.5230  0.5831 -0.4009
   18SAPC  H11X 2385   2.661   5.393   9.299 -0.6183  1.1489  1.1780
   18SAPC  H11Y 2386   2.540   5.511   9.324 -0.0045 -0.0278  1.4739
   18SAPC  C312 2387   2.502   5.393   9.139  0.0284  0.0125  0.0414
   18SAPC  H12X 2388   2.570   5.461   9.082  0.6958 -0.2947  0.4532
   18SAPC  H12Y 2389   2.399   5.432   9.127  0.3303  0.4627 -1.3750
   18SAPC  C313 2390   2.519   5.249   9.090 -0.8686  0.2184 -0.1672
   18SAPC  H13X 2391   2.473   5.179   9.162  1.8020  0.9989  2.4858
   18SAPC  H13Y 2392   2.628   5.230   9.096 -0.9726 -0.0764  0.8770
   18SAPC  C314 2393   2.474   5.208   8.950 -0.2255 -0.2559  0.2726
   18SAPC  H14X 2394   2.364   5.211   8.942 -0.1441  0.3298 -0.9722
   18SAPC  H14Y 2395   2.510   5.105   8.929 -1.0452 -0.6166  0.6040
   18SAPC  C315 2396   2.535   5.303   8.846 -0.0200  0.4744 -0.2539
   18SAPC  H15X 2397   2.526   5.410   8.875  1.6286  0.8473 -0.9793
   18SAPC  H15Y 2398   2.493   5.286   8.745 -0.0591 -0.8018 -0.0341
   18SAPC  C316 2399   2.688   5.276   8.831  0.3760  0.6829  0.0184
   18SAPC  H16X 2400   2.707   5.170   8.802 -1.4714  0.2351  0.3139
   18SAPC  H16Y 2401   2.735   5.291   8.931  0.4344 -1.0328  0.2754
   18SAPC  C317 2402   2.759   5.376   8.740 -0.1144 -0.1565  0.6012
   18SAPC  H17X 2403   2.722   5.478   8.761  1.6982  0.8643 -0.8638
   18SAPC  H17Y 2404   2.753   5.362   8.630 -0.9063  1.1104  0.4679
   18SAPC  C318 2405   2.909   5.374   8.769  0.3765  0.8015 -0.6623
   18SAPC  H18X 2406   2.952   5.273   8.756  2.2314  1.6063 -1.1691
   18SAPC  H18Y 2407   2.929   5.404   8.874 -0.3611 -1.5427  0.1980
   18SAPC  H18Z 2408   2.972   5.443   8.708  1.6240  0.3908  0.1175
   19SAPC     N 2409   6.786   6.112  10.922 -0.0689 -0.3247 -0.6940
   19SAPC   C12 2410   6.782   5.993  10.825 -0.1394  0.2905  0.6094
   19SAPC  H12A 2411   6.715   6.011  10.742  1.6173 -0.9703 -1.1978
   19SAPC  H12B 2412   6.739   5.909  10.877 -2.4219  0.4523 -0.8713
   19SAPC   C13 2413   6.891   6.078  11.033 -0.0826 -0.0412  0.7329
   19SAPC  H13A 2414   6.974   6.035  10.979 -0.4761 -1.2298  1.0665
   19SAPC  H13B 2415   6.908   6.160  11.101  1.2372  0.9169 -0.6656
   19SAPC  H13C 2416   6.854   6.005  11.103  1.6521 -0.3821  1.3494
   19SAPC   C14 2417   6.834   6.238  10.865  0.1202  0.2397 -0.0306
   19SAPC  H14A 2418   6.925   6.214  10.812 -0.7787  0.1821 -1.6129
   19SAPC  H14B 2419   6.756   6.269  10.796 -2.4985  0.0027  2.6528
   19SAPC  H14C 2420   6.855   6.315  10.938  4.8409 -0.5585 -0.2444
   19SAPC   C15 2421   6.654   6.133  10.989  0.2018 -0.7211 -0.0277
   19SAPC  H15A 2422   6.578   6.056  10.987 -0.2941 -0.2596  0.5605
   19SAPC  H15B 2423   6.666   6.156  11.094  0.4280 -1.5255  0.1347
   19SAPC  H15C 2424   6.619   6.225  10.945 -0.4921  0.1168  2.1470
   19SAPC   C11 2425   6.914   5.939  10.761  0.0084  0.3044 -1.0887
   19SAPC  H11A 2426   6.892   5.848  10.700 -0.4935 -1.7820  1.9556
   19SAPC  H11B 2427   6.987   5.907  10.839 -0.2740 -0.8161 -1.2727
   19SAPC     P 2428   7.111   6.024  10.628 -0.3302 -0.6530 -0.3504
   19SAPC   O13 2429   7.150   6.124  10.530 -0.1255 -0.1953  0.1193
   19SAPC   O14 2430   7.204   6.001  10.744 -0.4913 -0.3553 -0.3007
   19SAPC   O12 2431   6.966   6.047  10.674  0.1651  0.1904  0.1882
   19SAPC   O11 2432   7.092   5.894  10.547 -0.4585  0.3805 -0.5420
   19SAPC    C1 2433   7.213   5.827  10.498  0.0153 -0.4065  0.6280
   19SAPC    HA 2434   7.306   5.888  10.485 -0.3482 -0.2011 -1.2715
   19SAPC    HB 2435   7.241   5.743  10.565  0.6563  0.4805  1.5147
   19SAPC    C2 2436   7.191   5.765  10.358  0.3521  0.5555  0.6525
   19SAPC    HS 2437   7.292   5.734  10.326 -0.3573 -0.0122 -1.1842
   19SAPC   O21 2438   7.129   5.851  10.258 -0.2832 -0.4033  0.6225
   19SAPC   C21 2439   7.229   5.919  10.195 -0.1563  0.0846 -0.0908
   19SAPC   O22 2440   7.345   5.932  10.231 -0.0831  0.1346 -0.1464
   19SAPC   C22 2441   7.165   5.985  10.077 -0.2973  0.1509 -0.2702
   19SAPC   H2R 2442   7.128   5.911  10.003  2.1256  0.1077 -1.5491
   19SAPC   H2S 2443   7.075   6.035  10.118  0.6097  1.2913  0.3915
   19SAPC    C3 2444   7.109   5.625  10.360 -0.2007 -0.0039 -0.6397
   19SAPC    HX 2445   7.012   5.640  10.412 -0.1226  0.0667 -0.5120
   19SAPC    HY 2446   7.169   5.553  10.420 -3.0577 -1.6737  0.4005
   19SAPC   O31 2447   7.087   5.577  10.227  0.2348  0.3941 -0.3244
   19SAPC   C31 2448   7.187   5.507  10.179  0.5877  0.2228 -0.3257
   19SAPC   O32 2449   7.289   5.488  10.238 -0.3243  0.3916 -1.1216
   19SAPC   C32 2450   7.140   5.439  10.051  0.1293  0.4986 -0.7342
   19SAPC   H2X 2451   7.045   5.492  10.027  0.6953  2.7971  1.6533
   19SAPC   H2Y 2452   7.131   5.333  10.083  0.5165  0.4702 -0.7210
   19SAPC   C23 2453   7.253   6.097  10.004  0.2896 -0.1620  0.1106
   19SAPC   H3R 2454   7.342   6.061   9.948  1.1456  1.2544  0.4931
   19SAPC   H3S 2455   7.284   6.170  10.082  0.9506  0.9538 -1.1548
   19SAPC   C24 2456   7.176   6.163   9.887 -0.3089 -0.0457 -0.2135
   19SAPC   H4R 2457   7.148   6.080   9.819  0.1452 -2.0792  1.9493
   19SAPC   H4S 2458   7.237   6.243   9.841  2.9290 -0.3749  3.0043
   19SAPC   C25 2459   7.052   6.230   9.938 -0.1568 -0.4228  0.2237
   19SAPC   H5R 2460   7.054   6.282  10.035  0.9240 -1.7726  0.9730
   19SAPC   C26 2461   6.928   6.217   9.880 -0.1347  0.1570  0.0605
   19SAPC   H6R 2462   6.843   6.272   9.925 -0.7816 -1.1738  0.5075
   19SAPC   C27 2463   6.890   6.153   9.751 -0.0736 -0.1906  1.1444
   19SAPC   H7R 2464   6.783   6.126   9.766 -0.3752  0.0504 -0.4087
   19SAPC   H7S 2465   6.945   6.057   9.743  3.4858  1.7942 -0.5956
   19SAPC   C28 2466   6.896   6.235   9.616 -0.2693  0.1550 -0.5100
   19SAPC   H8R 2467   6.927   6.339   9.631  0.1494  0.1507 -1.2944
   19SAPC   C29 2468   6.906   6.176   9.496  0.0194  0.6079 -0.2201
   19SAPC   H9R 2469   6.888   6.233   9.404 -0.1336  1.2388  0.1980
   19SAPC  C210 2470   6.902   6.021   9.485 -0.1394 -0.0404 -0.4934
   19SAPC  H10R 2471   6.810   5.977   9.529 -0.9564  2.3755  0.3755
   19SAPC  H10S 2472   6.984   5.992   9.555 -2.2198  1.6708  2.9125
   19SAPC  C211 2473   6.950   5.967   9.349 -0.0648  0.3677 -0.5743
   19SAPC  H11R 2474   7.039   6.018   9.309  0.8264  0.6677  1.6583
   19SAPC  C212 2475   6.891   5.867   9.273 -0.7125  0.3053 -0.5420
   19SAPC  H12R 2476   6.931   5.821   9.181  2.1819 -0.1083  0.7967
   19SAPC  C213 2477   6.769   5.783   9.308 -0.0534  0.1279 -0.4885
   19SAPC  H13R 2478   6.696   5.807   9.228 -0.9869 -1.3864 -0.1353
   19SAPC  H13S 2479   6.722   5.808   9.405 -1.3455  0.0687 -1.0887
   19SAPC  C214 2480   6.778   5.636   9.291 -0.1209 -0.9415 -0.9459
   19SAPC  H14R 2481   6.793   5.581   9.385  0.5672  2.7364  1.2739
   19SAPC  C215 2482   6.779   5.569   9.175 -0.4287  0.6184  0.5974
   19SAPC  H15R 2483   6.788   5.459   9.174 -0.5251  0.6085 -0.4458
   19SAPC  C216 2484   6.771   5.638   9.032  0.2933 -0.8676 -0.1046
   19SAPC  H16R 2485   6.792   5.746   9.016  0.5547 -0.8105  0.6117
   19SAPC  H16S 2486   6.667   5.637   8.994  0.3251  0.1403 -0.2490
   19SAPC  C217 2487   6.853   5.548   8.928  0.7179  0.5693 -0.4155
   19SAPC  H17R 2488   6.812   5.553   8.825  1.1422 -0.5971 -0.6581
   19SAPC  H17S 2489   6.830   5.442   8.953 -0.3404  0.8850 -0.0021
   19SAPC  C218 2490   7.002   5.567   8.938 -0.1367 -0.6508 -0.0774
   19SAPC  H18R 2491   7.037   5.513   9.028  0.8268  0.4476  0.2148
   19SAPC  H18S 2492   7.028   5.670   8.971  3.5160 -2.1584  2.3306
   19SAPC  C219 2493   7.081   5.510   8.814  0.0418 -0.6840 -0.0516
   19SAPC  H19R 2494   7.097   5.585   8.734  0.8090  0.9074  1.5203
   19SAPC  H19S 2495   7.013   5.432   8.773 -0.7255 -0.5845  0.9991
   19SAPC  C220 2496   7.222   5.461   8.836  0.8401  0.2067  0.6857
   19SAPC  H20R 2497   7.235   5.402   8.929 -0.6545 -2.4908 -0.7057
   19SAPC  H20S 2498   7.291   5.548   8.833 -0.6868  1.5102  1.5026
   19SAPC  H20T 2499   7.249   5.402   8.746  1.3020 -1.3800  1.8092
   19SAPC   C33 2500   7.247   5.461   9.942 -0.0635  0.2993 -0.1784
   19SAPC   H3X 2501   7.219   5.392   9.860  0.2097 -0.5031  0.3841
   19SAPC   H3Y 2502   7.339   5.422   9.991 -1.6499  0.2359  3.0186
   19SAPC   C34 2503   7.268   5.602   9.901  0.2350  0.5549 -0.2365
   19SAPC   H4X 2504   7.319   5.657   9.983  2.2831 -0.6505 -0.6175
   19SAPC   H4Y 2505   7.167   5.648   9.900 -0.7284 -1.3066  1.6308
   19SAPC   C35 2506   7.343   5.609   9.778  0.1476 -0.5605  0.4734
   19SAPC   H5X 2507   7.289   5.558   9.696  0.9847 -1.7699  0.6465
   19SAPC   H5Y 2508   7.443   5.562   9.793  0.8677 -0.1623 -2.4672
   19SAPC   C36 2509   7.360   5.751   9.724  0.1887  0.0914 -0.3299
   19SAPC   H6X 2510   7.433   5.747   9.640  1.1827  0.3252  0.5063
   19SAPC   H6Y 2511   7.406   5.818   9.799 -1.3594 -0.0367  0.7894
   19SAPC   C37 2512   7.238   5.829   9.676 -0.8953 -0.0401 -0.6866
   19SAPC   H7X 2513   7.170   5.848   9.763  0.3100 -0.7558  0.4398
   19SAPC   H7Y 2514   7.183   5.791   9.588 -1.7965  2.1416 -1.1397
   19SAPC   C38 2515   7.295   5.967   9.626 -0.0308 -0.7014  0.5351
   19SAPC   H8X 2516   7.358   6.025   9.696 -1.5537  1.5858  0.0893
   19SAPC   H8Y 2517   7.206   6.029   9.603  0.6743  0.0936 -0.1159
   19SAPC   C39 2518   7.371   5.965   9.485  0.1398 -0.2267  0.0288
   19SAPC   H9X 2519   7.307   5.913   9.411  0.7104  0.8122 -1.2419
   19SAPC   H9Y 2520   7.461   5.901   9.496 -1.1298 -1.9231  1.0131
   19SAPC  C310 2521   7.411   6.105   9.430  0.4063  0.0776  0.2145
   19SAPC  H10X 2522   7.460   6.087   9.332  0.8610  2.3089 -0.0261
   19SAPC  H10Y 2523   7.490   6.149   9.495  2.3183 -1.5786 -0.8645
   19SAPC  C311 2524   7.294   6.196   9.411 -0.4527 -0.5784 -0.3938
   19SAPC  H11X 2525   7.255   6.224   9.511  3.1657  3.1595  0.2907
   19SAPC  H11Y 2526   7.212   6.141   9.361 -0.5436 -2.7068  1.9334
   19SAPC  C312 2527   7.317   6.327   9.329  0.3350 -0.6473  0.5880
   19SAPC  H12X 2528   7.336   6.297   9.224 -1.9706  0.7905 -0.3408
   19SAPC  H12Y 2529   7.406   6.368   9.381  0.7126 -0.9835  0.2034
   19SAPC  C313 2530   7.193   6.413   9.333 -0.4098 -0.0420 -0.5966
   19SAPC  H13X 2531   7.161   6.413   9.439  1.7850  1.5349  0.1445
   19SAPC  H13Y 2532   7.124   6.371   9.257 -2.0531  0.3357  0.6287
   19SAPC  C314 2533   7.217   6.556   9.280  0.0739  0.1800 -0.5261
   19SAPC  H14X 2534   7.325   6.569   9.258  1.2728 -2.7004  2.7835
   19SAPC  H14Y 2535   7.192   6.632   9.358 -0.8324 -0.9552  0.3154
   19SAPC  C315 2536   7.146   6.598   9.150  0.3480 -0.1495 -0.4204
   19SAPC  H15X 2537   7.038   6.605   9.178  0.3758  2.7373 -0.7336
   19SAPC  H15Y 2538   7.162   6.521   9.071  1.1624  1.2127 -1.6351
   19SAPC  C316 2539   7.179   6.737   9.092  0.0674 -0.0005 -0.0205
   19SAPC  H16X 2540   7.284   6.738   9.057 -0.3879  0.3998 -1.4796
   19SAPC  H16Y 2541   7.153   6.820   9.161  1.2260  1.0642 -0.8204
   19SAPC  C317 2542   7.104   6.769   8.960  0.1816  0.4686 -0.5253
   19SAPC  H17X 2543   6.994   6.762   8.973  0.1250 -0.9694 -1.5739
   19SAPC  H17Y 2544   7.129   6.689   8.887  1.0778  1.0422 -0.8626
   19SAPC  C318 2545   7.146   6.911   8.906 -0.4416 -0.2182 -0.2481
   19SAPC  H18X 2546   7.090   6.993   8.956  1.1910  1.9098 -1.7826
   19SAPC  H18Y 2547   7.117   6.927   8.800  0.7924  1.2855 -0.3795
   19SAPC  H18Z 2548   7.253   6.932   8.925 -0.5560  1.3107 -1.1770
   20SAPC     N 2549   2.086   2.695  11.181  0.3075  0.0880  0.1113
   20SAPC   C12 2550   1.998   2.687  11.059  0.3435 -0.1118 -0.2290
   20SAPC  H12A 2551   1.906   2.742  11.073  0.7087  0.8923 -1.6028
   20SAPC  H12B 2552   1.972   2.583  11.046  1.7329 -0.6511  1.0473
   20SAPC   C13 2553   2.211   2.609  11.153 -0.3750  0.2190  0.3312
   20SAPC  H13A 2554   2.183   2.505  11.140 -0.7569  0.2619  0.7858
   20SAPC  H13B 2555   2.255   2.641  11.059 -1.1913  3.2522  0.8727
   20SAPC  H13C 2556   2.277   2.599  11.238 -0.8323 -0.4608  0.6110
   20SAPC   C14 2557   2.138   2.834  11.215  0.7503  0.3324  0.5953
   20SAPC  H14A 2558   2.054   2.900  11.231  1.4383  1.6991 -1.1371
   20SAPC  H14B 2559   2.203   2.828  11.301  1.5330 -1.9662 -0.0893
   20SAPC  H14C 2560   2.196   2.863  11.129  0.7778 -0.0927  0.4639
   20SAPC   C15 2561   2.027   2.634  11.304 -0.0091 -0.5420 -0.3568
   20SAPC  H15A 2562   2.102   2.615  11.379 -0.8789  0.9512  0.9513
   20SAPC  H15B 2563   1.946   2.690  11.349 -0.6365 -1.9544  0.3235
   20SAPC  H15C 2564   1.979   2.539  11.286  0.7898 -0.5953 -2.5465
   20SAPC   C11 2565   2.064   2.748  10.928  1.2521 -0.6329 -0.3143
   20SAPC  H11A 2566   1.993   2.739  10.843  1.3577  3.7194 -1.0492
   20SAPC  H11B 2567   2.157   2.691  10.906  0.3417 -2.0116 -0.7477
   20SAPC     P 2568   2.007   3.009  10.899  0.1616  0.0997  0.0592
   20SAPC   O13 2569   1.886   3.026  10.983  0.5960  0.1851  0.0157
   20SAPC   O14 2570   2.096   3.126  10.888 -0.0773 -0.1685  0.5121
   20SAPC   O12 2571   2.091   2.888  10.953  0.0033  0.6644  0.4408
   20SAPC   O11 2572   1.976   2.965  10.753 -0.6820  0.1355 -0.2002
   20SAPC    C1 2573   2.076   2.990  10.656 -0.0426 -0.4021 -0.6807
   20SAPC    HA 2574   2.179   2.960  10.685 -0.1358 -1.5531 -1.4815
   20SAPC    HB 2575   2.059   2.912  10.578  0.7278  0.8838 -2.2136
   20SAPC    C2 2576   2.065   3.121  10.581  0.5851  0.3542 -0.1320
   20SAPC    HS 2577   2.059   3.207  10.651 -1.2094 -0.2951  0.5926
   20SAPC   O21 2578   1.960   3.118  10.479 -0.4217 -0.1538  0.2219
   20SAPC   C21 2579   1.837   3.140  10.515  0.1151 -0.3392 -0.2439
   20SAPC   O22 2580   1.801   3.195  10.618 -0.0526 -0.0356 -0.2031
   20SAPC   C22 2581   1.745   3.105  10.396  0.0968 -0.2907 -0.4568
   20SAPC   H2R 2582   1.667   3.040  10.442 -0.0972 -0.3404 -0.8546
   20SAPC   H2S 2583   1.703   3.205  10.375  2.5448  0.4011 -2.4710
   20SAPC    C3 2584   2.199   3.144  10.504  0.2481 -0.3398  0.0676
   20SAPC    HX 2585   2.228   3.045  10.462 -1.3016 -0.4811 -0.7348
   20SAPC    HY 2586   2.269   3.173  10.585 -0.4245 -0.5288  0.7264
   20SAPC   O31 2587   2.180   3.245  10.402 -0.4763 -0.4298 -0.5372
   20SAPC   C31 2588   2.282   3.259  10.319  0.0587  0.6058  0.1618
   20SAPC   O32 2589   2.389   3.200  10.325  0.3353 -0.0636  0.3462
   20SAPC   C32 2590   2.239   3.347  10.201  0.8270  0.8150 -0.5030
   20SAPC   H2X 2591   2.162   3.421  10.235  1.2160  0.9668  0.0615
   20SAPC   H2Y 2592   2.189   3.289  10.121  0.3894  0.5241 -0.0290
   20SAPC   C23 2593   1.814   3.056  10.265 -0.1209 -0.4351 -1.1409
   20SAPC   H3R 2594   1.725   3.013  10.213 -1.7193  0.5103  0.7108
   20SAPC   H3S 2595   1.880   2.971  10.293  1.7584  0.7673 -1.7713
   20SAPC   C24 2596   1.884   3.167  10.187  0.3164  0.6794 -0.4319
   20SAPC   H4R 2597   1.957   3.218  10.255  1.2078  0.4739 -1.2113
   20SAPC   H4S 2598   1.818   3.251  10.157  0.6881  0.8360 -0.8278
   20SAPC   C25 2599   1.967   3.117  10.071  0.8981 -0.1921 -0.9802
   20SAPC   H5R 2600   2.059   3.073  10.112 -0.5025 -2.3997 -0.0646
   20SAPC   C26 2601   1.950   3.121   9.940 -0.0405  0.0450  0.2124
   20SAPC   H6R 2602   2.025   3.095   9.864  0.7017 -0.1408  0.9854
   20SAPC   C27 2603   1.826   3.181   9.878  0.3046  0.1678 -0.2712
   20SAPC   H7R 2604   1.862   3.278   9.836 -1.0220  1.4381  1.4117
   20SAPC   H7S 2605   1.749   3.208   9.953  0.2938 -1.0179  0.1565
   20SAPC   C28 2606   1.764   3.099   9.770  0.4262  0.5447  0.3034
   20SAPC   H8R 2607   1.687   3.024   9.790  0.7990 -0.7186 -2.4743
   20SAPC   C29 2608   1.787   3.106   9.641 -0.2088 -0.2134  0.7711
   20SAPC   H9R 2609   1.728   3.051   9.567 -2.8893  1.8582  1.2271
   20SAPC  C210 2610   1.886   3.198   9.571  0.4705 -0.4470 -0.9924
   20SAPC  H10R 2611   1.944   3.143   9.493 -0.1423  1.4280 -2.8652
   20SAPC  H10S 2612   1.958   3.251   9.635  0.3236  0.0008 -1.1967
   20SAPC  C211 2613   1.798   3.301   9.507 -0.0699  0.0409 -0.1077
   20SAPC  H11R 2614   1.748   3.377   9.569  1.9557  1.8294 -0.5746
   20SAPC  C212 2615   1.789   3.328   9.379  0.4220 -0.3501 -0.8883
   20SAPC  H12R 2616   1.702   3.388   9.349 -0.3985 -1.5351 -0.9705
   20SAPC  C213 2617   1.855   3.249   9.268  0.0162 -0.0539  0.1457
   20SAPC  H13R 2618   1.953   3.212   9.307 -0.6934 -1.0748  1.0170
   20SAPC  H13S 2619   1.868   3.321   9.185 -0.3938 -1.9774 -1.6558
   20SAPC  C214 2620   1.775   3.130   9.219 -0.6604  0.4304 -0.3871
   20SAPC  H14R 2621   1.779   3.047   9.292 -1.4984  2.6014  2.3308
   20SAPC  C215 2622   1.722   3.115   9.097 -0.4762  0.6801 -0.1176
   20SAPC  H15R 2623   1.675   3.022   9.060  1.6899 -0.0162 -1.3138
   20SAPC  C216 2624   1.710   3.222   8.987  0.3820  0.4627 -1.0571
   20SAPC  H16R 2625   1.676   3.178   8.891  0.1035 -0.0019 -0.7495
   20SAPC  H16S 2626   1.805   3.269   8.954  1.0619 -0.7527 -0.8940
   20SAPC  C217 2627   1.601   3.331   9.027 -0.6760  0.3185  0.5919
   20SAPC  H17R 2628   1.639   3.396   9.108  1.9742 -1.1209  0.6080
   20SAPC  H17S 2629   1.514   3.269   9.056 -1.0077  0.9019  0.8598
   20SAPC  C218 2630   1.578   3.419   8.901  0.2288 -0.1910 -0.6796
   20SAPC  H18R 2631   1.673   3.429   8.844  0.8336 -0.1380  0.3186
   20SAPC  H18S 2632   1.551   3.521   8.937  0.5461 -0.9400  1.8383
   20SAPC  C219 2633   1.468   3.368   8.801 -0.2363 -0.0743  0.5164
   20SAPC  H19R 2634   1.375   3.370   8.862 -2.1825  2.4013 -2.2290
   20SAPC  H19S 2635   1.496   3.263   8.782  0.6425  0.2838 -0.2618
   20SAPC  C220 2636   1.447   3.458   8.682 -0.5665 -0.6577  0.4410
   20SAPC  H20R 2637   1.353   3.435   8.629 -0.1583 -0.5518 -0.3397
   20SAPC  H20S 2638   1.532   3.455   8.610 -2.7290  1.8724 -2.4864
   20SAPC  H20T 2639   1.439   3.564   8.714 -1.2786 -0.3296 -0.7830
   20SAPC   C33 2640   2.349   3.438  10.121 -1.0016 -0.4745 -0.1221
   20SAPC   H3X 2641   2.443   3.384  10.099 -0.4063  0.8150 -0.8725
   20SAPC   H3Y 2642   2.381   3.515  10.195  1.3486 -0.3470 -1.1798
   20SAPC   C34 2643   2.272   3.497  10.002 -0.5553  0.1524  0.1505
   20SAPC   H4X 2644   2.330   3.587   9.972  1.1573 -1.0001 -0.1570
   20SAPC   H4Y 2645   2.176   3.534  10.044  0.9616 -0.0155  4.2992
   20SAPC   C35 2646   2.272   3.417   9.871 -0.4058 -0.1104  0.1340
   20SAPC   H5X 2647   2.228   3.316   9.888  1.7429 -0.8017  2.0468
   20SAPC   H5Y 2648   2.375   3.391   9.840 -1.7082 -0.4687 -4.7318
   20SAPC   C36 2649   2.209   3.494   9.753 -0.8799 -0.3347 -0.5043
   20SAPC   H6X 2650   2.267   3.589   9.744  2.0188 -1.9064  0.3582
   20SAPC   H6Y 2651   2.107   3.531   9.774 -0.3343  0.0953  1.6707
   20SAPC   C37 2652   2.219   3.424   9.627 -0.1521 -0.7733  0.5937
   20SAPC   H7X 2653   2.182   3.320   9.632 -1.2540 -0.4242 -0.0435
   20SAPC   H7Y 2654   2.323   3.420   9.587 -0.5205  1.5681 -0.7811
   20SAPC   C38 2655   2.145   3.505   9.517 -0.7170 -0.3755 -0.3609
   20SAPC   H8X 2656   2.187   3.608   9.511 -0.4914 -0.5580 -3.3300
   20SAPC   H8Y 2657   2.035   3.500   9.536 -0.4003 -1.6058  1.4502
   20SAPC   C39 2658   2.160   3.441   9.380  0.2737  0.2691 -0.2208
   20SAPC   H9X 2659   2.104   3.345   9.377 -0.6471  0.8014 -0.5121
   20SAPC   H9Y 2660   2.269   3.427   9.366 -0.0105 -0.4081 -2.0011
   20SAPC  C310 2661   2.106   3.521   9.266  0.3114 -0.2669 -0.2892
   20SAPC  H10X 2662   2.145   3.626   9.268  1.8099 -0.8100  1.0301
   20SAPC  H10Y 2663   1.996   3.523   9.276  0.3524 -1.0581  0.4192
   20SAPC  C311 2664   2.151   3.469   9.129 -0.4701  0.9309  0.7855
   20SAPC  H11X 2665   2.114   3.367   9.105  0.4256  0.0421  2.9393
   20SAPC  H11Y 2666   2.262   3.465   9.120 -0.6407 -1.6487 -1.1007
   20SAPC  C312 2667   2.095   3.549   9.016 -0.6104  0.3271  0.3236
   20SAPC  H12X 2668   2.105   3.658   9.033  0.1834  0.2059  0.6789
   20SAPC  H12Y 2669   1.990   3.527   8.987 -0.2605 -1.4099  0.2420
   20SAPC  C313 2670   2.176   3.523   8.878 -0.1799  0.2651  0.6348
   20SAPC  H13X 2671   2.160   3.419   8.843  0.9518  0.6029 -0.9702
   20SAPC  H13Y 2672   2.285   3.540   8.882  0.0628 -0.3295 -1.9769
   20SAPC  C314 2673   2.138   3.626   8.769 -0.1018 -0.1318  0.3254
   20SAPC  H14X 2674   2.146   3.731   8.804  0.3527  0.2510 -0.8528
   20SAPC  H14Y 2675   2.033   3.609   8.736 -0.4049  3.0720 -0.7129
   20SAPC  C315 2676   2.225   3.629   8.645  0.3878  0.0300  0.0174
   20SAPC  H15X 2677   2.329   3.656   8.670  0.7041 -0.6718 -0.4962
   20SAPC  H15Y 2678   2.195   3.709   8.574  0.7962  0.9703  0.8900
   20SAPC  C316 2679   2.220   3.491   8.574  0.4247 -0.6672 -0.1607
   20SAPC  H16X 2680   2.277   3.419   8.636 -2.1467 -1.7712  1.0858
   20SAPC  H16Y 2681   2.282   3.500   8.483  1.8770  0.1333  0.8731
   20SAPC  C317 2682   2.079   3.430   8.542 -0.0536  0.2551  0.9891
   20SAPC  H17X 2683   2.021   3.396   8.630 -2.9783 -2.6798 -1.8132
   20SAPC  H17Y 2684   2.079   3.330   8.495 -1.3626  0.7404 -0.0908
   20SAPC  C318 2685   1.990   3.512   8.450 -0.6206  0.3613  0.0129
   20SAPC  H18X 2686   1.889   3.468   8.434 -0.8065  0.9301 -0.4255
   20SAPC  H18Y 2687   2.039   3.526   8.351  0.1737  0.9535  0.4808
   20SAPC  H18Z 2688   1.969   3.614   8.488  2.0203  1.5491 -1.4162
   21SAPC     N 2689   1.075   3.773  11.154 -0.4253  0.0264 -0.2990
   21SAPC   C12 2690   1.222   3.806  11.163  0.1133  0.3060 -0.4945
   21SAPC  H12A 2691   1.264   3.735  11.233 -0.0054  0.8660  0.1598
   21SAPC  H12B 2692   1.252   3.895  11.217  2.7339 -0.5251 -0.4353
   21SAPC   C13 2693   1.058   3.630  11.098 -0.2609 -0.0053 -0.5133
   21SAPC  H13A 2694   0.953   3.606  11.082 -0.7891  1.1154  1.0465
   21SAPC  H13B 2695   1.106   3.623  11.002 -0.0981 -0.7159 -0.3846
   21SAPC  H13C 2696   1.113   3.566  11.165  3.2291  3.0912 -0.1052
   21SAPC   C14 2697   1.017   3.774  11.299 -0.0434 -0.5001  0.3614
   21SAPC  H14A 2698   0.910   3.766  11.290 -0.1022  1.1959 -1.0776
   21SAPC  H14B 2699   1.066   3.703  11.363 -0.6483 -1.7466 -0.5308
   21SAPC  H14C 2700   1.037   3.872  11.340 -1.0681  0.9531 -2.3032
   21SAPC   C15 2701   1.008   3.876  11.072 -0.4277  0.7952  0.3349
   21SAPC  H15A 2702   1.045   3.874  10.971 -0.4886  0.0505  0.3259
   21SAPC  H15B 2703   0.900   3.872  11.073 -0.6716  4.2108  0.4049
   21SAPC  H15C 2704   1.035   3.971  11.115  0.5536  1.0111 -0.7016
   21SAPC   C11 2705   1.294   3.807  11.022  0.3598  0.2620  0.0854
   21SAPC  H11A 2706   1.401   3.831  11.038  0.5615  0.1629 -1.0003
   21SAPC  H11B 2707   1.237   3.883  10.964 -3.1589 -2.5642 -0.4983
   21SAPC     P 2708   1.399   3.592  10.907 -0.0592  0.0657  0.5592
   21SAPC   O13 2709   1.513   3.616  10.995 -0.6528 -0.1621  0.4672
   21SAPC   O14 2710   1.340   3.456  10.908 -0.1699 -0.3392  0.4523
   21SAPC   O12 2711   1.277   3.683  10.947  0.2084 -0.5370 -0.1751
   21SAPC   O11 2712   1.427   3.635  10.760  0.1489  0.1165 -0.6271
   21SAPC    C1 2713   1.504   3.754  10.738 -0.2976  0.4320  0.0483
   21SAPC    HA 2714   1.445   3.847  10.748 -0.2326  0.3975  0.8751
   21SAPC    HB 2715   1.580   3.767  10.819 -1.5485  0.0939  1.3031
   21SAPC    C2 2716   1.569   3.768  10.593  0.4072  0.1763  0.0026
   21SAPC    HS 2717   1.606   3.872  10.580  1.1779  0.0230  0.8587
   21SAPC   O21 2718   1.465   3.747  10.500  0.1238 -0.2014  0.5623
   21SAPC   C21 2719   1.466   3.817  10.386 -0.2720 -0.5697 -0.4585
   21SAPC   O22 2720   1.561   3.896  10.358  0.1635 -0.0313 -0.2945
   21SAPC   C22 2721   1.348   3.769  10.300 -0.4188  0.3149 -0.2598
   21SAPC   H2R 2722   1.395   3.696  10.232  1.9498  2.6660 -1.3660
   21SAPC   H2S 2723   1.279   3.716  10.368 -1.8167  2.6144  0.2364
   21SAPC    C3 2724   1.682   3.664  10.588 -0.6054 -0.1594  0.4697
   21SAPC    HX 2725   1.642   3.570  10.630  0.1424 -0.4891  0.4575
   21SAPC    HY 2726   1.762   3.702  10.655  1.5110 -0.6699 -1.6488
   21SAPC   O31 2727   1.735   3.656  10.451  1.3661 -0.0944  0.1847
   21SAPC   C31 2728   1.689   3.567  10.369 -0.8355 -0.4063  0.1259
   21SAPC   O32 2729   1.616   3.475  10.398  0.0713 -0.2388  0.2245
   21SAPC   C32 2730   1.736   3.599  10.230 -0.3450 -0.2523  0.2003
   21SAPC   H2X 2731   1.846   3.595  10.220  0.2498  3.3584  3.1199
   21SAPC   H2Y 2732   1.704   3.704  10.213  0.4669  0.0029  0.1920
   21SAPC   C23 2733   1.272   3.888  10.229 -0.0569  0.0350 -0.5252
   21SAPC   H3R 2734   1.349   3.930  10.161  1.4940 -2.9964 -0.8112
   21SAPC   H3S 2735   1.229   3.964  10.298  0.3139  1.6233 -1.9693
   21SAPC   C24 2736   1.156   3.839  10.145  0.4148  0.4192 -0.4189
   21SAPC   H4R 2737   1.087   3.777  10.206 -0.9246  1.3454 -0.9291
   21SAPC   H4S 2738   1.189   3.760  10.075 -1.8186 -0.8577 -0.1229
   21SAPC   C25 2739   1.066   3.952  10.085  0.3866 -0.4145  0.3659
   21SAPC   H5R 2740   0.983   3.976  10.152  1.6892 -0.0119  1.8935
   21SAPC   C26 2741   1.076   4.000   9.958 -0.1080  0.2721  0.5622
   21SAPC   H6R 2742   1.012   4.088   9.941 -0.3617  0.6045  2.8259
   21SAPC   C27 2743   1.167   3.962   9.847 -0.8714  0.2146  0.1061
   21SAPC   H7R 2744   1.184   3.853   9.861 -0.7888  0.4841  2.7465
   21SAPC   H7S 2745   1.255   4.030   9.845 -2.2530  2.1035 -2.0401
   21SAPC   C28 2746   1.097   3.991   9.710 -0.4407 -0.5135 -0.0312
   21SAPC   H8R 2747   1.016   4.065   9.714  1.8335  2.1269  0.1410
   21SAPC   C29 2748   1.129   3.950   9.587 -0.3779 -0.0305  0.3534
   21SAPC   H9R 2749   1.064   3.981   9.504 -1.0393  0.4456  1.0391
   21SAPC  C210 2750   1.231   3.843   9.542  0.1558  0.1374  0.0969
   21SAPC  H10R 2751   1.177   3.788   9.462  0.8005  1.3826 -1.2407
   21SAPC  H10S 2752   1.263   3.781   9.629 -0.1172  1.6203  1.2871
   21SAPC  C211 2753   1.354   3.906   9.488  0.1778  0.0909  0.0905
   21SAPC  H11R 2754   1.430   3.915   9.566 -0.4823 -2.0607  1.0746
   21SAPC  C212 2755   1.390   3.935   9.357 -0.2371  0.6201 -0.1465
   21SAPC  H12R 2756   1.494   3.970   9.341  0.5156 -1.1841  0.5223
   21SAPC  C213 2757   1.300   3.912   9.241  0.2693 -0.1814 -0.5728
   21SAPC  H13R 2758   1.195   3.912   9.279 -0.2716 -0.3813 -2.0027
   21SAPC  H13S 2759   1.304   3.806   9.207  0.1743 -0.5020  0.3758
   21SAPC  C214 2760   1.309   4.008   9.126  0.3248 -0.2104 -0.8433
   21SAPC  H14R 2761   1.348   4.106   9.159 -1.1053 -0.5660  2.2426
   21SAPC  C215 2762   1.252   3.994   9.004  0.0822 -0.8478 -0.0916
   21SAPC  H15R 2763   1.270   4.076   8.933  0.4000 -0.2130  0.7105
   21SAPC  C216 2764   1.181   3.877   8.931  0.7113 -0.2568 -0.0256
   21SAPC  H16R 2765   1.071   3.887   8.947  0.6974 -1.1359  0.5388
   21SAPC  H16S 2766   1.209   3.776   8.969  0.0729 -1.1802 -1.8920
   21SAPC  C217 2767   1.196   3.879   8.780  0.6586  0.6968  0.3757
   21SAPC  H17R 2768   1.303   3.880   8.748  0.8086  1.1640  0.8710
   21SAPC  H17S 2769   1.144   3.960   8.725  0.7495  0.3786 -0.1881
   21SAPC  C218 2770   1.138   3.754   8.717  0.2901  0.2966  0.5376
   21SAPC  H18R 2771   1.039   3.739   8.766  0.0926  0.0878  0.0756
   21SAPC  H18S 2772   1.196   3.662   8.742  0.6965  0.5306  0.4550
   21SAPC  C219 2773   1.122   3.752   8.566  0.1869 -0.0833  0.4657
   21SAPC  H19R 2774   1.220   3.740   8.516  0.5377  1.2463  0.7960
   21SAPC  H19S 2775   1.080   3.849   8.534  1.3701  0.2997 -0.0053
   21SAPC  C220 2776   1.021   3.641   8.519 -0.3453  0.1028 -0.9448
   21SAPC  H20R 2777   1.010   3.648   8.409  1.5624 -2.7378 -1.4319
   21SAPC  H20S 2778   0.924   3.656   8.571  0.7011  1.0544  0.7889
   21SAPC  H20T 2779   1.061   3.539   8.541 -0.8617 -0.3944 -2.2199
   21SAPC   C33 2780   1.654   3.512  10.132 -0.2682 -0.9747 -0.3114
   21SAPC   H3X 2781   1.544   3.518  10.146 -0.0785 -2.6607  2.6611
   21SAPC   H3Y 2782   1.678   3.405  10.151  2.2574  0.0470  3.4216
   21SAPC   C34 2783   1.710   3.542   9.985 -0.2049  0.4854 -0.2769
   21SAPC   H4X 2784   1.633   3.488   9.924 -0.7120 -0.0897  0.8490
   21SAPC   H4Y 2785   1.809   3.499   9.960  0.7525  2.6960 -0.4808
   21SAPC   C35 2786   1.705   3.688   9.934  0.4836 -0.0168  0.8982
   21SAPC   H5X 2787   1.747   3.754  10.012 -0.6927  0.4434  1.1613
   21SAPC   H5Y 2788   1.603   3.722   9.908  0.2903 -2.3892 -1.9743
   21SAPC   C36 2789   1.788   3.707   9.804 -0.1102  0.0620 -0.5477
   21SAPC   H6X 2790   1.869   3.632   9.798  0.7419  0.9552 -0.4793
   21SAPC   H6Y 2791   1.838   3.806   9.806  0.2061 -0.1048 -0.3135
   21SAPC   C37 2792   1.700   3.688   9.676  0.4497 -0.2899  0.2167
   21SAPC   H7X 2793   1.606   3.746   9.689 -0.7813 -2.0639 -0.3412
   21SAPC   H7Y 2794   1.683   3.578   9.672 -2.0191  0.0307  0.1930
   21SAPC   C38 2795   1.765   3.731   9.540 -0.1922 -0.2496  0.0533
   21SAPC   H8X 2796   1.870   3.694   9.537  0.6185  1.9599 -1.1964
   21SAPC   H8Y 2797   1.789   3.839   9.542 -1.6235  0.0894 -0.0047
   21SAPC   C39 2798   1.690   3.705   9.419  0.2867 -0.2286 -0.1095
   21SAPC   H9X 2799   1.591   3.753   9.430 -0.4783 -2.0059  1.2979
   21SAPC   H9Y 2800   1.679   3.594   9.414  0.5104 -0.2192 -1.3010
   21SAPC  C310 2801   1.747   3.771   9.287  0.3620  0.4971 -0.2226
   21SAPC  H10X 2802   1.857   3.750   9.285  0.6238  1.3455  2.1686
   21SAPC  H10Y 2803   1.735   3.881   9.299  0.9689  0.4278  1.4253
   21SAPC  C311 2804   1.672   3.711   9.168  0.4022 -0.3134  0.3345
   21SAPC  H11X 2805   1.562   3.712   9.181  0.1367  0.7409 -1.5861
   21SAPC  H11Y 2806   1.707   3.609   9.145 -0.4543 -0.2029 -1.7081
   21SAPC  C312 2807   1.692   3.789   9.039  0.2438  0.5011 -0.2715
   21SAPC  H12X 2808   1.669   3.895   9.064 -0.4035  0.6085 -1.2563
   21SAPC  H12Y 2809   1.624   3.753   8.959  1.2209  0.2645 -1.0135
   21SAPC  C313 2810   1.838   3.780   8.976  0.2718  0.3580 -0.0088
   21SAPC  H13X 2811   1.861   3.675   8.946  0.5324  0.0398  1.2458
   21SAPC  H13Y 2812   1.909   3.803   9.058 -1.1028 -2.4583  2.1662
   21SAPC  C314 2813   1.843   3.887   8.860 -0.7930  0.3660 -0.0496
   21SAPC  H14X 2814   1.953   3.892   8.842 -0.8266 -0.6129 -0.6218
   21SAPC  H14Y 2815   1.808   3.979   8.912  0.1212 -0.1164  1.4841
   21SAPC  C315 2816   1.768   3.836   8.733 -0.2434 -0.7190 -0.4182
   21SAPC  H15X 2817   1.663   3.814   8.761 -1.3610  2.5568 -1.6014
   21SAPC  H15Y 2818   1.826   3.747   8.699 -0.2996 -2.6040  3.7798
   21SAPC  C316 2819   1.740   3.942   8.619 -0.7614 -0.5029 -0.4525
   21SAPC  H16X 2820   1.679   4.016   8.676 -0.2977 -0.3871 -0.0990
   21SAPC  H16Y 2821   1.672   3.889   8.549 -0.6857 -2.0582  0.5928
   21SAPC  C317 2822   1.873   3.990   8.555 -0.4048 -0.3032  0.3844
   21SAPC  H17X 2823   1.944   3.906   8.564 -0.1425  0.0185  1.6549
   21SAPC  H17Y 2824   1.915   4.079   8.607  0.2714 -0.7468  0.6186
   21SAPC  C318 2825   1.865   4.002   8.399 -0.2115 -0.4169  0.3168
   21SAPC  H18X 2826   1.780   4.070   8.376 -0.2366  0.5417  2.9452
   21SAPC  H18Y 2827   1.852   3.904   8.350 -2.1267 -0.7295  1.3740
   21SAPC  H18Z 2828   1.949   4.056   8.349 -1.8336  1.2356 -0.8052
   22SAPC     N 2829   5.423   6.085  11.062  0.4553  0.2773 -0.1540
   22SAPC   C12 2830   5.494   6.126  10.936 -0.2026 -0.7346 -0.5469
   22SAPC  H12A 2831   5.438   6.069  10.864 -0.6119  1.6230 -2.2264
   22SAPC  H12B 2832   5.601   6.112  10.934 -0.2057 -0.7523 -0.5729
   22SAPC   C13 2833   5.461   6.173  11.170  0.2146  0.1376 -0.1653
   22SAPC  H13A 2834   5.560   6.163  11.211 -0.3342  2.6534  1.9922
   22SAPC  H13B 2835   5.448   6.277  11.143  0.6622  0.4704  0.8617
   22SAPC  H13C 2836   5.386   6.154  11.245 -0.7132 -2.1001 -1.5713
   22SAPC   C14 2837   5.277   6.103  11.051 -0.1060  0.1257 -0.2398
   22SAPC  H14A 2838   5.221   6.028  10.996 -1.2942  1.2674 -0.6466
   22SAPC  H14B 2839   5.231   6.114  11.149  0.8529 -2.0550  0.5269
   22SAPC  H14C 2840   5.258   6.195  10.998  3.6722  1.6968  0.8140
   22SAPC   C15 2841   5.460   5.942  11.099 -0.4606  0.0194 -0.2605
   22SAPC  H15A 2842   5.443   5.881  11.011  1.3112 -0.7245 -0.1310
   22SAPC  H15B 2843   5.566   5.938  11.118 -0.4616  1.6000  0.2541
   22SAPC  H15C 2844   5.407   5.901  11.183  0.8925 -0.6809  0.2850
   22SAPC   C11 2845   5.493   6.284  10.898 -0.3787  0.4046 -0.0739
   22SAPC  H11A 2846   5.384   6.307  10.892 -0.3214  1.7642  2.5204
   22SAPC  H11B 2847   5.531   6.283  10.794 -0.0498  0.5813  0.0432
   22SAPC     P 2848   5.721   6.387  10.955 -0.2184  0.0134 -0.2431
   22SAPC   O13 2849   5.779   6.502  11.033  0.5924  0.5206 -0.1987
   22SAPC   O14 2850   5.795   6.263  10.969  0.1926  0.2433 -0.0638
   22SAPC   O12 2851   5.572   6.367  10.991 -0.7568  0.1280 -0.3765
   22SAPC   O11 2852   5.730   6.420  10.805  0.1281  0.4112  0.2401
   22SAPC    C1 2853   5.690   6.546  10.751  0.4351 -0.4330 -0.0756
   22SAPC    HA 2854   5.602   6.533  10.685 -0.8812  0.6118  1.4087
   22SAPC    HB 2855   5.651   6.620  10.824 -0.2644  0.0755 -0.9442
   22SAPC    C2 2856   5.800   6.621  10.668  0.5468 -0.1061 -0.3456
   22SAPC    HS 2857   5.764   6.726  10.668  1.1828  0.1348 -1.8803
   22SAPC   O21 2858   5.810   6.566  10.533 -0.5965 -0.0901 -0.4977
   22SAPC   C21 2859   5.725   6.590  10.437 -0.9137 -0.0255  0.1102
   22SAPC   O22 2860   5.624   6.651  10.444  0.5392  0.2404 -0.5654
   22SAPC   C22 2861   5.779   6.523  10.308 -0.0458 -0.0586 -0.0346
   22SAPC   H2R 2862   5.888   6.505  10.308 -0.1520 -1.1363 -2.2189
   22SAPC   H2S 2863   5.751   6.416  10.321 -0.2659 -0.0312 -0.2744
   22SAPC    C3 2864   5.941   6.612  10.735  0.1213 -0.1497  0.0441
   22SAPC    HX 2865   5.972   6.506  10.729 -1.5857 -0.7392  0.9455
   22SAPC    HY 2866   5.929   6.630  10.844 -0.7571  0.7643 -0.1824
   22SAPC   O31 2867   6.026   6.710  10.678 -0.4183 -0.3245 -0.4128
   22SAPC   C31 2868   6.149   6.667  10.644 -0.0867  0.2864  0.3447
   22SAPC   O32 2869   6.193   6.559  10.680 -0.0376  0.0965  0.5691
   22SAPC   C32 2870   6.218   6.765  10.544 -0.6770  0.0498 -0.4535
   22SAPC   H2X 2871   6.325   6.743  10.525 -0.9213 -0.2124 -1.6139
   22SAPC   H2Y 2872   6.214   6.863  10.596  1.5847 -0.8739  1.6521
   22SAPC   C23 2873   5.713   6.579  10.179 -0.2643  0.3789 -0.1208
   22SAPC   H3R 2874   5.606   6.608  10.190 -0.5311 -0.3415 -0.7539
   22SAPC   H3S 2875   5.714   6.497  10.104 -0.3049 -0.2317  0.5283
   22SAPC   C24 2876   5.793   6.688  10.124 -0.0919 -0.4908 -0.0529
   22SAPC   H4R 2877   5.890   6.642  10.094 -0.1935 -0.9085  0.2498
   22SAPC   H4S 2878   5.811   6.762  10.205  0.1279  1.1166 -1.5141
   22SAPC   C25 2879   5.744   6.747   9.989 -1.5529 -0.0351  0.2550
   22SAPC   H5R 2880   5.702   6.848   9.998  1.4590  1.2051  1.7729
   22SAPC   C26 2881   5.756   6.697   9.858 -1.1911 -0.7651 -0.8576
   22SAPC   H6R 2882   5.713   6.758   9.777 -3.2471 -0.7256  0.2186
   22SAPC   C27 2883   5.823   6.565   9.816 -0.6198 -0.1217  0.3607
   22SAPC   H7R 2884   5.779   6.524   9.722 -1.7607 -0.6405  1.1019
   22SAPC   H7S 2885   5.794   6.488   9.890  0.4071 -2.2968 -1.3639
   22SAPC   C28 2886   5.970   6.560   9.810  0.0234  1.4449  0.0907
   22SAPC   H8R 2887   6.021   6.576   9.907 -1.7293 -1.1812  1.5860
   22SAPC   C29 2888   6.050   6.540   9.703  0.0722  0.0834  0.6697
   22SAPC   H9R 2889   6.159   6.538   9.712  0.1245 -0.7083 -0.0223
   22SAPC  C210 2890   6.008   6.529   9.558  0.9271 -0.0923  0.4314
   22SAPC  H10R 2891   5.961   6.429   9.553 -0.6046  0.5393  1.3582
   22SAPC  H10S 2892   6.097   6.520   9.492 -0.4143 -1.2541 -1.3007
   22SAPC  C211 2893   5.912   6.642   9.509 -0.0523 -0.1190  0.2372
   22SAPC  H11R 2894   5.922   6.740   9.557 -0.0950 -0.0321  0.0704
   22SAPC  C212 2895   5.814   6.628   9.418 -0.0856  0.0085 -0.0941
   22SAPC  H12R 2896   5.756   6.721   9.407  2.7517  1.9894  0.4855
   22SAPC  C213 2897   5.770   6.508   9.342  0.6324  0.1513  0.0361
   22SAPC  H13R 2898   5.731   6.425   9.405  1.2737 -2.2947 -2.5619
   22SAPC  H13S 2899   5.862   6.470   9.292  1.5545  1.6774  0.5129
   22SAPC  C214 2900   5.648   6.545   9.249 -0.2496  0.4628  0.1849
   22SAPC  H14R 2901   5.560   6.589   9.298 -1.4515 -0.4581 -1.0850
   22SAPC  C215 2902   5.651   6.546   9.115 -0.5702  0.1360 -0.0275
   22SAPC  H15R 2903   5.562   6.566   9.055  1.7668  3.4792 -2.7552
   22SAPC  C216 2904   5.763   6.507   9.029  0.1637  0.3201 -0.2250
   22SAPC  H16R 2905   5.744   6.409   8.980  0.0771  0.2176  0.0170
   22SAPC  H16S 2906   5.856   6.496   9.089 -0.2093  0.0599  0.3139
   22SAPC  C217 2907   5.775   6.617   8.922 -0.4170  0.1462 -0.3141
   22SAPC  H17R 2908   5.860   6.588   8.857 -0.4981  0.3056 -0.4916
   22SAPC  H17S 2909   5.799   6.710   8.979 -0.8888 -0.2527  0.5635
   22SAPC  C218 2910   5.651   6.650   8.840 -0.5182 -0.0014  0.2805
   22SAPC  H18R 2911   5.686   6.725   8.766  0.3452  0.5415  1.2165
   22SAPC  H18S 2912   5.569   6.699   8.897  0.7005  0.8903  1.3260
   22SAPC  C219 2913   5.581   6.530   8.771  0.7146 -0.7386  0.7592
   22SAPC  H19R 2914   5.475   6.563   8.757  1.2445  0.2181 -1.4943
   22SAPC  H19S 2915   5.583   6.439   8.833  0.9419 -0.9060  0.5067
   22SAPC  C220 2916   5.639   6.499   8.629  0.7644 -0.3743 -0.5263
   22SAPC  H20R 2917   5.633   6.598   8.580  1.1790  0.4706  1.0851
   22SAPC  H20S 2918   5.561   6.438   8.577 -0.3240  0.9234 -0.4729
   22SAPC  H20T 2919   5.744   6.463   8.631  0.6970 -0.5437  0.3824
   22SAPC   C33 2920   6.148   6.776  10.409 -0.6380 -1.1360  0.0890
   22SAPC   H3X 2921   6.194   6.859  10.351  3.4199 -2.3446  1.2349
   22SAPC   H3Y 2922   6.041   6.802  10.429 -0.2640  0.1226  0.5446
   22SAPC   C34 2923   6.164   6.650  10.318  0.3460  0.5948  0.1021
   22SAPC   H4X 2924   6.103   6.562  10.345  0.4380  0.7367  0.7885
   22SAPC   H4Y 2925   6.270   6.615  10.318 -0.0987 -0.8667 -1.8425
   22SAPC   C35 2926   6.137   6.682  10.167  0.3411 -0.2754  0.6587
   22SAPC   H5X 2927   6.051   6.751  10.158  0.0189 -0.7815 -0.3109
   22SAPC   H5Y 2928   6.100   6.597  10.106 -0.6719  0.4595  0.2279
   22SAPC   C36 2929   6.259   6.744  10.098 -0.4222 -0.1838  0.4454
   22SAPC   H6X 2930   6.339   6.675  10.133  1.6398  0.2758 -2.9239
   22SAPC   H6Y 2931   6.280   6.844  10.142  1.6828 -1.0023  1.3873
   22SAPC   C37 2932   6.257   6.751   9.946  0.1003  0.4129  0.7235
   22SAPC   H7X 2933   6.176   6.817   9.909 -1.5119 -0.9512  1.7057
   22SAPC   H7Y 2934   6.250   6.649   9.901  0.7244  1.4681 -1.9422
   22SAPC   C38 2935   6.381   6.818   9.880 -0.3148  0.0740 -0.0993
   22SAPC   H8X 2936   6.471   6.767   9.919  0.2761  0.0101 -1.4913
   22SAPC   H8Y 2937   6.392   6.924   9.912 -0.2260 -0.0368  0.2304
   22SAPC   C39 2938   6.369   6.817   9.731 -0.3334  0.2446 -0.7169
   22SAPC   H9X 2939   6.273   6.862   9.699 -0.2974 -0.3463 -1.6695
   22SAPC   H9Y 2940   6.379   6.715   9.688 -1.7061  0.0860 -0.6903
   22SAPC  C310 2941   6.477   6.906   9.660 -0.9468  0.0721  0.4213
   22SAPC  H10X 2942   6.579   6.886   9.700 -0.0470  2.0082 -0.7927
   22SAPC  H10Y 2943   6.446   7.012   9.670 -0.5938  0.7844 -3.9988
   22SAPC  C311 2944   6.475   6.861   9.508 -0.0560 -0.7180  0.5759
   22SAPC  H11X 2945   6.506   6.755   9.494 -1.9760 -1.0604 -1.7331
   22SAPC  H11Y 2946   6.554   6.919   9.457 -0.0371 -1.1383  0.1218
   22SAPC  C312 2947   6.342   6.885   9.438 -0.5105  0.2794 -0.4878
   22SAPC  H12X 2948   6.311   6.991   9.445 -2.1048 -0.1751 -0.3539
   22SAPC  H12Y 2949   6.272   6.804   9.466  0.3733 -0.0772  0.7723
   22SAPC  C313 2950   6.348   6.862   9.287 -0.0080 -0.9839 -0.1096
   22SAPC  H13X 2951   6.375   6.754   9.275  2.4551 -0.8090  2.7146
   22SAPC  H13Y 2952   6.427   6.925   9.241  0.1694  0.6963  2.3302
   22SAPC  C314 2953   6.215   6.888   9.216 -0.5302  0.2829 -0.3857
   22SAPC  H14X 2954   6.185   6.993   9.235 -1.4294  0.3869 -2.1320
   22SAPC  H14Y 2955   6.135   6.826   9.262  0.1145  0.4142  0.9493
   22SAPC  C315 2956   6.225   6.871   9.067 -0.1667 -0.4184 -0.0461
   22SAPC  H15X 2957   6.241   6.763   9.048 -0.5199 -0.3099 -1.0383
   22SAPC  H15Y 2958   6.314   6.925   9.028 -0.0145  1.1001  2.2206
   22SAPC  C316 2959   6.100   6.920   8.995  0.1018 -0.0604  0.0627
   22SAPC  H16X 2960   6.104   7.031   8.999  1.2998 -0.0337 -0.8821
   22SAPC  H16Y 2961   6.012   6.889   9.054 -0.9225  0.1514 -1.3117
   22SAPC  C317 2962   6.099   6.883   8.844 -0.3212 -0.3451  0.6373
   22SAPC  H17X 2963   5.993   6.893   8.810 -0.0767 -0.9180 -0.3299
   22SAPC  H17Y 2964   6.129   6.777   8.832 -0.4751 -0.3109 -0.1405
   22SAPC  C318 2965   6.182   6.980   8.758 -0.0199 -0.1697  0.0927
   22SAPC  H18X 2966   6.192   6.932   8.658  0.0538 -0.3972  0.2106
   22SAPC  H18Y 2967   6.284   6.982   8.802  0.5450 -0.3464 -1.1533
   22SAPC  H18Z 2968   6.146   7.083   8.737 -0.7006  0.1525  2.5504
   23SAPC     N 2969   3.525   2.423  10.994 -0.4523  0.0861  0.1051
   23SAPC   C12 2970   3.402   2.401  10.914 -0.3588  0.3743  0.7675
   23SAPC  H12A 2971   3.319   2.461  10.947  0.5133  1.2207  1.4578
   23SAPC  H12B 2972   3.378   2.295  10.917  2.8310 -0.4212  2.4478
   23SAPC   C13 2973   3.489   2.375  11.131  0.7615 -0.2219 -0.3438
   23SAPC  H13A 2974   3.578   2.393  11.190 -0.5554 -2.4124  2.5511
   23SAPC  H13B 2975   3.402   2.420  11.176  0.0150 -1.8023 -0.1540
   23SAPC  H13C 2976   3.474   2.269  11.120 -0.5800  0.0969 -1.9091
   23SAPC   C14 2977   3.634   2.339  10.936 -0.6445  0.0402 -0.3878
   23SAPC  H14A 2978   3.665   2.368  10.837  0.9019 -0.3655 -0.0408
   23SAPC  H14B 2979   3.726   2.362  10.988 -0.5950  0.3010 -0.5903
   23SAPC  H14C 2980   3.622   2.232  10.945 -0.8682  0.1561  1.0172
   23SAPC   C15 2981   3.559   2.568  11.007 -0.1926 -1.0936  0.3481
   23SAPC  H15A 2982   3.656   2.577  11.053 -0.2059 -3.2050  0.9191
   23SAPC  H15B 2983   3.557   2.616  10.910 -2.4177  1.5057  1.5380
   23SAPC  H15C 2984   3.491   2.628  11.065 -0.0276  0.4340 -0.9876
   23SAPC   C11 2985   3.414   2.433  10.758 -0.1546 -0.0607 -0.9282
   23SAPC  H11A 2986   3.501   2.372  10.726  0.0618 -0.4811  0.3795
   23SAPC  H11B 2987   3.438   2.540  10.743  0.9136 -0.5055 -2.6389
   23SAPC     P 2988   3.241   2.256  10.649  0.0520 -0.1993 -0.0393
   23SAPC   O13 2989   3.235   2.169  10.769 -0.6258 -0.5623 -0.1518
   23SAPC   O14 2990   3.116   2.264  10.570 -0.3042 -0.1842 -0.1076
   23SAPC   O12 2991   3.292   2.402  10.691  0.0420  0.2331  0.7579
   23SAPC   O11 2992   3.359   2.202  10.561  0.0741  0.0572  0.3975
   23SAPC    C1 2993   3.411   2.272  10.445 -0.3242  0.0206 -1.2053
   23SAPC    HA 2994   3.340   2.350  10.410 -0.1351  1.5336  1.4686
   23SAPC    HB 2995   3.506   2.324  10.471  0.1227 -1.2437 -0.1587
   23SAPC    C2 2996   3.448   2.165  10.334  1.3848 -1.1551 -0.0910
   23SAPC    HS 2997   3.469   2.230  10.246  0.0215 -1.6711 -0.8368
   23SAPC   O21 2998   3.339   2.073  10.327  0.1388 -0.3393  0.2770
   23SAPC   C21 2999   3.232   2.116  10.267  0.2249  0.1791  0.2041
   23SAPC   O22 3000   3.208   2.230  10.230 -0.5442  0.0759  0.0871
   23SAPC   C22 3001   3.129   2.002  10.273  0.2715 -0.7980  0.2230
   23SAPC   H2R 3002   3.120   1.980  10.381  0.2981 -0.6600  0.2536
   23SAPC   H2S 3003   3.036   2.040  10.226 -0.2619  0.8396  2.4668
   23SAPC    C3 3004   3.571   2.081  10.372  1.0255 -0.5373  0.0539
   23SAPC    HX 3005   3.546   2.003  10.446 -0.0068 -0.0760  0.2031
   23SAPC    HY 3006   3.652   2.134  10.427  1.3164 -2.5124  1.6205
   23SAPC   O31 3007   3.620   2.018  10.250  0.1497  0.1990  0.2858
   23SAPC   C31 3008   3.614   1.887  10.236  0.1204  0.6292 -0.3687
   23SAPC   O32 3009   3.559   1.806  10.310 -0.2205 -0.2225 -0.1109
   23SAPC   C32 3010   3.672   1.847  10.104 -0.1394  0.8826  0.3725
   23SAPC   H2X 3011   3.647   1.741  10.084  0.5998  1.0186 -1.4646
   23SAPC   H2Y 3012   3.782   1.843  10.115 -0.0880  0.9329 -0.1117
   23SAPC   C23 3013   3.173   1.866  10.211  0.1630  0.4521  0.0392
   23SAPC   H3R 3014   3.091   1.794  10.235 -0.3255  0.6225 -1.0733
   23SAPC   H3S 3015   3.264   1.823  10.259  1.0922  0.2788 -1.8137
   23SAPC   C24 3016   3.202   1.883  10.059  0.2285  0.2458 -0.5121
   23SAPC   H4R 3017   3.239   1.795  10.004 -0.0017 -0.3808  0.3243
   23SAPC   H4S 3018   3.273   1.968  10.048 -0.6735  1.0481 -0.3045
   23SAPC   C25 3019   3.074   1.924   9.985 -0.5593  0.1751 -0.7904
   23SAPC   H5R 3020   2.988   1.861  10.013  1.0235 -1.8201 -0.2398
   23SAPC   C26 3021   3.059   2.021   9.894  0.1485 -0.4609  0.0122
   23SAPC   H6R 3022   2.963   2.048   9.848 -0.4924  0.5636  1.8639
   23SAPC   C27 3023   3.172   2.109   9.829 -0.4053 -0.7638 -0.1430
   23SAPC   H7R 3024   3.170   2.079   9.722 -3.3987 -1.3380 -0.0138
   23SAPC   H7S 3025   3.270   2.093   9.878  1.7594  3.5448 -2.4739
   23SAPC   C28 3026   3.151   2.265   9.851 -0.0590 -0.4032 -0.3581
   23SAPC   H8R 3027   3.184   2.304   9.948 -0.6445  0.6664 -0.5785
   23SAPC   C29 3028   3.105   2.353   9.759  0.0077  0.1452  0.1793
   23SAPC   H9R 3029   3.102   2.461   9.778  1.9569  1.1237 -3.9114
   23SAPC  C210 3030   3.064   2.309   9.622  0.5054 -0.1547  0.6004
   23SAPC  H10R 3031   2.961   2.267   9.628  0.2312  0.6322  1.9636
   23SAPC  H10S 3032   3.124   2.219   9.597  0.0136 -1.2582  3.0455
   23SAPC  C211 3033   3.067   2.419   9.518 -0.4963  0.0356  0.5326
   23SAPC  H11R 3034   3.005   2.504   9.549 -1.5796 -1.0290  1.4130
   23SAPC  C212 3035   3.122   2.420   9.393  0.3061  0.2903  0.7535
   23SAPC  H12R 3036   3.096   2.501   9.323 -1.0924 -1.6729 -1.1536
   23SAPC  C213 3037   3.198   2.309   9.319 -0.4674  0.2373  0.1300
   23SAPC  H13R 3038   3.129   2.257   9.250  1.9846 -1.7321 -0.9885
   23SAPC  H13S 3039   3.251   2.241   9.389 -1.0422 -1.4526 -1.0242
   23SAPC  C214 3040   3.299   2.367   9.223  0.8365 -0.3202 -0.3630
   23SAPC  H14R 3041   3.388   2.407   9.274  0.9945  0.8603 -1.5008
   23SAPC  C215 3042   3.304   2.371   9.086  0.1093 -0.0468 -0.2693
   23SAPC  H15R 3043   3.402   2.402   9.049  0.3863  0.8419  1.1611
   23SAPC  C216 3044   3.201   2.314   8.991 -0.3695  0.1692  0.1877
   23SAPC  H16R 3045   3.164   2.214   9.024 -0.9352  0.5467  0.7094
   23SAPC  H16S 3046   3.240   2.294   8.889 -0.7172  1.1081 -0.1300
   23SAPC  C217 3047   3.078   2.400   8.974  0.0739  0.0604  0.8339
   23SAPC  H17R 3048   3.035   2.430   9.072  2.0886 -1.5084  2.3008
   23SAPC  H17S 3049   3.002   2.331   8.930  1.1672 -0.1409 -0.8165
   23SAPC  C218 3050   3.099   2.524   8.889 -0.4097  0.3789 -0.0212
   23SAPC  H18R 3051   3.155   2.508   8.794  1.7693  0.1610  1.2343
   23SAPC  H18S 3052   3.166   2.582   8.956  0.2260 -1.9877  1.4852
   23SAPC  C219 3053   2.971   2.602   8.849 -0.0163 -0.1980 -0.1635
   23SAPC  H19R 3054   2.893   2.568   8.920  0.4716 -2.8086 -0.7532
   23SAPC  H19S 3055   2.933   2.580   8.747 -0.2790 -0.0814 -0.0921
   23SAPC  C220 3056   3.004   2.749   8.872  0.4843 -0.1457  0.1441
   23SAPC  H20R 3057   2.912   2.811   8.862 -0.5446 -1.1926  2.3791
   23SAPC  H20S 3058   3.081   2.778   8.797 -0.2420 -0.2606 -0.6719
   23SAPC  H20T 3059   3.036   2.767   8.976 -0.1480  1.1185  0.1410
   23SAPC   C33 3060   3.638   1.939   9.980  0.0699 -0.4315  0.1748
   23SAPC   H3X 3061   3.698   2.032   9.989  0.6024 -0.9254  2.4258
   23SAPC   H3Y 3062   3.530   1.963   9.978 -0.2531 -1.8492 -0.7324
   23SAPC   C34 3063   3.671   1.866   9.858 -0.4020  0.0437 -0.4501
   23SAPC   H4X 3064   3.620   1.767   9.860  0.5759 -0.4687  0.6223
   23SAPC   H4Y 3065   3.782   1.857   9.853 -0.5072 -2.6574  0.1583
   23SAPC   C35 3066   3.624   1.950   9.735  0.6681 -0.3808 -0.1753
   23SAPC   H5X 3067   3.645   2.059   9.743 -0.7135 -0.0700 -0.5381
   23SAPC   H5Y 3068   3.514   1.942   9.720  0.7484 -0.4839 -0.7411
   23SAPC   C36 3069   3.701   1.912   9.606  0.4352  0.7620 -0.0739
   23SAPC   H6X 3070   3.692   1.804   9.583  0.3030  0.1512  2.5272
   23SAPC   H6Y 3071   3.806   1.946   9.619  0.9500 -0.7219 -0.2091
   23SAPC   C37 3072   3.647   1.978   9.480 -0.5171  0.3431 -0.7999
   23SAPC   H7X 3073   3.653   2.089   9.490 -1.8512  0.4786 -1.3060
   23SAPC   H7Y 3074   3.537   1.964   9.473 -0.7900  0.7422  1.6995
   23SAPC   C38 3075   3.723   1.932   9.361 -0.2947 -0.2743  0.0908
   23SAPC   H8X 3076   3.707   1.824   9.338  0.2385 -0.4831  0.6811
   23SAPC   H8Y 3077   3.831   1.946   9.383 -0.5186  0.7548  0.5966
   23SAPC   C39 3078   3.696   2.026   9.242 -0.3505 -0.5080  0.1134
   23SAPC   H9X 3079   3.744   2.118   9.282 -1.5389 -0.2264  0.9371
   23SAPC   H9Y 3080   3.587   2.041   9.226 -0.5843 -2.0762  0.1393
   23SAPC  C310 3081   3.755   1.980   9.103 -0.3474 -0.0862 -0.0215
   23SAPC  H10X 3082   3.718   1.877   9.085  0.8007 -0.5951  0.4032
   23SAPC  H10Y 3083   3.866   1.979   9.101 -0.3060  1.9654 -1.9333
   23SAPC  C311 3084   3.712   2.055   8.978 -0.4405 -0.4542 -0.0496
   23SAPC  H11X 3085   3.607   2.049   8.943 -0.1768  1.0232 -1.1990
   23SAPC  H11Y 3086   3.775   2.004   8.902 -0.4872 -0.0811 -0.3366
   23SAPC  C312 3087   3.750   2.205   8.988 -0.0691 -0.0844  0.1561
   23SAPC  H12X 3088   3.847   2.224   9.040  1.0108 -0.4029 -1.6654
   23SAPC  H12Y 3089   3.671   2.251   9.051  1.4007  1.4576  0.9689
   23SAPC  C313 3090   3.738   2.272   8.847  0.0416 -0.6664  0.4609
   23SAPC  H13X 3091   3.822   2.246   8.780 -0.1234  1.8036 -0.8300
   23SAPC  H13Y 3092   3.733   2.382   8.867 -2.9815 -0.6750  0.3013
   23SAPC  C314 3093   3.602   2.242   8.781  0.1312  0.6758 -0.0593
   23SAPC  H14X 3094   3.519   2.240   8.854  0.0725 -1.9966 -0.0668
   23SAPC  H14Y 3095   3.600   2.144   8.728 -2.0020  0.6122  0.0332
   23SAPC  C315 3096   3.556   2.349   8.687 -0.4581  0.6344  0.5488
   23SAPC  H15X 3097   3.641   2.378   8.622 -0.2516 -0.0938  0.4865
   23SAPC  H15Y 3098   3.529   2.437   8.749 -0.7975  0.2714  0.9169
   23SAPC  C316 3099   3.431   2.311   8.604  0.6477  0.1707 -0.1606
   23SAPC  H16X 3100   3.355   2.271   8.675 -0.5204  0.0964 -1.4177
   23SAPC  H16Y 3101   3.461   2.229   8.536 -1.7890  0.2433 -1.4178
   23SAPC  C317 3102   3.381   2.433   8.520 -0.1678  0.3491 -0.4552
   23SAPC  H17X 3103   3.462   2.490   8.470  0.1377  0.0939 -0.2535
   23SAPC  H17Y 3104   3.332   2.510   8.583  0.4023  2.1362 -2.1001
   23SAPC  C318 3105   3.283   2.391   8.409 -0.4290 -0.2179  0.2249
   23SAPC  H18X 3106   3.192   2.352   8.460 -1.3500 -1.0396 -1.9374
   23SAPC  H18Y 3107   3.324   2.317   8.338  0.0353  1.0427 -0.8779
   23SAPC  H18Z 3108   3.256   2.477   8.343  2.7102 -0.3943 -1.4499
   24SAPC     N 3109   0.353   4.474  11.368 -0.0131  0.6176  0.7989
   24SAPC   C12 3110   0.339   4.447  11.224  0.4507 -0.0893  0.6923
   24SAPC  H12A 3111   0.296   4.349  11.206  0.2059  0.1761 -0.2167
   24SAPC  H12B 3112   0.437   4.429  11.184  0.2854 -0.3267  0.3919
   24SAPC   C13 3113   0.441   4.370  11.432  0.3411 -0.0372 -0.2050
   24SAPC  H13A 3114   0.444   4.396  11.537 -1.2172  0.3675 -0.2425
   24SAPC  H13B 3115   0.394   4.274  11.429 -1.2554  0.6449  1.1840
   24SAPC  H13C 3116   0.538   4.369  11.384 -0.3595  0.7852 -1.6762
   24SAPC   C14 3117   0.415   4.611  11.390  0.4677 -0.0595 -0.3082
   24SAPC  H14A 3118   0.507   4.623  11.335  2.3195 -0.6220  2.4251
   24SAPC  H14B 3119   0.347   4.688  11.358  0.1296 -0.6069 -0.9314
   24SAPC  H14C 3120   0.431   4.621  11.497  1.6061 -2.0859 -0.2309
   24SAPC   C15 3121   0.222   4.481  11.446 -0.0492 -0.4503  0.1281
   24SAPC  H15A 3122   0.232   4.530  11.542  0.3206  0.6087 -0.4309
   24SAPC  H15B 3123   0.150   4.546  11.397  0.1158 -1.0045 -0.8843
   24SAPC  H15C 3124   0.178   4.383  11.460  0.9310 -0.9158  0.0324
   24SAPC   C11 3125   0.253   4.543  11.141  0.4364 -0.2608 -0.3678
   24SAPC  H11A 3126   0.292   4.521  11.039 -0.8743  2.2551 -1.4945
   24SAPC  H11B 3127   0.285   4.648  11.156 -1.4266  0.7630 -3.0240
   24SAPC     P 3128   0.027   4.421  11.070  0.1286 -0.2998 -0.3022
   24SAPC   O13 3129   0.063   4.288  11.113  0.2823  0.7844  0.0498
   24SAPC   O14 3130  -0.114   4.457  11.071  0.1699  0.3439 -0.0484
   24SAPC   O12 3131   0.111   4.529  11.154  0.4984  0.1151 -0.0982
   24SAPC   O11 3132   0.081   4.438  10.921 -0.0215  0.2119 -0.2456
   24SAPC    C1 3133   0.055   4.567  10.856 -0.1812  0.1107 -0.1087
   24SAPC    HA 3134   0.056   4.652  10.928 -0.8543 -1.3230  1.6846
   24SAPC    HB 3135   0.140   4.586  10.788  0.7363  2.1165  1.4699
   24SAPC    C2 3136  -0.082   4.565  10.776 -0.2553 -0.1077 -0.6993
   24SAPC    HS 3137  -0.164   4.555  10.851 -0.1613 -1.2455 -0.7402
   24SAPC   O21 3138  -0.090   4.454  10.687 -0.1089  0.7275  0.0725
   24SAPC   C21 3139  -0.208   4.434  10.621 -0.2669  0.7276 -0.3183
   24SAPC   O22 3140  -0.312   4.481  10.653 -0.4566 -0.2173  0.1461
   24SAPC   C22 3141  -0.176   4.359  10.493 -0.4051 -0.5341  0.1446
   24SAPC   H2R 3142  -0.108   4.414  10.425 -0.8869 -1.1933 -0.8964
   24SAPC   H2S 3143  -0.136   4.262  10.527  2.3297  0.1371 -0.8698
   24SAPC    C3 3144  -0.097   4.704  10.703 -0.2982 -0.5639  0.0184
   24SAPC    HX 3145  -0.080   4.781  10.781  2.3223 -0.9063 -0.1224
   24SAPC    HY 3146  -0.195   4.720  10.654 -0.2271 -2.4553 -0.8022
   24SAPC   O31 3147   0.006   4.718  10.602 -0.2036 -0.1252 -0.6224
   24SAPC   C31 3148   0.015   4.820  10.516  0.4856 -0.3618  0.0451
   24SAPC   O32 3149  -0.065   4.914  10.509  0.5019 -0.1758  0.3298
   24SAPC   C32 3150   0.128   4.799  10.419 -0.0646  0.0474  0.0955
   24SAPC   H2X 3151   0.207   4.735  10.463  1.0076  0.7530 -0.7379
   24SAPC   H2Y 3152   0.182   4.893  10.398  1.6526 -1.3086 -2.0115
   24SAPC   C23 3153  -0.303   4.329  10.413 -0.3547  0.4792 -0.2317
   24SAPC   H3R 3154  -0.384   4.296  10.480  0.7901 -0.2706  0.8279
   24SAPC   H3S 3155  -0.281   4.245  10.344  1.0457  1.0283 -0.5098
   24SAPC   C24 3156  -0.348   4.454  10.328 -0.0485  0.3733 -0.9259
   24SAPC   H4R 3157  -0.272   4.463  10.248  0.4489 -0.8704 -0.6241
   24SAPC   H4S 3158  -0.342   4.550  10.383  2.5910 -0.7882  0.9830
   24SAPC   C25 3159  -0.486   4.422  10.270 -0.3510 -0.1562  0.1504
   24SAPC   H5R 3160  -0.567   4.441  10.341  1.8988  0.1610  2.8205
   24SAPC   C26 3161  -0.503   4.353  10.153  0.2704 -0.7830  0.5760
   24SAPC   H6R 3162  -0.607   4.331  10.124  0.0459  3.0292 -2.2972
   24SAPC   C27 3163  -0.399   4.305  10.056  0.1412 -0.8422  0.2324
   24SAPC   H7R 3164  -0.306   4.299  10.115 -1.1018  0.0210  2.3785
   24SAPC   H7S 3165  -0.371   4.389   9.989  0.1664  0.2121  1.5239
   24SAPC   C28 3166  -0.443   4.173   9.989  0.3189 -0.1202 -0.2123
   24SAPC   H8R 3167  -0.461   4.092  10.061  1.6441  0.2850  0.6119
   24SAPC   C29 3168  -0.450   4.151   9.860 -0.3165 -0.0505 -0.6078
   24SAPC   H9R 3169  -0.499   4.057   9.831 -1.4987 -0.8721  3.3549
   24SAPC  C210 3170  -0.423   4.250   9.754 -0.5121 -0.0606 -0.0049
   24SAPC  H10R 3171  -0.359   4.214   9.670  0.3968 -1.6514  1.3071
   24SAPC  H10S 3172  -0.365   4.338   9.789 -1.7255  1.0839 -0.8018
   24SAPC  C211 3173  -0.556   4.319   9.719  0.1677  0.0634  0.5244
   24SAPC  H11R 3174  -0.596   4.370   9.808 -1.5643  0.0813 -0.2279
   24SAPC  C212 3175  -0.619   4.317   9.596 -0.2331  0.0804 -0.0057
   24SAPC  H12R 3176  -0.713   4.374   9.586 -0.7157 -0.8205 -0.7902
   24SAPC  C213 3177  -0.567   4.237   9.474 -0.3823  0.4164 -0.3420
   24SAPC  H13R 3178  -0.550   4.132   9.506  0.4636  0.6804  0.1246
   24SAPC  H13S 3179  -0.465   4.271   9.447  0.6250 -1.9194  0.2980
   24SAPC  C214 3180  -0.671   4.244   9.359 -0.5721 -0.1085 -0.0675
   24SAPC  H14R 3181  -0.740   4.159   9.346 -1.3014  0.6362 -1.2337
   24SAPC  C215 3182  -0.683   4.348   9.273 -0.0660  0.2731  0.2903
   24SAPC  H15R 3183  -0.750   4.342   9.187  0.8607  1.0301 -0.5008
   24SAPC  C216 3184  -0.595   4.474   9.270  0.5228 -0.2645 -0.1142
   24SAPC  H16R 3185  -0.486   4.451   9.268  0.5075 -0.3624 -2.3146
   24SAPC  H16S 3186  -0.633   4.542   9.349  1.7221 -1.2865  1.4046
   24SAPC  C217 3187  -0.616   4.566   9.145  0.5212  0.4908  0.1970
   24SAPC  H17R 3188  -0.613   4.511   9.048  0.6116  0.5881  0.1440
   24SAPC  H17S 3189  -0.538   4.644   9.130  1.2687  0.0394  1.5641
   24SAPC  C218 3190  -0.753   4.633   9.157 -0.4149 -0.4175  0.0244
   24SAPC  H18R 3191  -0.740   4.717   9.229 -1.8492  1.5580 -1.8904
   24SAPC  H18S 3192  -0.836   4.567   9.193 -0.5243 -0.5651 -0.4836
   24SAPC  C219 3193  -0.791   4.714   9.036 -0.5001 -0.5345  0.8015
   24SAPC  H19R 3194  -0.891   4.763   9.039 -1.2850 -2.1244  2.9713
   24SAPC  H19S 3195  -0.802   4.660   8.940  0.2210  1.8935 -0.7334
   24SAPC  C220 3196  -0.696   4.830   8.992 -1.1380  0.0049 -0.0056
   24SAPC  H20R 3197  -0.730   4.909   8.922  3.7439  0.5649 -2.0932
   24SAPC  H20S 3198  -0.610   4.793   8.933 -1.0764  3.6105 -2.4727
   24SAPC  H20T 3199  -0.660   4.888   9.079  1.6179 -2.5773  0.7429
   24SAPC   C33 3200   0.076   4.752  10.279  0.6991  0.7858 -0.1008
   24SAPC   H3X 3201   0.154   4.763  10.200 -0.3799  0.8410 -1.1817
   24SAPC   H3Y 3202  -0.010   4.818  10.254 -0.2575 -0.7625 -1.0616
   24SAPC   C34 3203   0.029   4.607  10.277 -0.3198 -0.2130 -0.1320
   24SAPC   H4X 3204  -0.071   4.600  10.326  0.0083 -3.5202  0.2861
   24SAPC   H4Y 3205   0.095   4.539  10.335  1.2786  1.2023 -0.2226
   24SAPC   C35 3206   0.021   4.555  10.129 -0.4336  0.8400 -0.5550
   24SAPC   H5X 3207  -0.024   4.453  10.128 -1.0440  1.0354  1.8508
   24SAPC   H5Y 3208   0.115   4.555  10.070 -1.3811  1.3290 -2.1349
   24SAPC   C36 3209  -0.074   4.636  10.031  0.3939 -0.4522  0.0530
   24SAPC   H6X 3210  -0.050   4.744  10.031  1.4352 -0.6589 -1.5562
   24SAPC   H6Y 3211  -0.178   4.632  10.072  0.8311  0.8657  1.3699
   24SAPC   C37 3212  -0.076   4.581   9.889  0.6537  0.2927 -0.1400
   24SAPC   H7X 3213  -0.120   4.479   9.897 -1.1810  1.0336 -0.3445
   24SAPC   H7Y 3214   0.029   4.573   9.852  0.2794  3.2481 -2.2455
   24SAPC   C38 3215  -0.153   4.654   9.786  1.2760  0.4747  0.5275
   24SAPC   H8X 3216  -0.114   4.757   9.768 -0.1495  1.0121  0.3633
   24SAPC   H8Y 3217  -0.261   4.661   9.810  0.6296 -2.4518 -1.0949
   24SAPC   C39 3218  -0.144   4.592   9.650  0.2087  0.1324 -0.0498
   24SAPC   H9X 3219  -0.201   4.498   9.669 -1.0773  0.9957  0.5606
   24SAPC   H9Y 3220  -0.037   4.570   9.629  0.2192  1.1542 -1.1853
   24SAPC  C310 3221  -0.207   4.677   9.535  0.2303  0.2132 -0.0254
   24SAPC  H10X 3222  -0.156   4.776   9.528  0.4263  0.2458  1.5192
   24SAPC  H10Y 3223  -0.309   4.699   9.574  0.4477  0.8575  0.1858
   24SAPC  C311 3224  -0.213   4.606   9.403 -0.0895  0.4616  0.3332
   24SAPC  H11X 3225  -0.278   4.516   9.404  0.2856  0.1879  1.1850
   24SAPC  H11Y 3226  -0.112   4.569   9.375  0.4218 -0.1880  2.7397
   24SAPC  C312 3227  -0.266   4.701   9.299  0.3113  0.6010  0.7272
   24SAPC  H12X 3228  -0.209   4.796   9.303  0.3976  0.5237  3.3575
   24SAPC  H12Y 3229  -0.371   4.712   9.335 -0.6072 -1.3770 -1.1265
   24SAPC  C313 3230  -0.267   4.658   9.151 -0.5184 -0.0525  1.0880
   24SAPC  H13X 3231  -0.319   4.722   9.077  1.4297 -2.6356 -2.8640
   24SAPC  H13Y 3232  -0.336   4.571   9.152 -1.5338  0.7187  2.2745
   24SAPC  C314 3233  -0.130   4.625   9.093  0.4629 -0.3247  0.6573
   24SAPC  H14X 3234  -0.074   4.549   9.152  1.5754  0.7061  0.9593
   24SAPC  H14Y 3235  -0.076   4.721   9.102 -0.6898  0.1957  3.0787
   24SAPC  C315 3236  -0.126   4.577   8.948 -0.3297 -0.0504  1.0229
   24SAPC  H15X 3237  -0.171   4.477   8.938 -1.3538  0.0913  3.5759
   24SAPC  H15Y 3238  -0.017   4.568   8.926 -0.7436 -0.8822 -0.9086
   24SAPC  C316 3239  -0.191   4.669   8.842 -0.1076  0.1306 -0.4375
   24SAPC  H16X 3240  -0.300   4.672   8.861  0.0119  2.8751  0.2757
   24SAPC  H16Y 3241  -0.192   4.622   8.742 -1.6522  1.5290 -1.1329
   24SAPC  C317 3242  -0.141   4.812   8.838 -0.7375 -0.2747 -0.1102
   24SAPC  H17X 3243  -0.046   4.820   8.782 -1.4022 -0.6265 -1.3068
   24SAPC  H17Y 3244  -0.125   4.846   8.943  0.7049  2.8399 -1.1993
   24SAPC  C318 3245  -0.240   4.910   8.775 -0.3500 -0.2960  0.0282
   24SAPC  H18X 3246  -0.205   5.014   8.766  0.7453 -0.7169 -0.7399
   24SAPC  H18Y 3247  -0.333   4.913   8.837 -0.9060  3.5033 -0.7434
   24SAPC  H18Z 3248  -0.259   4.888   8.668 -0.3753  0.7005 -0.1741
   25SAPC     N 3249   4.089   6.358   5.798 -0.0400  0.3363 -0.3036
   25SAPC   C12 3250   4.045   6.426   5.930 -0.2525  0.0686 -0.1672
   25SAPC  H12A 3251   3.941   6.448   5.913  0.2450  2.4118 -0.6321
   25SAPC  H12B 3252   4.092   6.523   5.938 -1.8555  0.7171  2.5706
   25SAPC   C13 3253   3.989   6.244   5.778 -0.6813  0.0091 -0.1540
   25SAPC  H13A 3254   4.039   6.156   5.739  0.8322  0.2289  1.1883
   25SAPC  H13B 3255   3.964   6.213   5.878 -1.1269  0.4157 -0.1397
   25SAPC  H13C 3256   3.894   6.272   5.737  0.6354  1.7662 -2.2410
   25SAPC   C14 3257   4.067   6.458   5.694 -0.2908  0.2061 -0.0663
   25SAPC  H14A 3258   3.965   6.481   5.667 -0.0017  2.1569  0.3942
   25SAPC  H14B 3259   4.116   6.551   5.716 -0.6183  0.2979  0.2701
   25SAPC  H14C 3260   4.121   6.425   5.606  0.6691  2.5070 -0.4068
   25SAPC   C15 3261   4.231   6.319   5.811  0.2774  0.1113  0.0457
   25SAPC  H15A 3262   4.254   6.269   5.904 -0.8425 -0.0524  0.2437
   25SAPC  H15B 3263   4.267   6.250   5.736  2.4888  2.5641 -1.3120
   25SAPC  H15C 3264   4.295   6.406   5.808 -1.2912  1.2907 -1.2151
   25SAPC   C11 3265   4.076   6.354   6.067  0.2617 -0.2432  0.4655
   25SAPC  H11A 3266   4.043   6.430   6.140 -2.7349 -0.9454 -0.0011
   25SAPC  H11B 3267   4.186   6.339   6.071  0.1645 -1.7021 -1.1044
   25SAPC     P 3268   3.855   6.221   6.127 -0.1079 -0.0946  0.4579
   25SAPC   O13 3269   3.764   6.267   6.023  0.4921 -0.0544 -0.0937
   25SAPC   O14 3270   3.842   6.085   6.184  0.7233 -0.4592  0.3233
   25SAPC   O12 3271   4.007   6.229   6.082 -0.2212 -0.2167  0.0753
   25SAPC   O11 3272   3.860   6.326   6.243 -0.3109  0.5537 -0.9077
   25SAPC    C1 3273   3.739   6.379   6.296  0.8596  0.0704  0.4776
   25SAPC    HA 3274   3.745   6.490   6.294 -0.2944  0.2330  3.0885
   25SAPC    HB 3275   3.653   6.350   6.232  0.5886 -0.1070  0.9178
   25SAPC    C2 3276   3.707   6.353   6.441 -0.4665 -0.1566  0.1968
   25SAPC    HS 3277   3.791   6.395   6.499 -1.2857  0.0354  1.2829
   25SAPC   O21 3278   3.676   6.207   6.459  0.1075  0.4612  0.3177
   25SAPC   C21 3279   3.707   6.167   6.574 -0.2655 -0.2899 -0.3020
   25SAPC   O22 3280   3.770   6.224   6.661 -0.2763 -0.5757 -0.5070
   25SAPC   C22 3281   3.663   6.024   6.586 -0.5129  0.3612 -1.0161
   25SAPC   H2R 3282   3.554   6.003   6.597 -0.2857 -0.1271  0.8258
   25SAPC   H2S 3283   3.686   5.972   6.491 -1.0754 -0.1887 -0.8631
   25SAPC    C3 3284   3.576   6.432   6.486  0.2873  1.0953 -0.5098
   25SAPC    HX 3285   3.496   6.410   6.412  1.1381  0.5592 -1.2780
   25SAPC    HY 3286   3.608   6.538   6.476  0.1311  1.4050  1.6964
   25SAPC   O31 3287   3.552   6.399   6.624  0.7852  0.0550 -0.7315
   25SAPC   C31 3288   3.442   6.465   6.671  0.1806  0.2133 -0.2288
   25SAPC   O32 3289   3.383   6.553   6.614 -0.1150  0.9909 -0.1628
   25SAPC   C32 3290   3.394   6.402   6.804 -0.1589 -0.1211  0.2478
   25SAPC   H2X 3291   3.382   6.298   6.769 -3.0799  0.2354 -0.0571
   25SAPC   H2Y 3292   3.296   6.449   6.829  0.3555  1.2366 -0.1682
   25SAPC   C23 3293   3.741   5.956   6.697  0.3531  0.5534 -0.3333
   25SAPC   H3R 3294   3.732   6.023   6.785  0.0095 -0.0092  0.0593
   25SAPC   H3S 3295   3.848   5.949   6.666  0.4920  0.5189  0.1496
   25SAPC   C24 3296   3.687   5.809   6.716 -0.3322 -0.1163 -0.5840
   25SAPC   H4R 3297   3.688   5.742   6.628  0.4814 -0.4931 -0.2985
   25SAPC   H4S 3298   3.583   5.820   6.753 -0.0948 -0.6214  0.2685
   25SAPC   C25 3299   3.763   5.737   6.826 -0.2314  0.3641  0.6857
   25SAPC   H5R 3300   3.842   5.682   6.772  2.3542  2.5562  1.9438
   25SAPC   C26 3301   3.741   5.734   6.961 -0.6257 -0.0701 -0.2869
   25SAPC   H6R 3302   3.815   5.672   7.013 -0.8298  0.2257  0.3709
   25SAPC   C27 3303   3.638   5.805   7.050 -0.0250  0.7031  0.0877
   25SAPC   H7R 3304   3.569   5.729   7.093 -1.7868  1.2942 -1.5574
   25SAPC   H7S 3305   3.572   5.868   6.987  1.6796  1.8472 -0.6154
   25SAPC   C28 3306   3.691   5.892   7.165  1.1839  0.2348 -0.6120
   25SAPC   H8R 3307   3.700   5.997   7.132  2.4782  0.1999 -0.4029
   25SAPC   C29 3308   3.686   5.871   7.296 -0.3570 -0.3459  0.0829
   25SAPC   H9R 3309   3.726   5.953   7.359 -0.7008  1.1467 -1.5485
   25SAPC  C210 3310   3.641   5.744   7.368  0.0698 -0.6412  0.1180
   25SAPC  H10R 3311   3.689   5.732   7.467 -1.3721 -0.8406  0.8164
   25SAPC  H10S 3312   3.653   5.652   7.306 -0.8211 -2.1230  2.0491
   25SAPC  C211 3313   3.488   5.762   7.394 -0.9745 -0.0430  0.7672
   25SAPC  H11R 3314   3.417   5.782   7.313  0.4712  2.4605  0.0219
   25SAPC  C212 3315   3.437   5.761   7.517  0.2223 -0.4236  0.0781
   25SAPC  H12R 3316   3.329   5.783   7.520  0.1869 -0.4614 -0.7789
   25SAPC  C213 3317   3.512   5.736   7.650  0.2607 -0.3769  0.3494
   25SAPC  H13R 3318   3.599   5.671   7.629  2.0158  2.0011 -0.2207
   25SAPC  H13S 3319   3.451   5.680   7.724 -0.7151 -0.5139 -0.5427
   25SAPC  C214 3320   3.559   5.867   7.727  0.0195  0.4979 -0.4380
   25SAPC  H14R 3321   3.552   5.961   7.670  2.2707  0.9558 -0.0504
   25SAPC  C215 3322   3.626   5.872   7.843  0.7311 -0.4155 -1.2118
   25SAPC  H15R 3323   3.663   5.971   7.876 -0.2659 -0.5527  0.4245
   25SAPC  C216 3324   3.679   5.764   7.940  0.2836  0.3853  0.6165
   25SAPC  H16R 3325   3.642   5.666   7.904 -0.8791  0.7353  0.8165
   25SAPC  H16S 3326   3.627   5.772   8.038 -1.5051 -2.4573  0.0047
   25SAPC  C217 3327   3.832   5.758   7.936  0.9125 -0.0269  0.1967
   25SAPC  H17R 3328   3.857   5.863   7.966 -0.4963  0.4889 -0.3711
   25SAPC  H17S 3329   3.868   5.737   7.833  0.7026  0.3541  0.0438
   25SAPC  C218 3330   3.893   5.663   8.034  0.2922 -0.5338 -0.3779
   25SAPC  H18R 3331   4.002   5.662   8.014  0.4048  1.3647 -0.0751
   25SAPC  H18S 3332   3.845   5.563   8.037  0.8728 -0.8414 -1.2279
   25SAPC  C219 3333   3.872   5.718   8.178 -0.0217  0.4789  0.8845
   25SAPC  H19R 3334   3.764   5.724   8.200 -0.1548  1.6706  0.0053
   25SAPC  H19S 3335   3.909   5.823   8.179  0.4748  0.4025 -1.5168
   25SAPC  C220 3336   3.933   5.636   8.298  0.4043  0.2143  0.5444
   25SAPC  H20R 3337   4.043   5.627   8.287  0.4606  1.9155 -0.7089
   25SAPC  H20S 3338   3.884   5.536   8.303  0.7263  0.1211  2.3157
   25SAPC  H20T 3339   3.910   5.695   8.389  1.5878  0.8874  0.4180
   25SAPC   C33 3340   3.496   6.408   6.922 -0.7136  0.5745  0.6283
   25SAPC   H3X 3341   3.597   6.373   6.891 -0.4030  1.4361  0.6446
   25SAPC   H3Y 3342   3.460   6.344   7.004  1.3173 -1.6919 -0.1279
   25SAPC   C34 3343   3.513   6.548   6.999  0.2889 -0.8176  0.2235
   25SAPC   H4X 3344   3.569   6.627   6.944  2.5118  0.6007  4.1156
   25SAPC   H4Y 3345   3.579   6.515   7.082  0.4987 -1.1064 -0.0573
   25SAPC   C35 3346   3.388   6.596   7.069  0.4834  0.0031 -0.7145
   25SAPC   H5X 3347   3.335   6.511   7.116  1.9198 -2.0411 -2.5688
   25SAPC   H5Y 3348   3.328   6.629   6.981  2.2834 -0.6942 -2.2562
   25SAPC   C36 3349   3.408   6.716   7.170  0.2112  0.6502  0.7318
   25SAPC   H6X 3350   3.312   6.771   7.170 -0.0350  0.2341 -0.3894
   25SAPC   H6Y 3351   3.491   6.785   7.145  0.6717  0.3551  1.4115
   25SAPC   C37 3352   3.437   6.666   7.313 -0.3975  0.4536  0.1473
   25SAPC   H7X 3353   3.536   6.615   7.312 -1.0752 -0.8849 -0.1728
   25SAPC   H7Y 3354   3.361   6.595   7.350 -0.5652  0.6130  0.1105
   25SAPC   C38 3355   3.436   6.783   7.420  0.2614  0.0348 -0.5306
   25SAPC   H8X 3356   3.331   6.818   7.429  0.2451 -0.0570 -0.3477
   25SAPC   H8Y 3357   3.504   6.864   7.386  0.0736 -0.4188 -2.0251
   25SAPC   C39 3358   3.479   6.744   7.562  0.4560  0.3764 -0.5454
   25SAPC   H9X 3359   3.408   6.679   7.616  1.0235  0.0994 -0.1235
   25SAPC   H9Y 3360   3.468   6.834   7.627  1.6334  0.6808 -0.7479
   25SAPC  C310 3361   3.621   6.699   7.577  0.1673 -0.1336  0.8150
   25SAPC  H10X 3362   3.685   6.773   7.523  1.1992  0.1622  2.3768
   25SAPC  H10Y 3363   3.651   6.607   7.522  0.3085  0.8353 -0.7717
   25SAPC  C311 3364   3.670   6.674   7.724 -0.2395 -0.5759  0.4197
   25SAPC  H11X 3365   3.763   6.614   7.715 -0.6139 -1.0241 -0.5119
   25SAPC  H11Y 3366   3.590   6.620   7.780 -1.5711 -1.1112 -1.8855
   25SAPC  C312 3367   3.700   6.807   7.802  0.5954 -0.2309 -0.3835
   25SAPC  H12X 3368   3.612   6.871   7.821  1.4222  0.9916 -0.5323
   25SAPC  H12Y 3369   3.782   6.860   7.748  0.4937 -1.5034 -1.8608
   25SAPC  C313 3370   3.756   6.773   7.944 -0.6873  0.1330  0.5120
   25SAPC  H13X 3371   3.846   6.710   7.922 -2.6561 -2.4183 -0.8778
   25SAPC  H13Y 3372   3.674   6.710   7.985 -2.2621 -0.3759 -3.0646
   25SAPC  C314 3373   3.786   6.889   8.026 -0.3854 -0.7902 -0.7530
   25SAPC  H14X 3374   3.694   6.949   8.044  0.3858  0.4905 -0.9657
   25SAPC  H14Y 3375   3.862   6.960   7.988 -1.6909  0.6574 -0.7959
   25SAPC  C315 3376   3.825   6.846   8.172  0.5447 -0.1017 -0.1875
   25SAPC  H15X 3377   3.899   6.766   8.149  0.1861 -0.0811 -1.4604
   25SAPC  H15Y 3378   3.744   6.788   8.221  0.3825 -2.2015 -2.7114
   25SAPC  C316 3379   3.875   6.958   8.259  0.2476  0.4286  0.6589
   25SAPC  H16X 3380   3.798   7.037   8.265  0.3634  0.7903 -1.6842
   25SAPC  H16Y 3381   3.972   7.000   8.226 -0.7999  1.7215 -0.9171
   25SAPC  C317 3382   3.906   6.908   8.399  0.0816  0.1177  0.3173
   25SAPC  H17X 3383   3.814   6.876   8.453  0.4099  0.8182  1.3342
   25SAPC  H17Y 3384   3.948   6.996   8.452 -0.3182  1.2672 -1.2092
   25SAPC  C318 3385   3.990   6.789   8.408  0.5644  0.7870 -0.2127
   25SAPC  H18X 3386   3.944   6.702   8.358  0.1074  1.6800 -1.3873
   25SAPC  H18Y 3387   4.018   6.765   8.513 -1.6652  0.3319  0.3240
   25SAPC  H18Z 3388   4.093   6.804   8.368  0.3079  0.6115 -0.9456
   26SAPC     N 3389   0.417   4.493   6.134  0.3952  0.4562 -0.3654
   26SAPC   C12 3390   0.518   4.521   6.238 -0.6985  0.3934  0.0452
   26SAPC  H12A 3391   0.473   4.597   6.300 -0.8267  0.5695 -0.2610
   26SAPC  H12B 3392   0.601   4.577   6.197 -0.4722  0.0504  0.0299
   26SAPC   C13 3393   0.472   4.408   6.026  0.5307 -0.2058 -0.0477
   26SAPC  H13A 3394   0.546   4.461   5.968 -0.2422  1.0266  0.0431
   26SAPC  H13B 3395   0.509   4.312   6.059  0.0474  0.3959  2.4451
   26SAPC  H13C 3396   0.399   4.390   5.949  0.9918  1.7249 -1.0110
   26SAPC   C14 3397   0.293   4.432   6.189  0.1649 -0.1298 -0.4993
   26SAPC  H14A 3398   0.325   4.348   6.249 -1.1048 -0.5670 -0.3984
   26SAPC  H14B 3399   0.241   4.501   6.255 -0.1883 -2.1076  1.4274
   26SAPC  H14C 3400   0.227   4.406   6.108  0.2444  1.1862 -1.0038
   26SAPC   C15 3401   0.387   4.617   6.069  0.0933  0.5980  0.0256
   26SAPC  H15A 3402   0.474   4.657   6.019  0.7965 -1.5130 -0.5485
   26SAPC  H15B 3403   0.314   4.603   5.991 -1.2125  1.8417  0.9582
   26SAPC  H15C 3404   0.352   4.696   6.134  0.2133  0.9074 -0.2813
   26SAPC   C11 3405   0.575   4.400   6.316 -0.2238 -0.4780 -0.7731
   26SAPC  H11A 3406   0.477   4.374   6.363 -0.5088  1.1671 -0.3984
   26SAPC  H11B 3407   0.647   4.450   6.385 -0.3787 -1.2216 -0.0524
   26SAPC     P 3408   0.777   4.262   6.234  0.1226  0.1553 -0.4475
   26SAPC   O13 3409   0.804   4.143   6.155 -0.0541  0.4860  0.8108
   26SAPC   O14 3410   0.843   4.386   6.196 -0.3056 -0.2228 -0.1438
   26SAPC   O12 3411   0.622   4.295   6.230  0.9678 -0.1168 -0.8907
   26SAPC   O11 3412   0.789   4.236   6.392 -0.5974  0.1430  0.4439
   26SAPC    C1 3413   0.918   4.252   6.453 -0.1262 -0.1336 -0.1260
   26SAPC    HA 3414   1.002   4.187   6.420  2.3823  2.3890  0.9416
   26SAPC    HB 3415   0.965   4.351   6.437 -1.4925  0.3989 -0.9941
   26SAPC    C2 3416   0.907   4.238   6.608 -0.0651  0.1822  0.3720
   26SAPC    HS 3417   1.007   4.257   6.653 -0.2003  1.6919  0.0635
   26SAPC   O21 3418   0.850   4.110   6.640  0.2953 -0.2897 -0.1462
   26SAPC   C21 3419   0.931   4.013   6.683  0.6156 -0.9090  0.1968
   26SAPC   O22 3420   1.048   4.028   6.710  0.2075  0.2063 -0.7697
   26SAPC   C22 3421   0.845   3.890   6.709  0.3394 -0.6554 -0.1288
   26SAPC   H2R 3422   0.742   3.927   6.694  1.2569  2.2771  0.1018
   26SAPC   H2S 3423   0.864   3.802   6.643 -0.7940 -0.9354 -0.1006
   26SAPC    C3 3424   0.822   4.350   6.670  0.6130  0.0979  0.0023
   26SAPC    HX 3425   0.715   4.326   6.651  0.9567 -2.6907  1.1064
   26SAPC    HY 3426   0.840   4.446   6.618 -0.8745  0.5243  0.2180
   26SAPC   O31 3427   0.862   4.362   6.812 -0.4034 -0.0436 -0.2762
   26SAPC   C31 3428   0.789   4.293   6.900  0.5940 -0.7130 -0.6054
   26SAPC   O32 3429   0.690   4.231   6.877 -0.1078 -0.3046  0.0775
   26SAPC   C32 3430   0.861   4.311   7.035  0.6451  0.2468 -0.2817
   26SAPC   H2X 3431   0.930   4.398   7.041 -0.9018  1.6415 -1.4894
   26SAPC   H2Y 3432   0.923   4.219   7.043  1.3243  0.7895  1.0016
   26SAPC   C23 3433   0.874   3.863   6.862 -0.4415  0.0199  0.3752
   26SAPC   H3R 3434   0.872   3.953   6.926 -1.5712  2.4130 -2.7943
   26SAPC   H3S 3435   0.965   3.800   6.855 -1.7367 -1.7893 -1.6764
   26SAPC   C24 3436   0.772   3.760   6.923 -0.3116 -0.3284 -0.0853
   26SAPC   H4R 3437   0.805   3.733   7.026  0.8551 -3.1295 -1.1015
   26SAPC   H4S 3438   0.778   3.661   6.872  0.0256  0.0429 -0.7813
   26SAPC   C25 3439   0.632   3.816   6.943  0.3534 -0.5135 -0.0180
   26SAPC   H5R 3440   0.568   3.840   6.857  1.3967 -1.0460 -0.9710
   26SAPC   C26 3441   0.582   3.855   7.061 -0.5073 -0.3523  0.0134
   26SAPC   H6R 3442   0.479   3.893   7.066 -0.9196 -1.5493  1.3968
   26SAPC   C27 3443   0.662   3.855   7.188 -0.5870  0.1895 -0.7734
   26SAPC   H7R 3444   0.614   3.925   7.261  0.1644  0.6505 -0.7111
   26SAPC   H7S 3445   0.769   3.885   7.183 -0.4194  0.1826  1.5484
   26SAPC   C28 3446   0.655   3.719   7.252 -0.2369  0.1903 -0.4133
   26SAPC   H8R 3447   0.612   3.638   7.191  1.1959 -0.5518 -0.4860
   26SAPC   C29 3448   0.712   3.694   7.374  0.0146 -0.6544  0.4314
   26SAPC   H9R 3449   0.680   3.608   7.434  0.1124 -0.3688  0.8975
   26SAPC  C210 3450   0.785   3.793   7.467  0.2935  0.1334 -0.3783
   26SAPC  H10R 3451   0.830   3.874   7.405 -1.7772  0.6286 -1.3274
   26SAPC  H10S 3452   0.874   3.743   7.510 -0.0491 -0.4229 -0.3160
   26SAPC  C211 3453   0.701   3.859   7.569 -0.4609 -1.0034  0.2239
   26SAPC  H11R 3454   0.674   3.964   7.550  2.5798 -0.0218  0.7917
   26SAPC  C212 3455   0.647   3.798   7.678  0.1126  0.0646  0.3688
   26SAPC  H12R 3456   0.582   3.859   7.741  0.1360 -1.8726  2.3693
   26SAPC  C213 3457   0.668   3.653   7.736 -0.0848  0.1261 -0.0059
   26SAPC  H13R 3458   0.701   3.576   7.663 -0.9541  0.3934 -0.6910
   26SAPC  H13S 3459   0.569   3.621   7.775 -0.6474 -0.8574 -2.0977
   26SAPC  C214 3460   0.766   3.650   7.846 -0.0338 -0.1995 -0.0930
   26SAPC  H14R 3461   0.744   3.702   7.941 -0.5513 -1.3578  0.4553
   26SAPC  C215 3462   0.886   3.580   7.842 -0.3420  0.6668 -0.3512
   26SAPC  H15R 3463   0.951   3.609   7.926  0.0696  2.0699 -1.1349
   26SAPC  C216 3464   0.947   3.484   7.744  0.1140 -0.5212  0.5213
   26SAPC  H16R 3465   1.009   3.541   7.673  1.1079  0.5568  2.1791
   26SAPC  H16S 3466   0.873   3.430   7.681 -0.3966 -0.1676  0.8081
   26SAPC  C217 3467   1.042   3.384   7.812 -0.7604  0.2480  0.0226
   26SAPC  H17R 3468   1.052   3.303   7.737 -2.4924 -0.1224  0.1715
   26SAPC  H17S 3469   0.993   3.332   7.897 -1.8673 -0.6459 -1.1238
   26SAPC  C218 3470   1.181   3.447   7.841  0.3843  0.8937 -0.2704
   26SAPC  H18R 3471   1.196   3.535   7.907 -0.5852  1.3011 -0.5711
   26SAPC  H18S 3472   1.199   3.492   7.741  0.2885 -0.0547 -0.7226
   26SAPC  C219 3473   1.285   3.335   7.862 -0.1932 -0.6085  0.6749
   26SAPC  H19R 3474   1.382   3.386   7.846  0.2166 -0.8081  2.3432
   26SAPC  H19S 3475   1.281   3.251   7.790 -0.7392  1.2358 -1.5798
   26SAPC  C220 3476   1.285   3.274   8.000  0.1614 -0.4140 -0.2547
   26SAPC  H20R 3477   1.257   3.359   8.066  2.2935 -0.6283  1.0285
   26SAPC  H20S 3478   1.378   3.221   8.031 -0.4186 -1.2437  0.0988
   26SAPC  H20T 3479   1.199   3.204   8.001 -0.3765  0.1825 -1.8773
   26SAPC   C33 3480   0.751   4.310   7.147 -1.1648 -0.6279  0.2229
   26SAPC   H3X 3481   0.659   4.262   7.109 -1.8000  1.0272 -0.4412
   26SAPC   H3Y 3482   0.727   4.417   7.163 -0.4532 -0.3322 -0.5760
   26SAPC   C34 3483   0.791   4.234   7.285 -0.2157 -0.2383 -0.3162
   26SAPC   H4X 3484   0.771   4.128   7.258  1.8261 -1.6186  2.9555
   26SAPC   H4Y 3485   0.715   4.265   7.360 -0.1505  1.9481 -1.0777
   26SAPC   C35 3486   0.928   4.260   7.353 -0.2676  0.4093  0.0730
   26SAPC   H5X 3487   0.935   4.368   7.375  1.7488  0.1670  0.9193
   26SAPC   H5Y 3488   1.005   4.246   7.274 -1.0369 -0.2510 -0.5820
   26SAPC   C36 3489   0.950   4.182   7.487 -0.4915 -0.1200  0.1338
   26SAPC   H6X 3490   1.054   4.210   7.515 -0.2188 -0.5622 -0.4232
   26SAPC   H6Y 3491   0.959   4.077   7.451 -0.0956  0.8296 -2.7813
   26SAPC   C37 3492   0.854   4.209   7.589  0.9713  0.4274  0.6615
   26SAPC   H7X 3493   0.757   4.160   7.566  1.2001  0.6588 -0.8793
   26SAPC   H7Y 3494   0.827   4.315   7.609 -0.4312  0.0491  0.9165
   26SAPC   C38 3495   0.891   4.146   7.724 -0.3786  0.8264  0.1062
   26SAPC   H8X 3496   0.994   4.167   7.758  0.0133 -1.2030  0.2841
   26SAPC   H8Y 3497   0.879   4.036   7.724  1.0746  0.6594 -0.2941
   26SAPC   C39 3498   0.795   4.202   7.830 -0.0490 -0.1569  0.4131
   26SAPC   H9X 3499   0.693   4.205   7.785  0.0596 -1.4741  0.0260
   26SAPC   H9Y 3500   0.829   4.307   7.844  0.2091  0.0586 -1.5087
   26SAPC  C310 3501   0.815   4.144   7.975 -0.0148 -0.0311 -0.0556
   26SAPC  H10X 3502   0.770   4.043   7.988  0.5658 -0.2652  0.1733
   26SAPC  H10Y 3503   0.760   4.207   8.048 -0.2058 -0.8252  0.4980
   26SAPC  C311 3504   0.963   4.126   8.009 -0.2840  0.1037 -0.4954
   26SAPC  H11X 3505   1.021   4.214   7.973 -1.2248  0.2304 -1.8080
   26SAPC  H11Y 3506   1.000   4.042   7.947 -0.8543  1.4141 -2.7167
   26SAPC  C312 3507   0.998   4.094   8.157  0.4534 -0.0173 -0.2272
   26SAPC  H12X 3508   0.979   3.990   8.191  2.6010 -0.9339 -1.6646
   26SAPC  H12Y 3509   0.930   4.158   8.218 -2.0285 -0.4449 -2.3877
   26SAPC  C313 3510   1.145   4.134   8.189  0.2909 -0.1876  0.0566
   26SAPC  H13X 3511   1.165   4.240   8.163 -0.4846  0.0751  0.5139
   26SAPC  H13Y 3512   1.210   4.073   8.122  2.4680  0.1996  1.6975
   26SAPC  C314 3513   1.185   4.117   8.338 -0.1045  0.0051  0.3515
   26SAPC  H14X 3514   1.294   4.138   8.349  0.5565 -1.8163 -1.8376
   26SAPC  H14Y 3515   1.183   4.008   8.360  2.3103  0.1751  1.8453
   26SAPC  C315 3516   1.105   4.189   8.450 -0.0059  0.1807 -0.6618
   26SAPC  H15X 3517   1.144   4.158   8.550 -0.6170  1.4723 -0.0047
   26SAPC  H15Y 3518   1.002   4.149   8.448 -1.1930  2.9030  0.6562
   26SAPC  C316 3519   1.098   4.338   8.439  0.4615  0.6543  0.2847
   26SAPC  H16X 3520   1.005   4.361   8.384 -1.1361 -1.5757  1.8420
   26SAPC  H16Y 3521   1.188   4.375   8.386 -0.5726  1.5644 -0.8895
   26SAPC  C317 3522   1.076   4.399   8.573 -0.0451 -0.1502  0.0175
   26SAPC  H17X 3523   1.176   4.416   8.618  1.9285 -2.3961 -3.1058
   26SAPC  H17Y 3524   1.014   4.340   8.643  0.5863  0.6984  1.3362
   26SAPC  C318 3525   1.019   4.543   8.584 -0.2530 -0.0840 -0.0635
   26SAPC  H18X 3526   1.085   4.622   8.541  1.4989 -1.4657 -0.0321
   26SAPC  H18Y 3527   1.003   4.585   8.686 -1.9575 -0.3847 -0.1777
   26SAPC  H18Z 3528   0.921   4.539   8.532 -0.3322  2.6266 -0.3051
   27SAPC     N 3529   6.236   2.793   6.511 -0.1659  0.1268 -0.6190
   27SAPC   C12 3530   6.330   2.769   6.633  0.5750 -0.1742 -0.6208
   27SAPC  H12A 3531   6.430   2.807   6.618  0.7171 -0.4525 -0.4019
   27SAPC  H12B 3532   6.330   2.664   6.661  0.1835  0.1359  0.6408
   27SAPC   C13 3533   6.094   2.763   6.541  0.0075  0.1486  0.2314
   27SAPC  H13A 3534   6.076   2.669   6.591  0.3965 -1.1272 -1.8960
   27SAPC  H13B 3535   6.052   2.845   6.597  0.7888  1.1724 -0.6296
   27SAPC  H13C 3536   6.029   2.765   6.454  0.2569  0.7395  0.0519
   27SAPC   C14 3537   6.256   2.924   6.446 -0.1683 -0.3218 -0.1366
   27SAPC  H14A 3538   6.185   2.932   6.365 -0.1635 -0.6933 -0.1810
   27SAPC  H14B 3539   6.241   3.004   6.516 -4.2673 -0.5826 -0.4912
   27SAPC  H14C 3540   6.355   2.950   6.412 -0.1237  2.3056  1.7782
   27SAPC   C15 3541   6.278   2.688   6.416 -0.0415  0.7666 -0.3565
   27SAPC  H15A 3542   6.249   2.592   6.454 -0.8369  1.6535  1.3879
   27SAPC  H15B 3543   6.211   2.707   6.332 -0.9215  0.8517  0.3470
   27SAPC  H15C 3544   6.382   2.696   6.391  0.2942 -0.5806  0.5540
   27SAPC   C11 3545   6.290   2.849   6.763  0.4571  0.1903 -0.6734
   27SAPC  H11A 3546   6.359   2.795   6.832 -0.1153 -0.5625 -0.6830
   27SAPC  H11B 3547   6.185   2.824   6.788  0.1287 -0.5978 -2.7286
   27SAPC     P 3548   6.440   3.055   6.778  0.1101  0.1675  0.1891
   27SAPC   O13 3549   6.544   2.975   6.706 -0.3426 -0.6231 -0.5378
   27SAPC   O14 3550   6.440   3.200   6.759  1.0023  0.5115  0.4334
   27SAPC   O12 3551   6.301   2.990   6.746 -0.2096 -0.7517 -0.3937
   27SAPC   O11 3552   6.461   3.038   6.931 -0.2017  0.1079 -0.2812
   27SAPC    C1 3553   6.346   3.049   7.025  0.1723 -0.3544  0.5758
   27SAPC    HA 3554   6.245   3.033   6.979  0.4491 -3.0715  0.7250
   27SAPC    HB 3555   6.357   2.981   7.112  0.6564 -1.6182 -0.4353
   27SAPC    C2 3556   6.339   3.185   7.096 -0.0626  0.2532 -0.3977
   27SAPC    HS 3557   6.350   3.268   7.022 -0.8914 -0.1993 -1.0421
   27SAPC   O21 3558   6.452   3.202   7.189 -0.0087  0.3812  0.3142
   27SAPC   C21 3559   6.457   3.319   7.243 -0.5166 -0.3362 -0.2561
   27SAPC   O22 3560   6.401   3.419   7.204  0.2011  0.4468  0.5229
   27SAPC   C22 3561   6.550   3.324   7.365 -0.7073  0.5835 -0.1571
   27SAPC   H2R 3562   6.651   3.289   7.334 -1.9950 -2.1654 -1.6519
   27SAPC   H2S 3563   6.555   3.432   7.388 -1.2977  1.5225 -3.7414
   27SAPC    C3 3564   6.196   3.208   7.158  0.4234  0.2932  0.0258
   27SAPC    HX 3565   6.117   3.232   7.084  1.4107  2.7373 -0.3253
   27SAPC    HY 3566   6.193   3.300   7.221 -0.7947  0.0187  0.4001
   27SAPC   O31 3567   6.172   3.099   7.254  0.0599  0.0085 -0.4215
   27SAPC   C31 3568   6.047   3.077   7.288  0.4266  0.5415 -0.1118
   27SAPC   O32 3569   5.949   3.133   7.244  0.6512 -0.2395 -0.7324
   27SAPC   C32 3570   6.042   2.966   7.398 -0.3127 -0.4742 -0.2513
   27SAPC   H2X 3571   6.110   2.998   7.479 -0.3065  1.5786 -1.0082
   27SAPC   H2Y 3572   6.073   2.868   7.358  0.4025 -0.6871  0.7800
   27SAPC   C23 3573   6.505   3.255   7.499  0.4055  0.0714 -0.4969
   27SAPC   H3R 3574   6.580   3.275   7.578  1.3336  0.6258 -1.4949
   27SAPC   H3S 3575   6.498   3.145   7.481  0.5539  0.2749 -1.9102
   27SAPC   C24 3576   6.377   3.304   7.561 -0.4418 -0.8268 -0.6308
   27SAPC   H4R 3577   6.371   3.246   7.655  2.7146  0.4884  0.5230
   27SAPC   H4S 3578   6.291   3.292   7.492 -0.9572  0.1336 -0.1862
   27SAPC   C25 3579   6.366   3.453   7.604  0.0298  0.1370  0.4331
   27SAPC   H5R 3580   6.351   3.514   7.514  0.3915  0.7922  0.8067
   27SAPC   C26 3581   6.362   3.502   7.730  0.7122 -0.0544 -0.0473
   27SAPC   H6R 3582   6.333   3.608   7.743  0.2149 -0.0904 -0.8275
   27SAPC   C27 3583   6.372   3.424   7.864 -0.1795  0.0058  0.9157
   27SAPC   H7R 3584   6.437   3.466   7.944  0.2544 -3.0798  2.3147
   27SAPC   H7S 3585   6.404   3.322   7.836 -1.2753 -0.2850  0.6630
   27SAPC   C28 3586   6.234   3.394   7.923  0.2156 -0.7742 -0.3335
   27SAPC   H8R 3587   6.156   3.376   7.848  0.3052 -0.9139 -0.3944
   27SAPC   C29 3588   6.207   3.369   8.054  0.2605 -0.6398 -0.6210
   27SAPC   H9R 3589   6.106   3.343   8.089  0.8688  0.1204  1.9079
   27SAPC  C210 3590   6.312   3.380   8.159  0.3049  0.3373 -0.9079
   27SAPC  H10R 3591   6.309   3.484   8.198 -3.9820  0.6877 -1.6655
   27SAPC  H10S 3592   6.409   3.335   8.130  1.0423  0.7658  0.7484
   27SAPC  C211 3593   6.261   3.302   8.282 -1.0806  0.1646  0.3468
   27SAPC  H11R 3594   6.225   3.201   8.253  0.3398 -0.1272 -0.5021
   27SAPC  C212 3595   6.244   3.349   8.405  0.0757  0.1688 -0.9656
   27SAPC  H12R 3596   6.216   3.277   8.482  1.2460 -0.4441 -1.0865
   27SAPC  C213 3597   6.274   3.485   8.459  0.6709 -0.1166 -0.5402
   27SAPC  H13R 3598   6.189   3.528   8.515  0.3207 -0.0561 -1.1015
   27SAPC  H13S 3599   6.300   3.559   8.380  1.1979  0.4304  0.1361
   27SAPC  C214 3600   6.392   3.467   8.552 -0.1877 -0.1077  0.2855
   27SAPC  H14R 3601   6.462   3.388   8.523 -1.0481 -0.5270 -0.7040
   27SAPC  C215 3602   6.415   3.531   8.674  0.4503  0.4503  0.2211
   27SAPC  H15R 3603   6.499   3.501   8.738  0.3097  0.7263  0.5366
   27SAPC  C216 3604   6.325   3.633   8.736  0.2737 -0.7109  0.1651
   27SAPC  H16R 3605   6.254   3.682   8.666 -2.3654 -1.4629  2.1197
   27SAPC  H16S 3606   6.397   3.711   8.768  1.1035 -1.2244 -0.3956
   27SAPC  C217 3607   6.248   3.588   8.861  0.4057 -0.0280 -0.0370
   27SAPC  H17R 3608   6.162   3.525   8.830 -1.7479  1.5135  2.3627
   27SAPC  H17S 3609   6.203   3.674   8.916 -2.0283 -0.2856 -1.4915
   27SAPC  C218 3610   6.337   3.500   8.954  0.1519 -0.1637  0.0559
   27SAPC  H18R 3611   6.432   3.553   8.976  1.5235 -2.8768  1.2356
   27SAPC  H18S 3612   6.375   3.415   8.894 -0.1311  0.3804 -0.9105
   27SAPC  C219 3613   6.270   3.453   9.082 -0.6365 -0.2296 -0.1533
   27SAPC  H19R 3614   6.204   3.371   9.047 -1.3151  0.0324  0.4892
   27SAPC  H19S 3615   6.209   3.529   9.135 -0.4540 -0.2683  0.1135
   27SAPC  C220 3616   6.366   3.397   9.192 -0.4872 -0.7931 -0.7160
   27SAPC  H20R 3617   6.444   3.336   9.140  0.0691 -0.3394 -0.4195
   27SAPC  H20S 3618   6.296   3.328   9.244  0.1820 -1.8961 -1.2394
   27SAPC  H20T 3619   6.408   3.474   9.259 -0.7084 -1.8512  0.6857
   27SAPC   C33 3620   5.896   2.949   7.456 -0.1367 -0.0890 -0.3062
   27SAPC   H3X 3621   5.903   2.843   7.490  1.5361  0.2579  0.5160
   27SAPC   H3Y 3622   5.808   2.938   7.389  1.1454 -0.7787 -1.9701
   27SAPC   C34 3623   5.868   3.042   7.576  0.8347  0.4805 -0.2663
   27SAPC   H4X 3624   5.759   3.036   7.596  0.9178 -2.0003 -0.1464
   27SAPC   H4Y 3625   5.904   3.144   7.552  0.2274  1.5682  3.0006
   27SAPC   C35 3626   5.929   2.992   7.709 -0.5506 -0.2031  0.4184
   27SAPC   H5X 3627   6.040   2.998   7.702 -0.4240  0.4512  2.2857
   27SAPC   H5Y 3628   5.908   2.887   7.737 -2.4168  0.2625  0.8980
   27SAPC   C36 3629   5.902   3.076   7.835 -0.5573 -0.1879  0.3094
   27SAPC   H6X 3630   5.794   3.092   7.854 -0.8808  0.9000 -2.0809
   27SAPC   H6Y 3631   5.933   3.180   7.814 -0.6934 -0.1243  0.4220
   27SAPC   C37 3632   5.969   3.027   7.968  0.0656 -0.8101  0.5990
   27SAPC   H7X 3633   6.071   3.071   7.974  0.0773 -0.8670  0.8014
   27SAPC   H7Y 3634   5.990   2.918   7.969 -0.7037 -1.0778 -2.5476
   27SAPC   C38 3635   5.897   3.077   8.095  0.0934  0.0403 -0.3312
   27SAPC   H8X 3636   5.788   3.055   8.093  0.3698 -1.8156  1.7481
   27SAPC   H8Y 3637   5.897   3.188   8.099  0.3377  0.0196  0.3060
   27SAPC   C39 3638   5.950   3.036   8.231  0.1795 -0.2910  0.2018
   27SAPC   H9X 3639   6.042   3.093   8.257 -0.0231  0.6729 -1.0903
   27SAPC   H9Y 3640   5.969   2.927   8.244 -0.2482 -0.6091 -1.5075
   27SAPC  C310 3641   5.853   3.074   8.344  0.0116  0.0346  0.1199
   27SAPC  H10X 3642   5.789   3.158   8.310  0.0525 -0.8622 -2.3787
   27SAPC  H10Y 3643   5.906   3.102   8.438  1.0957 -3.5476  0.7297
   27SAPC  C311 3644   5.754   2.962   8.379 -0.6846  0.3673 -0.3213
   27SAPC  H11X 3645   5.820   2.879   8.414  0.0574  0.8800 -0.4923
   27SAPC  H11Y 3646   5.704   2.921   8.289 -3.2901  1.6676  0.4050
   27SAPC  C312 3647   5.658   3.000   8.493 -0.9483 -0.5658 -0.2707
   27SAPC  H12X 3648   5.579   2.923   8.480 -1.8711  0.3234 -0.1271
   27SAPC  H12Y 3649   5.609   3.093   8.456  0.0590  0.3525  0.6464
   27SAPC  C313 3650   5.730   3.001   8.628  0.8126 -0.3291 -0.0931
   27SAPC  H13X 3651   5.805   3.083   8.637 -1.3940  1.7464  0.5801
   27SAPC  H13Y 3652   5.772   2.899   8.639  0.2842 -0.4546  0.9567
   27SAPC  C314 3653   5.638   3.007   8.754  0.1191 -0.3739 -0.9935
   27SAPC  H14X 3654   5.711   3.005   8.837  0.9028  1.6523 -1.5779
   27SAPC  H14Y 3655   5.570   2.918   8.754 -1.1767  0.5799 -1.5470
   27SAPC  C315 3656   5.553   3.128   8.773  0.6286  0.0676  0.1104
   27SAPC  H15X 3657   5.473   3.123   8.697  0.9996 -0.0043 -0.2778
   27SAPC  H15Y 3658   5.619   3.217   8.766  1.1248 -0.2442  0.6685
   27SAPC  C316 3659   5.499   3.143   8.913 -0.2146 -0.4990 -0.2394
   27SAPC  H16X 3660   5.591   3.136   8.976  0.5842 -0.5913 -1.3691
   27SAPC  H16Y 3661   5.433   3.056   8.935  0.9166 -1.4157 -0.3108
   27SAPC  C317 3662   5.417   3.266   8.933 -0.3868 -0.1090 -0.3026
   27SAPC  H17X 3663   5.351   3.271   8.843  0.1569  0.6024 -0.6778
   27SAPC  H17Y 3664   5.497   3.342   8.920 -0.3928  0.3266  1.8675
   27SAPC  C318 3665   5.342   3.296   9.065  0.1080  0.5592  0.1224
   27SAPC  H18X 3666   5.262   3.220   9.080  0.5502  0.5442  2.8482
   27SAPC  H18Y 3667   5.292   3.396   9.062 -1.1763 -0.0712 -0.8398
   27SAPC  H18Z 3668   5.411   3.292   9.151  2.2395  1.8040 -1.4113
   28SAPC     N 3669   5.566   6.194   6.538 -0.2477 -0.0846  0.5086
   28SAPC   C12 3670   5.412   6.204   6.522 -0.1656  0.4489  0.0923
   28SAPC  H12A 3671   5.379   6.214   6.420  0.5553  3.2390  0.0476
   28SAPC  H12B 3672   5.387   6.296   6.574 -0.6702  1.0123 -1.1106
   28SAPC   C13 3673   5.604   6.194   6.685  0.5593 -0.3676  1.6270
   28SAPC  H13A 3674   5.710   6.206   6.702  0.4615 -0.3429  2.2487
   28SAPC  H13B 3675   5.571   6.278   6.744 -0.0280 -1.2000  2.5124
   28SAPC  H13C 3676   5.562   6.104   6.728  0.6201 -0.2030  2.0380
   28SAPC   C14 3677   5.619   6.080   6.466  0.5283 -0.0214  0.3465
   28SAPC  H14A 3678   5.609   5.983   6.513  2.8862 -1.3553 -1.6365
   28SAPC  H14B 3679   5.573   6.070   6.369 -0.3649  0.8276  0.6673
   28SAPC  H14C 3680   5.726   6.081   6.450  0.6975  2.2813  1.3089
   28SAPC   C15 3681   5.617   6.321   6.480  0.1211 -0.2901 -0.3509
   28SAPC  H15A 3682   5.581   6.401   6.544  1.2047 -1.3181  1.6083
   28SAPC  H15B 3683   5.723   6.326   6.495  0.0683 -2.6120  1.1989
   28SAPC  H15C 3684   5.576   6.354   6.385 -2.1191  3.0080  1.5326
   28SAPC   C11 3685   5.327   6.082   6.564  0.2655  0.2296 -0.1036
   28SAPC  H11A 3686   5.218   6.102   6.577  0.7677  1.3937  3.5466
   28SAPC  H11B 3687   5.351   6.060   6.671 -0.2901  0.1771  0.0126
   28SAPC     P 3688   5.317   5.969   6.327 -0.1355 -0.5283  0.0252
   28SAPC   O13 3689   5.299   6.105   6.273  0.3280  0.8852  0.1316
   28SAPC   O14 3690   5.417   5.895   6.246 -0.2332 -0.0450 -0.5799
   28SAPC   O12 3691   5.355   5.965   6.481  0.8046  0.3613  0.0145
   28SAPC   O11 3692   5.173   5.908   6.312 -0.0948 -0.1996  0.0245
   28SAPC    C1 3693   5.136   5.815   6.414  0.3435  0.0937  0.5946
   28SAPC    HA 3694   5.172   5.712   6.390 -2.0334 -0.6856  0.0593
   28SAPC    HB 3695   5.182   5.847   6.510  1.5419 -1.0900  0.4488
   28SAPC    C2 3696   4.983   5.803   6.431  0.1029 -0.4976 -0.1948
   28SAPC    HS 3697   4.921   5.811   6.340 -0.1634  0.1895  0.0383
   28SAPC   O21 3698   4.946   5.910   6.510 -0.6922  0.3457  0.6391
   28SAPC   C21 3699   4.814   5.923   6.538 -1.0714 -1.3429 -0.2514
   28SAPC   O22 3700   4.728   5.860   6.477  0.2897 -0.1536  0.0478
   28SAPC   C22 3701   4.803   6.037   6.640 -0.1166  0.4859  0.0172
   28SAPC   H2R 3702   4.727   6.113   6.610 -1.8122 -1.1872 -0.1217
   28SAPC   H2S 3703   4.763   5.989   6.731  1.1509 -0.2094  0.2266
   28SAPC    C3 3704   4.951   5.672   6.507 -0.9011  0.4640 -0.3040
   28SAPC    HX 3705   4.966   5.582   6.443  2.5454  0.7831 -0.1622
   28SAPC    HY 3706   4.847   5.664   6.545 -0.1571 -0.5216  1.6458
   28SAPC   O31 3707   5.049   5.651   6.618 -0.4575 -0.1400  0.8827
   28SAPC   C31 3708   5.005   5.658   6.750 -0.3811  0.5731  0.5286
   28SAPC   O32 3709   4.900   5.700   6.783 -0.6339 -0.2261  0.5873
   28SAPC   C32 3710   5.117   5.600   6.835 -0.2058 -0.5797  0.5649
   28SAPC   H2X 3711   5.206   5.666   6.834 -1.1726  0.7479  0.2793
   28SAPC   H2Y 3712   5.148   5.505   6.787 -0.4314  0.5316 -1.9338
   28SAPC   C23 3713   4.938   6.106   6.674 -0.8858 -0.7737 -0.4955
   28SAPC   H3R 3714   4.968   6.161   6.582 -0.9015  1.4523  0.7598
   28SAPC   H3S 3715   5.010   6.023   6.688  1.0373  0.6708 -1.2976
   28SAPC   C24 3716   4.929   6.204   6.796 -0.8445  1.5671  0.5269
   28SAPC   H4R 3717   4.869   6.293   6.769 -0.6425  1.1403 -1.4761
   28SAPC   H4S 3718   4.872   6.159   6.880 -3.3167  1.3826 -1.1279
   28SAPC   C25 3719   5.061   6.249   6.838 -0.3743 -0.6444  0.9192
   28SAPC   H5R 3720   5.090   6.345   6.795  0.3090 -0.3965  1.9088
   28SAPC   C26 3721   5.142   6.187   6.923 -0.1130 -0.2086 -0.1869
   28SAPC   H6R 3722   5.234   6.236   6.957 -1.2615  2.0220 -0.1468
   28SAPC   C27 3723   5.120   6.063   6.998 -0.1806 -0.1140 -0.7123
   28SAPC   H7R 3724   5.037   6.001   6.959  0.1620 -1.1186  0.0759
   28SAPC   H7S 3725   5.074   6.092   7.095  0.3865  1.2722 -0.8308
   28SAPC   C28 3726   5.246   5.974   6.998  0.4970 -0.9108  0.1978
   28SAPC   H8R 3727   5.290   5.944   6.902 -0.1464 -0.1387 -0.3486
   28SAPC   C29 3728   5.312   5.934   7.112  0.1717 -0.5687  0.6444
   28SAPC   H9R 3729   5.387   5.854   7.102  1.1082  0.1530  1.6053
   28SAPC  C210 3730   5.275   5.972   7.243 -0.0561  0.4638 -0.2386
   28SAPC  H10R 3731   5.230   6.074   7.233  0.4463  0.6960 -0.1648
   28SAPC  H10S 3732   5.370   5.982   7.301  1.1375  1.0404 -2.2065
   28SAPC  C211 3733   5.175   5.882   7.307  0.7413  0.2523  0.2483
   28SAPC  H11R 3734   5.081   5.876   7.250  0.6418 -0.0174  0.4406
   28SAPC  C212 3735   5.171   5.822   7.426  0.2909 -0.2066 -0.2992
   28SAPC  H12R 3736   5.088   5.762   7.466  1.8947 -0.8342  2.3307
   28SAPC  C213 3737   5.286   5.821   7.530 -0.3059 -0.4244  0.5900
   28SAPC  H13R 3738   5.273   5.910   7.595 -0.2024 -0.3484  0.5061
   28SAPC  H13S 3739   5.386   5.848   7.491 -0.6542 -0.9617 -0.7128
   28SAPC  C214 3740   5.310   5.695   7.610 -0.1869 -0.4598 -0.2062
   28SAPC  H14R 3741   5.361   5.612   7.559 -0.0841 -0.0287 -0.8186
   28SAPC  C215 3742   5.294   5.671   7.741  0.1198  0.2435 -0.3301
   28SAPC  H15R 3743   5.280   5.567   7.773  0.4859  0.7442  1.5813
   28SAPC  C216 3744   5.238   5.771   7.838 -0.4912 -0.0322 -0.2080
   28SAPC  H16R 3745   5.271   5.873   7.810  0.6005  0.1268  1.5022
   28SAPC  H16S 3746   5.294   5.748   7.931 -0.5248 -0.3948 -0.2757
   28SAPC  C217 3747   5.090   5.785   7.872 -0.7285 -0.2948  0.5511
   28SAPC  H17R 3748   5.029   5.787   7.779 -0.2696  0.5619  0.2538
   28SAPC  H17S 3749   5.053   5.881   7.916  1.2429  0.2210  1.1679
   28SAPC  C218 3750   5.036   5.670   7.953  0.0118  0.0456  0.6003
   28SAPC  H18R 3751   5.085   5.572   7.938 -0.5112 -0.1907  0.4443
   28SAPC  H18S 3752   4.930   5.661   7.923  0.6540 -0.3699 -1.7746
   28SAPC  C219 3753   5.032   5.699   8.101  0.0549  0.0241 -0.5609
   28SAPC  H19R 3754   5.011   5.805   8.125  0.2321 -0.0932  0.1259
   28SAPC  H19S 3755   5.129   5.677   8.152 -0.6458  0.5209  1.0429
   28SAPC  C220 3756   4.933   5.593   8.162  0.1303 -0.2178  0.0401
   28SAPC  H20R 3757   4.933   5.595   8.273  0.6207 -0.2687  0.0422
   28SAPC  H20S 3758   4.969   5.491   8.139  2.3356 -0.3154  3.2556
   28SAPC  H20T 3759   4.834   5.609   8.116 -0.7092 -0.3597  1.7215
   28SAPC   C33 3760   5.082   5.579   6.976 -0.5230  0.7579 -0.0963
   28SAPC   H3X 3761   4.985   5.525   6.976 -1.9312  3.1071 -1.8059
   28SAPC   H3Y 3762   5.057   5.675   7.026 -0.3969  0.8789 -0.2646
   28SAPC   C34 3763   5.198   5.515   7.062  0.7341 -0.1910 -0.5713
   28SAPC   H4X 3764   5.284   5.585   7.064  1.4291 -1.0513  1.7513
   28SAPC   H4Y 3765   5.226   5.416   7.018 -0.8798 -0.5542 -0.8671
   28SAPC   C35 3766   5.164   5.489   7.208 -0.4183  0.7109 -0.3854
   28SAPC   H5X 3767   5.057   5.459   7.213  0.1542 -1.5292 -0.4228
   28SAPC   H5Y 3768   5.176   5.568   7.286  0.5429  0.4034 -0.2119
   28SAPC   C36 3769   5.244   5.362   7.269 -0.2618  0.1535  0.3864
   28SAPC   H6X 3770   5.350   5.383   7.242  0.3706 -1.5944  1.3405
   28SAPC   H6Y 3771   5.205   5.273   7.215  0.4553  0.2789 -0.3633
   28SAPC   C37 3772   5.226   5.344   7.420  0.1424  0.3847  0.2049
   28SAPC   H7X 3773   5.117   5.354   7.439 -0.2411  0.2076 -1.6994
   28SAPC   H7Y 3774   5.268   5.427   7.481 -1.1456  0.1891  1.4026
   28SAPC   C38 3775   5.306   5.227   7.468  0.5765  0.0027 -0.5059
   28SAPC   H8X 3776   5.409   5.266   7.463  0.9644 -0.8195  0.5732
   28SAPC   H8Y 3777   5.286   5.129   7.420 -1.6313  0.7176 -1.1555
   28SAPC   C39 3778   5.271   5.192   7.609 -0.3240 -0.5626  0.2804
   28SAPC   H9X 3779   5.164   5.164   7.617 -0.0534 -2.5977 -1.8902
   28SAPC   H9Y 3780   5.275   5.281   7.674 -0.1055 -0.7292  0.4993
   28SAPC  C310 3781   5.352   5.082   7.668  0.0233  0.3781  0.3973
   28SAPC  H10X 3782   5.457   5.110   7.642 -0.4086 -0.0268 -1.9853
   28SAPC  H10Y 3783   5.339   4.981   7.625 -0.7421  0.8070 -0.4202
   28SAPC  C311 3784   5.327   5.059   7.815 -0.0889  0.2765 -0.0630
   28SAPC  H11X 3785   5.321   5.152   7.876 -1.8007 -0.7345  1.4003
   28SAPC  H11Y 3786   5.410   4.996   7.853  0.3693 -0.2773 -1.8969
   28SAPC  C312 3787   5.199   4.985   7.845  0.5494  0.1511  0.1696
   28SAPC  H12X 3788   5.190   4.887   7.793  0.8366  0.6423 -0.8258
   28SAPC  H12Y 3789   5.117   5.040   7.794  0.1662 -1.3592 -0.9386
   28SAPC  C313 3790   5.170   4.955   7.988  0.0456  0.4555  0.4471
   28SAPC  H13X 3791   5.076   4.896   7.989  0.0985  0.3542 -0.0777
   28SAPC  H13Y 3792   5.158   5.056   8.032 -1.2427  0.2976  0.4895
   28SAPC  C314 3793   5.285   4.878   8.067  0.7179  0.4865  1.1474
   28SAPC  H14X 3794   5.386   4.924   8.060  1.6264 -1.6253 -2.4416
   28SAPC  H14Y 3795   5.290   4.782   8.011  0.0707  1.4392 -0.6024
   28SAPC  C315 3796   5.258   4.847   8.219  0.0664  0.1846  0.3253
   28SAPC  H15X 3797   5.237   4.949   8.259  0.5067 -0.9828  3.9281
   28SAPC  H15Y 3798   5.355   4.817   8.264  1.1501  3.0774  0.1141
   28SAPC  C316 3799   5.133   4.765   8.243 -0.5512 -0.7812  0.2945
   28SAPC  H16X 3800   5.138   4.671   8.184 -2.8905 -1.8632  1.6573
   28SAPC  H16Y 3801   5.040   4.805   8.197  1.2796  0.5154 -2.4860
   28SAPC  C317 3802   5.120   4.744   8.390  0.2201  0.0943  0.2176
   28SAPC  H17X 3803   5.201   4.682   8.432  2.0383  0.9495 -1.8206
   28SAPC  H17Y 3804   5.020   4.695   8.395  0.0990  0.1501 -1.1559
   28SAPC  C318 3805   5.125   4.867   8.478  0.0080 -0.1666  0.2338
   28SAPC  H18X 3806   5.069   4.954   8.439  1.6840 -0.0010 -2.0282
   28SAPC  H18Y 3807   5.233   4.892   8.492 -0.1279 -0.4877  2.1218
   28SAPC  H18Z 3808   5.090   4.842   8.581 -1.8148 -0.2844 -0.3933
   29SAPC     N 3809   1.632   4.002   6.431  0.3956  0.1927  0.2400
   29SAPC   C12 3810   1.751   4.061   6.507  0.2147  0.5854 -0.6804
   29SAPC  H12A 3811   1.822   4.107   6.440 -0.3759  1.6750 -0.5734
   29SAPC  H12B 3812   1.808   3.975   6.540  0.6177  0.3933 -1.8203
   29SAPC   C13 3813   1.574   4.101   6.340 -0.0081 -0.0789 -0.2995
   29SAPC  H13A 3814   1.654   4.126   6.272 -0.8675 -1.9961 -2.1656
   29SAPC  H13B 3815   1.493   4.070   6.274  1.1156 -0.0542 -1.7438
   29SAPC  H13C 3816   1.558   4.196   6.389  2.9425  0.7624 -0.7969
   29SAPC   C14 3817   1.690   3.889   6.347  0.5983  0.1077 -0.3479
   29SAPC  H14A 3818   1.739   3.821   6.416  1.6324  1.8435  0.6968
   29SAPC  H14B 3819   1.623   3.836   6.281  1.7430 -1.6027 -0.1970
   29SAPC  H14C 3820   1.762   3.933   6.281 -1.5852  1.3270 -2.0298
   29SAPC   C15 3821   1.538   3.933   6.528  1.1292  0.6249  0.5762
   29SAPC  H15A 3822   1.596   3.860   6.582 -0.1497 -0.9811 -0.1332
   29SAPC  H15B 3823   1.504   4.005   6.600  0.6880  1.2078 -0.1997
   29SAPC  H15C 3824   1.458   3.885   6.473 -0.8996  2.2005  2.0082
   29SAPC   C11 3825   1.730   4.159   6.619 -0.4406  0.4613  0.0743
   29SAPC  H11A 3826   1.826   4.186   6.669 -0.9850  0.1622  1.3366
   29SAPC  H11B 3827   1.673   4.112   6.702  1.5613 -1.0706  0.6557
   29SAPC     P 3828   1.718   4.402   6.510  0.2824  0.3090 -0.1240
   29SAPC   O13 3829   1.801   4.376   6.396  0.3354  0.6388  0.0924
   29SAPC   O14 3830   1.612   4.496   6.486 -0.1339 -0.3230  0.3745
   29SAPC   O12 3831   1.653   4.272   6.570  1.1361  0.0676  0.2436
   29SAPC   O11 3832   1.814   4.453   6.630 -0.3880  0.4692 -0.4996
   29SAPC    C1 3833   1.777   4.528   6.742 -0.0737 -0.5832 -0.1779
   29SAPC    HA 3834   1.859   4.599   6.765  0.8660 -2.2935  1.9815
   29SAPC    HB 3835   1.687   4.590   6.720  1.9796  1.9280 -2.2627
   29SAPC    C2 3836   1.755   4.455   6.877  0.1442 -0.9579  0.4081
   29SAPC    HS 3837   1.754   4.538   6.951 -0.9223  0.9529 -1.6111
   29SAPC   O21 3838   1.859   4.360   6.908  0.1706 -0.2834  0.0424
   29SAPC   C21 3839   1.984   4.407   6.916 -0.3850  0.1495  0.0541
   29SAPC   O22 3840   2.023   4.520   6.888  0.3670  0.5527  0.1232
   29SAPC   C22 3841   2.077   4.302   6.971  0.3904 -0.4508 -0.7141
   29SAPC   H2R 3842   2.051   4.300   7.078  0.6713  1.3878 -0.5911
   29SAPC   H2S 3843   2.050   4.199   6.936 -0.7582  0.0418 -1.3316
   29SAPC    C3 3844   1.617   4.378   6.887  0.5106 -0.0111 -0.2493
   29SAPC    HX 3845   1.640   4.273   6.858  0.4386 -0.0414 -0.1944
   29SAPC    HY 3846   1.537   4.418   6.821 -1.4641  0.6231  2.3562
   29SAPC   O31 3847   1.558   4.377   7.021  0.2286 -0.0783 -0.5757
   29SAPC   C31 3848   1.510   4.484   7.066 -0.4742 -1.0237  0.1590
   29SAPC   O32 3849   1.503   4.597   7.012 -0.4060  1.1857  0.2081
   29SAPC   C32 3850   1.462   4.470   7.210 -1.1870 -0.6363 -0.2538
   29SAPC   H2X 3851   1.554   4.468   7.272 -0.7344  0.7749 -0.8377
   29SAPC   H2Y 3852   1.392   4.383   7.210 -0.8541 -0.9101  0.6338
   29SAPC   C23 3853   2.228   4.347   6.973  0.8953  0.0370 -0.0069
   29SAPC   H3R 3854   2.246   4.448   7.016 -2.5505  1.7775 -2.1795
   29SAPC   H3S 3855   2.260   4.348   6.866  0.1072 -0.9911 -0.2731
   29SAPC   C24 3856   2.313   4.251   7.053 -1.3089 -0.3913 -0.0646
   29SAPC   H4R 3857   2.306   4.261   7.163 -2.9447 -2.8574  0.1262
   29SAPC   H4S 3858   2.414   4.292   7.029 -1.8681 -0.2767 -2.5415
   29SAPC   C25 3859   2.305   4.108   7.005  0.4223  0.1981 -0.4187
   29SAPC   H5R 3860   2.331   4.097   6.899  1.8817 -0.2689 -0.0381
   29SAPC   C26 3861   2.262   4.003   7.079  0.6501  0.7248 -0.1682
   29SAPC   H6R 3862   2.234   3.908   7.030  0.0650  1.6764 -1.7852
   29SAPC   C27 3863   2.219   4.002   7.225  0.8752  0.0601 -0.1102
   29SAPC   H7R 3864   2.109   3.993   7.221  0.3229  4.9277 -1.7669
   29SAPC   H7S 3865   2.242   4.100   7.271 -2.9764  1.5074 -0.9276
   29SAPC   C28 3866   2.276   3.884   7.300  0.1961 -0.1625 -0.1892
   29SAPC   H8R 3867   2.357   3.832   7.246  0.3767 -2.1534  1.8991
   29SAPC   C29 3868   2.247   3.854   7.424 -0.5879 -0.1672 -0.1981
   29SAPC   H9R 3869   2.303   3.775   7.477  0.3318  1.7738  1.8845
   29SAPC  C210 3870   2.143   3.913   7.518 -0.4135  0.3833  0.1147
   29SAPC  H10R 3871   2.110   4.014   7.485 -0.2714 -0.4211 -2.8694
   29SAPC  H10S 3872   2.183   3.913   7.621 -0.6618 -0.0104  0.2144
   29SAPC  C211 3873   2.027   3.815   7.532 -0.4476  0.1925  0.2491
   29SAPC  H11R 3874   2.015   3.738   7.455  3.4894  1.5927 -2.0553
   29SAPC  C212 3875   1.950   3.802   7.642  0.3634 -0.3962 -0.1526
   29SAPC  H12R 3876   1.888   3.710   7.643 -0.6399  0.2580  0.8824
   29SAPC  C213 3877   1.955   3.886   7.769 -0.3988 -0.0665  0.1799
   29SAPC  H13R 3878   1.905   3.980   7.738  0.0374  1.0385  2.5536
   29SAPC  H13S 3879   2.059   3.912   7.799  0.0267 -2.9174  1.5409
   29SAPC  C214 3880   1.880   3.825   7.884 -0.0540 -0.4113 -0.5129
   29SAPC  H14R 3881   1.771   3.816   7.870  0.0276  1.2815 -2.6521
   29SAPC  C215 3882   1.945   3.781   7.991  0.1149  0.3403  0.4827
   29SAPC  H15R 3883   1.892   3.734   8.076  0.0541 -0.9224 -0.2370
   29SAPC  C216 3884   2.095   3.787   8.007  0.3124  0.3708  0.2649
   29SAPC  H16R 3885   2.143   3.884   7.984 -1.4298  2.0564  3.0992
   29SAPC  H16S 3886   2.149   3.719   7.938  0.4174 -1.1976  1.8017
   29SAPC  C217 3887   2.140   3.753   8.148  0.4926  0.1153 -0.1231
   29SAPC  H17R 3888   2.093   3.655   8.172 -1.6175  0.4807 -2.3627
   29SAPC  H17S 3889   2.096   3.822   8.224 -0.0037  0.1178 -0.4063
   29SAPC  C218 3890   2.288   3.764   8.169 -0.5347 -0.4285 -0.8323
   29SAPC  H18R 3891   2.324   3.866   8.144  1.2889 -1.2443 -1.7127
   29SAPC  H18S 3892   2.344   3.698   8.099  0.1340 -1.5375  0.6855
   29SAPC  C219 3893   2.331   3.739   8.309  0.1964 -0.1308 -0.1144
   29SAPC  H19R 3894   2.320   3.628   8.313  0.1761 -0.1883 -1.3401
   29SAPC  H19S 3895   2.264   3.790   8.382  0.2135 -1.3594  0.7959
   29SAPC  C220 3896   2.475   3.770   8.346 -0.0230  0.0209  0.3944
   29SAPC  H20R 3897   2.550   3.705   8.296 -0.9007 -0.1718 -0.7083
   29SAPC  H20S 3898   2.479   3.754   8.456 -2.0078 -2.3981  0.2142
   29SAPC  H20T 3899   2.497   3.876   8.319 -2.2923  0.5092  0.2354
   29SAPC   C33 3900   1.384   4.594   7.252  0.4917 -0.5261 -0.6316
   29SAPC   H3X 3901   1.303   4.607   7.177 -0.8539  0.6431  0.9393
   29SAPC   H3Y 3902   1.459   4.677   7.251  0.9213 -0.8257  1.3756
   29SAPC   C34 3903   1.328   4.592   7.396  0.5852 -0.0652 -0.5706
   29SAPC   H4X 3904   1.307   4.695   7.431  3.4939  0.7408 -0.9449
   29SAPC   H4Y 3905   1.409   4.564   7.467 -0.6835  1.4100  1.5675
   29SAPC   C35 3906   1.210   4.493   7.411  0.1786  0.3095  0.2695
   29SAPC   H5X 3907   1.242   4.387   7.426  0.8135 -0.0156 -2.7539
   29SAPC   H5Y 3908   1.139   4.496   7.325  0.6819 -1.0114 -0.2255
   29SAPC   C36 3909   1.114   4.519   7.529 -0.3286  0.0532  0.1521
   29SAPC   H6X 3910   1.027   4.451   7.535  1.9931 -2.9783  3.3264
   29SAPC   H6Y 3911   1.083   4.625   7.516  1.8941  0.5325 -2.0975
   29SAPC   C37 3912   1.189   4.507   7.658  0.2655 -0.4500  0.6743
   29SAPC   H7X 3913   1.282   4.563   7.681  0.7119 -1.8222  2.5032
   29SAPC   H7Y 3914   1.218   4.399   7.659  1.0275 -0.2428  1.6532
   29SAPC   C38 3915   1.101   4.531   7.782 -0.4319  0.0472 -0.2610
   29SAPC   H8X 3916   1.004   4.477   7.772 -1.2493  1.1523  1.2419
   29SAPC   H8Y 3917   1.061   4.635   7.781 -2.3876 -0.6589 -1.7401
   29SAPC   C39 3918   1.160   4.500   7.915  0.6442  0.3874 -0.6400
   29SAPC   H9X 3919   1.246   4.568   7.927 -0.0360  1.5332 -1.9875
   29SAPC   H9Y 3920   1.199   4.396   7.918  1.5665  0.7017 -1.5028
   29SAPC  C310 3921   1.058   4.523   8.032  0.0843 -0.8114 -0.1499
   29SAPC  H10X 3922   1.097   4.472   8.123 -1.2784 -1.0642  0.3101
   29SAPC  H10Y 3923   0.956   4.481   8.022  0.0942 -1.2832  1.3626
   29SAPC  C311 3924   1.042   4.671   8.072  0.0313  0.1704  0.4721
   29SAPC  H11X 3925   1.009   4.739   7.991  1.3228  0.3086  0.0345
   29SAPC  H11Y 3926   1.142   4.700   8.112  0.7096  0.1813 -1.1589
   29SAPC  C312 3927   0.949   4.683   8.194 -0.2294  0.7991 -0.5689
   29SAPC  H12X 3928   0.990   4.623   8.277  0.2111  0.5295 -0.9735
   29SAPC  H12Y 3929   0.856   4.634   8.156  0.8675 -0.2450 -2.0610
   29SAPC  C313 3930   0.919   4.825   8.236 -0.5340  0.1374 -0.4301
   29SAPC  H13X 3931   0.869   4.890   8.162 -2.4852  0.1730  0.8567
   29SAPC  H13Y 3932   1.019   4.870   8.254 -0.6144  0.1622 -0.0441
   29SAPC  C314 3933   0.842   4.822   8.368 -0.4258 -0.4829  0.1417
   29SAPC  H14X 3934   0.884   4.745   8.436 -1.0380  0.5328  1.7220
   29SAPC  H14Y 3935   0.736   4.791   8.353 -0.1879 -0.1160 -2.9331
   29SAPC  C315 3936   0.840   4.952   8.452 -0.3097 -0.1479  0.0063
   29SAPC  H15X 3937   0.805   5.036   8.388  0.6666 -0.5407 -1.0862
   29SAPC  H15Y 3938   0.940   4.987   8.488 -0.4760  0.9895 -0.6098
   29SAPC  C316 3939   0.749   4.931   8.578  0.2699  0.5815  0.0164
   29SAPC  H16X 3940   0.781   4.853   8.650 -2.0830 -1.0229 -0.5531
   29SAPC  H16Y 3941   0.649   4.900   8.541  0.9135  1.0959 -2.3524
   29SAPC  C317 3942   0.729   5.071   8.646 -0.3281  0.1190  0.2711
   29SAPC  H17X 3943   0.832   5.111   8.652  0.2460 -1.2153 -0.1478
   29SAPC  H17Y 3944   0.691   5.065   8.750 -1.4523 -1.0330 -0.1754
   29SAPC  C318 3945   0.633   5.162   8.570  0.3165 -0.7107 -0.7570
   29SAPC  H18X 3946   0.667   5.184   8.466 -0.3460 -2.7209 -1.4597
   29SAPC  H18Y 3947   0.630   5.257   8.627 -1.4009 -1.5856  0.7104
   29SAPC  H18Z 3948   0.536   5.108   8.570 -0.3258  0.3588  0.9951
   30SAPC     N 3949   1.354   2.250   5.885  0.4822  0.3708  0.1869
   30SAPC   C12 3950   1.426   2.255   6.016 -0.0575  0.7382 -0.7313
   30SAPC  H12A 3951   1.426   2.358   6.048 -1.5006  0.5813 -0.1359
   30SAPC  H12B 3952   1.529   2.228   5.999 -0.9800 -3.7131 -0.4250
   30SAPC   C13 3953   1.407   2.133   5.807  0.2100 -0.4628  0.0686
   30SAPC  H13A 3954   1.380   2.039   5.853 -0.0604 -0.5271 -0.2174
   30SAPC  H13B 3955   1.364   2.125   5.708  1.8673 -0.3915 -0.6844
   30SAPC  H13C 3956   1.513   2.143   5.790 -0.1777  2.1923 -1.2828
   30SAPC   C14 3957   1.208   2.243   5.904  0.8496 -0.4065  0.2815
   30SAPC  H14A 3958   1.177   2.341   5.935 -0.7472 -1.5437  2.5481
   30SAPC  H14B 3959   1.150   2.230   5.813 -0.3692  0.1841  0.9502
   30SAPC  H14C 3960   1.198   2.162   5.974  1.0033  0.3273  1.1586
   30SAPC   C15 3961   1.382   2.372   5.805  0.3235 -0.1674  0.5971
   30SAPC  H15A 3962   1.489   2.386   5.794 -0.0738  1.4013 -2.4779
   30SAPC  H15B 3963   1.334   2.372   5.708  1.0599 -0.0870  0.2224
   30SAPC  H15C 3964   1.341   2.460   5.852 -1.7068 -0.3012 -0.8155
   30SAPC   C11 3965   1.369   2.173   6.130 -0.3307  0.2492 -0.2742
   30SAPC  H11A 3966   1.272   2.205   6.173 -1.2446 -2.1527 -0.3793
   30SAPC  H11B 3967   1.451   2.178   6.204  0.5753 -1.0458 -1.1490
   30SAPC     P 3968   1.247   1.938   6.142 -0.0388  0.2392 -0.3151
   30SAPC   O13 3969   1.114   2.007   6.153 -0.1101 -0.2322  0.1354
   30SAPC   O14 3970   1.249   1.813   6.058 -0.3212  0.4781 -0.5948
   30SAPC   O12 3971   1.357   2.038   6.093  0.5162 -0.3606 -0.0857
   30SAPC   O11 3972   1.295   1.903   6.285  0.5132 -0.0995 -0.4900
   30SAPC    C1 3973   1.338   1.772   6.321  0.5254 -0.3078 -0.8503
   30SAPC    HA 3974   1.249   1.706   6.316  0.9769 -1.0613  0.6026
   30SAPC    HB 3975   1.418   1.721   6.263 -0.0846 -0.7886 -1.2932
   30SAPC    C2 3976   1.370   1.769   6.471 -0.3179 -0.1845 -0.4235
   30SAPC    HS 3977   1.366   1.664   6.509 -3.6292  0.6099  1.8971
   30SAPC   O21 3978   1.280   1.847   6.551 -0.3342 -0.2007  0.1475
   30SAPC   C21 3979   1.158   1.799   6.564  0.1413 -0.3596 -0.6771
   30SAPC   O22 3980   1.114   1.705   6.504 -0.0947  0.4451 -0.8363
   30SAPC   C22 3981   1.078   1.878   6.665  0.3878  0.3996 -0.2411
   30SAPC   H2R 3982   1.116   1.983   6.665  0.5404  0.3706 -1.7995
   30SAPC   H2S 3983   0.970   1.880   6.639 -0.6125  0.0130  3.3452
   30SAPC    C3 3984   1.511   1.829   6.496 -0.4160 -0.1739  0.2879
   30SAPC    HX 3985   1.504   1.926   6.444  1.2691  0.2791  0.8406
   30SAPC    HY 3986   1.582   1.770   6.435  1.9958  0.6219  2.1560
   30SAPC   O31 3987   1.555   1.848   6.631 -0.5195  0.6889  0.1193
   30SAPC   C31 3988   1.588   1.733   6.691 -0.3164  0.1021  0.0478
   30SAPC   O32 3989   1.564   1.622   6.650  0.0302  0.5464 -0.5384
   30SAPC   C32 3990   1.666   1.772   6.822  1.1291  0.2132  0.4021
   30SAPC   H2X 3991   1.725   1.859   6.787  0.8659 -0.2280 -1.2151
   30SAPC   H2Y 3992   1.731   1.696   6.871 -0.6301 -1.0624  0.8373
   30SAPC   C23 3993   1.087   1.802   6.795 -0.7636  0.3862  0.0416
   30SAPC   H3R 3994   1.064   1.693   6.788  0.4369  0.1435 -0.4086
   30SAPC   H3S 3995   1.004   1.831   6.862 -1.6448 -1.5930 -0.0957
   30SAPC   C24 3996   1.218   1.823   6.878 -0.0839  0.3339  0.0092
   30SAPC   H4R 3997   1.300   1.770   6.824  0.0986 -0.0778  0.6739
   30SAPC   H4S 3998   1.203   1.769   6.974  1.5815 -1.6775 -0.7818
   30SAPC   C25 3999   1.240   1.970   6.905  0.8823  0.4542  0.0996
   30SAPC   H5R 4000   1.281   2.027   6.820 -0.1433 -1.0062 -1.4544
   30SAPC   C26 4001   1.208   2.044   7.011 -1.3804  0.0497 -0.1648
   30SAPC   H6R 4002   1.244   2.147   7.001  0.5301 -0.4934  0.6653
   30SAPC   C27 4003   1.163   1.995   7.147 -0.5308 -0.5100 -0.2375
   30SAPC   H7R 4004   1.221   2.053   7.221  2.3202 -1.5021 -1.5389
   30SAPC   H7S 4005   1.197   1.890   7.160 -1.2067 -0.9056 -1.4765
   30SAPC   C28 4006   1.022   2.013   7.188  0.5151  0.0538  0.2840
   30SAPC   H8R 4007   0.947   2.018   7.108  2.0502  0.9204 -1.1722
   30SAPC   C29 4008   0.990   1.992   7.318 -0.2605  0.0316  0.3897
   30SAPC   H9R 4009   0.886   1.978   7.350 -0.2713  2.2092  1.5031
   30SAPC  C210 4010   1.087   1.963   7.428  0.2248  0.3538 -0.3106
   30SAPC  H10R 4011   1.045   2.000   7.523 -0.6603 -0.8989 -0.1889
   30SAPC  H10S 4012   1.187   2.011   7.428  1.1450 -1.3067  2.8833
   30SAPC  C211 4013   1.121   1.817   7.427  0.2119  0.5194 -0.2896
   30SAPC  H11R 4014   1.117   1.761   7.333 -0.2484  1.4515 -0.8292
   30SAPC  C212 4015   1.175   1.745   7.529 -0.1511 -0.1694 -0.1915
   30SAPC  H12R 4016   1.209   1.643   7.509 -0.2962 -0.8485  2.5315
   30SAPC  C213 4017   1.205   1.804   7.665  0.6360 -0.6355 -0.4413
   30SAPC  H13R 4018   1.153   1.901   7.680 -2.1480 -2.0219 -0.5647
   30SAPC  H13S 4019   1.314   1.820   7.681  0.3590  1.7037 -0.4967
   30SAPC  C214 4020   1.144   1.731   7.782 -0.7871 -0.9095  0.5643
   30SAPC  H14R 4021   1.078   1.644   7.767 -1.8476 -0.1883  0.9822
   30SAPC  C215 4022   1.159   1.772   7.906  0.1535 -0.5470 -0.3847
   30SAPC  H15R 4023   1.128   1.713   7.994  0.2684  0.2451  0.1960
   30SAPC  C216 4024   1.227   1.896   7.953  0.4665 -0.1784  0.0802
   30SAPC  H16R 4025   1.138   1.955   7.983 -0.3904 -1.4328  0.0974
   30SAPC  H16S 4026   1.276   1.948   7.868  1.1717  2.0098  1.7417
   30SAPC  C217 4027   1.328   1.889   8.066  0.0362  0.8555 -0.4772
   30SAPC  H17R 4028   1.403   1.970   8.073  0.5892  0.2942  0.1561
   30SAPC  H17S 4029   1.377   1.790   8.054  1.2546  1.5634 -1.6368
   30SAPC  C218 4030   1.272   1.882   8.212  0.2753 -0.4287  1.0162
   30SAPC  H18R 4031   1.359   1.884   8.281  0.8165  1.8500  0.3513
   30SAPC  H18S 4032   1.220   1.784   8.225  1.3362 -0.8813  2.0745
   30SAPC  C219 4033   1.176   1.996   8.255 -0.0258  0.1153 -1.2105
   30SAPC  H19R 4034   1.127   2.036   8.164  1.5398 -1.2579 -2.7291
   30SAPC  H19S 4035   1.236   2.071   8.310  0.6326 -0.1707 -1.5341
   30SAPC  C220 4036   1.065   1.944   8.338 -0.3822 -0.1112 -0.6339
   30SAPC  H20R 4037   1.097   1.910   8.439  0.0429  1.7775 -0.0953
   30SAPC  H20S 4038   1.026   1.852   8.288  1.5085 -0.6982 -1.1355
   30SAPC  H20T 4039   0.987   2.017   8.364  0.0142  0.1663 -0.2174
   30SAPC   C33 4040   1.566   1.825   6.933 -0.0688  0.5362 -0.2307
   30SAPC   H3X 4041   1.498   1.739   6.955  1.3798 -1.3417 -2.5178
   30SAPC   H3Y 4042   1.501   1.907   6.897 -0.2681  1.6378  2.4618
   30SAPC   C34 4043   1.639   1.866   7.064 -0.2920  0.2721 -0.2305
   30SAPC   H4X 4044   1.699   1.957   7.043  1.0979 -1.3410 -4.2148
   30SAPC   H4Y 4045   1.722   1.795   7.081 -0.9445  0.0797  2.8952
   30SAPC   C35 4046   1.551   1.872   7.184  0.1154  0.4691 -0.1649
   30SAPC   H5X 4047   1.510   1.769   7.193  1.1872  0.0848  0.4826
   30SAPC   H5Y 4048   1.474   1.946   7.154  1.2995  0.9716 -2.1277
   30SAPC   C36 4049   1.623   1.925   7.305  0.3964 -0.3184 -0.6318
   30SAPC   H6X 4050   1.672   2.022   7.284 -2.9456  1.6548 -0.0816
   30SAPC   H6Y 4051   1.704   1.853   7.327 -0.5095 -0.9715  0.6901
   30SAPC   C37 4052   1.533   1.955   7.427 -0.9017  1.0819 -0.2602
   30SAPC   H7X 4053   1.479   1.860   7.448  0.5324  0.1091 -0.8016
   30SAPC   H7Y 4054   1.462   2.034   7.395 -0.3128  1.5563 -0.4112
   30SAPC   C38 4055   1.588   2.015   7.562  0.2309  0.2176  0.1806
   30SAPC   H8X 4056   1.502   2.060   7.615 -2.1531 -1.5038 -1.9745
   30SAPC   H8Y 4057   1.662   2.097   7.552 -0.3460  0.7450  0.2282
   30SAPC   C39 4058   1.637   1.906   7.657  0.0989  0.1579  0.3189
   30SAPC   H9X 4059   1.711   1.839   7.609  0.8057 -0.0542  1.6615
   30SAPC   H9Y 4060   1.557   1.833   7.682 -0.3026  0.8385  1.0661
   30SAPC  C310 4061   1.706   1.967   7.788  0.4026  0.4542  0.2304
   30SAPC  H10X 4062   1.632   2.038   7.829 -1.1043 -0.5581 -0.6084
   30SAPC  H10Y 4063   1.782   2.033   7.740  0.0725 -0.0053 -0.9723
   30SAPC  C311 4064   1.755   1.851   7.870  0.7419  0.4990 -0.1167
   30SAPC  H11X 4065   1.824   1.796   7.802  0.7630  0.7518 -0.2985
   30SAPC  H11Y 4066   1.674   1.785   7.908  0.9671 -0.4294 -1.1783
   30SAPC  C312 4067   1.840   1.898   7.984  0.1673  0.6431 -0.5827
   30SAPC  H12X 4068   1.936   1.940   7.948 -1.2627  2.7210 -2.2185
   30SAPC  H12Y 4069   1.869   1.812   8.048  1.1937 -0.1805 -2.0947
   30SAPC  C313 4070   1.763   2.002   8.078 -0.2892  0.6682  0.5132
   30SAPC  H13X 4071   1.656   1.976   8.097 -0.3773  1.1176  0.6424
   30SAPC  H13Y 4072   1.757   2.096   8.019 -0.5361 -1.0367 -2.3821
   30SAPC  C314 4073   1.810   2.029   8.222 -0.9578  0.5337 -0.7746
   30SAPC  H14X 4074   1.920   2.042   8.208 -0.6638 -0.5796  0.3214
   30SAPC  H14Y 4075   1.787   1.934   8.274 -2.0142  0.1149 -1.9471
   30SAPC  C315 4076   1.737   2.141   8.294 -0.2714  0.0292  0.3064
   30SAPC  H15X 4077   1.743   2.233   8.233  2.0146  0.3400  0.8867
   30SAPC  H15Y 4078   1.792   2.161   8.389 -0.2554 -2.0812  0.8135
   30SAPC  C316 4079   1.597   2.105   8.337 -0.4748  0.3457 -0.5204
   30SAPC  H16X 4080   1.607   2.015   8.401 -0.4551  0.7114 -0.0024
   30SAPC  H16Y 4081   1.541   2.081   8.244  1.0223 -0.2190 -1.3041
   30SAPC  C317 4082   1.530   2.217   8.422 -0.2632  0.0306 -0.4063
   30SAPC  H17X 4083   1.422   2.193   8.418  0.0137 -1.2154 -0.7761
   30SAPC  H17Y 4084   1.549   2.314   8.372 -1.8629  0.3868 -0.3916
   30SAPC  C318 4085   1.566   2.214   8.567 -0.1329  0.6255 -0.0648
   30SAPC  H18X 4086   1.671   2.178   8.572 -0.8923 -1.9410 -0.9452
   30SAPC  H18Y 4087   1.516   2.130   8.619  0.3637  1.2763  1.5397
   30SAPC  H18Z 4088   1.546   2.310   8.619  1.2354  0.5999  0.5613
   31SAPC     N 4089   3.666   4.739   6.216  0.1095  0.1346 -0.0478
   31SAPC   C12 4090   3.737   4.733   6.349  0.6874 -0.6198 -0.2628
   31SAPC  H12A 4091   3.711   4.820   6.407 -0.8698 -1.0046 -0.3257
   31SAPC  H12B 4092   3.845   4.730   6.340  0.7427 -2.5814  0.4366
   31SAPC   C13 4093   3.722   4.639   6.119  0.0734  0.0864  0.1519
   31SAPC  H13A 4094   3.713   4.539   6.160  1.0846  0.7325  2.0696
   31SAPC  H13B 4095   3.656   4.639   6.034 -0.3610  3.9504  0.2951
   31SAPC  H13C 4096   3.825   4.654   6.090  0.1163  0.0367  0.2776
   31SAPC   C14 4097   3.522   4.702   6.237 -0.0018  0.0680 -0.1465
   31SAPC  H14A 4098   3.508   4.605   6.283  3.7139 -0.0660  1.0762
   31SAPC  H14B 4099   3.466   4.776   6.292 -2.2623  0.4639 -2.7663
   31SAPC  H14C 4100   3.460   4.700   6.149 -0.5307  0.9138  0.2039
   31SAPC   C15 4101   3.669   4.879   6.160 -0.9488 -0.2940 -0.3313
   31SAPC  H15A 4102   3.629   4.957   6.223  0.5454 -0.3784  0.7914
   31SAPC  H15B 4103   3.773   4.899   6.139 -0.6563 -0.3005  1.0033
   31SAPC  H15C 4104   3.611   4.883   6.069  2.3550  1.3081 -2.5493
   31SAPC   C11 4105   3.705   4.609   6.434  0.5739  0.1487  0.1111
   31SAPC  H11A 4106   3.597   4.620   6.459  0.3619 -1.3733 -0.0341
   31SAPC  H11B 4107   3.765   4.596   6.527  0.6627 -0.9979 -0.0893
   31SAPC     P 4108   3.841   4.384   6.382 -0.0986  0.1010  0.1916
   31SAPC   O13 4109   3.844   4.302   6.263  0.0806  0.2154 -0.2216
   31SAPC   O14 4110   3.966   4.460   6.402 -0.4633  0.1854  0.3726
   31SAPC   O12 4111   3.728   4.488   6.350  0.2830  0.3704 -0.6029
   31SAPC   O11 4112   3.792   4.304   6.510 -0.0987 -0.7671 -0.1743
   31SAPC    C1 4113   3.660   4.262   6.542  0.7809  0.4222 -0.8266
   31SAPC    HA 4114   3.588   4.258   6.457  0.9137  0.1507 -0.9271
   31SAPC    HB 4115   3.667   4.158   6.580  0.2218  0.7131  0.0973
   31SAPC    C2 4116   3.594   4.356   6.645  1.1067 -0.6278 -0.1590
   31SAPC    HS 4117   3.557   4.447   6.593  0.4574 -1.1081 -0.5358
   31SAPC   O21 4118   3.696   4.389   6.745  0.5208 -0.0220  0.0252
   31SAPC   C21 4119   3.700   4.513   6.792 -0.3313 -0.2079  0.1539
   31SAPC   O22 4120   3.621   4.605   6.772 -0.4559  0.5497 -0.1346
   31SAPC   C22 4121   3.828   4.524   6.870 -0.0848 -0.0985 -0.5363
   31SAPC   H2R 4122   3.832   4.446   6.949 -0.8793  0.0298 -0.3552
   31SAPC   H2S 4123   3.915   4.510   6.802  2.2257  3.5863  1.3176
   31SAPC    C3 4124   3.466   4.303   6.716  0.5500 -0.2854  0.5317
   31SAPC    HX 4125   3.501   4.207   6.761  0.6670 -0.1590  0.7112
   31SAPC    HY 4126   3.395   4.275   6.635  1.8641 -1.5398 -0.2319
   31SAPC   O31 4127   3.401   4.389   6.815 -0.1846  0.0799  0.0579
   31SAPC   C31 4128   3.326   4.487   6.758  0.5118  0.0984 -0.1114
   31SAPC   O32 4129   3.308   4.501   6.637  0.1419 -0.4765 -0.6781
   31SAPC   C32 4130   3.286   4.586   6.866  0.4650 -0.3076  0.3611
   31SAPC   H2X 4131   3.177   4.574   6.884  0.5613 -1.2661  0.3564
   31SAPC   H2Y 4132   3.296   4.687   6.821  0.9637 -0.7725 -0.6039
   31SAPC   C23 4133   3.862   4.663   6.942 -0.3671  0.1703 -0.1308
   31SAPC   H3R 4134   3.810   4.671   7.040 -0.1387 -2.1858  0.2327
   31SAPC   H3S 4135   3.832   4.746   6.875 -1.3673  0.8463  1.1141
   31SAPC   C24 4136   4.013   4.685   6.981 -0.1729 -0.0499 -0.7438
   31SAPC   H4R 4137   4.019   4.784   7.031 -1.8392 -0.5280  0.4895
   31SAPC   H4S 4138   4.068   4.689   6.884 -1.6495 -0.1418 -1.6302
   31SAPC   C25 4139   4.071   4.585   7.077  0.6464 -0.0416  0.7320
   31SAPC   H5R 4140   4.128   4.504   7.029  2.1715  0.3025  1.8861
   31SAPC   C26 4141   4.080   4.589   7.210 -0.6146 -0.2693 -0.2716
   31SAPC   H6R 4142   4.124   4.499   7.256  0.5884  0.9069  0.9854
   31SAPC   C27 4143   4.027   4.700   7.294  0.0414 -0.4756  0.3120
   31SAPC   H7R 4144   3.991   4.786   7.233 -0.0995 -0.7571 -0.0054
   31SAPC   H7S 4145   4.108   4.752   7.351 -0.8169  1.4464 -0.1340
   31SAPC   C28 4146   3.916   4.651   7.385 -0.1221  0.1095  0.0162
   31SAPC   H8R 4147   3.828   4.631   7.324  0.6631  0.7069 -1.3652
   31SAPC   C29 4148   3.922   4.626   7.518  0.5989 -0.2749  0.9077
   31SAPC   H9R 4149   3.825   4.603   7.566 -0.4412  2.3974  0.2533
   31SAPC  C210 4150   4.037   4.650   7.615  0.2846  1.1136  0.6431
   31SAPC  H10R 4151   4.010   4.724   7.694 -0.4072  0.8181  0.6873
   31SAPC  H10S 4152   4.121   4.700   7.563  1.5342 -0.8362  0.7069
   31SAPC  C211 4153   4.086   4.514   7.675  0.8384 -0.1039  0.8619
   31SAPC  H11R 4154   4.125   4.455   7.591  1.3837  1.5356 -0.0994
   31SAPC  C212 4155   4.104   4.480   7.801 -0.0587  0.1693  0.2990
   31SAPC  H12R 4156   4.146   4.379   7.814  2.3831  1.1220  0.2610
   31SAPC  C213 4157   4.069   4.569   7.921 -0.4453  0.4310 -0.6564
   31SAPC  H13R 4158   3.960   4.560   7.938 -0.2379 -4.7264 -0.5614
   31SAPC  H13S 4159   4.085   4.676   7.894 -1.6605  1.0865  0.9980
   31SAPC  C214 4160   4.143   4.547   8.052 -0.2618  0.5318  0.6883
   31SAPC  H14R 4161   4.213   4.463   8.062 -2.5315 -1.4553  0.6655
   31SAPC  C215 4162   4.129   4.627   8.166  0.6773 -0.2324  0.8417
   31SAPC  H15R 4163   4.183   4.598   8.258 -1.3480  0.6425  2.3817
   31SAPC  C216 4164   4.034   4.741   8.176  0.3072 -0.4051 -0.0587
   31SAPC  H16R 4165   3.978   4.755   8.082 -0.2311  0.1242  0.3387
   31SAPC  H16S 4166   4.089   4.837   8.186 -1.0137  0.3852 -0.2259
   31SAPC  C217 4167   3.920   4.731   8.287 -0.5994 -0.3504  0.1144
   31SAPC  H17R 4168   3.875   4.634   8.258  1.5554 -0.9898 -1.3672
   31SAPC  H17S 4169   3.845   4.811   8.274 -0.6287 -0.3932  0.0229
   31SAPC  C218 4170   3.974   4.708   8.426  0.2461  0.4683  0.0659
   31SAPC  H18R 4171   4.025   4.796   8.469 -1.4670  0.0999  3.1355
   31SAPC  H18S 4172   4.048   4.626   8.412 -1.8870 -1.5600  0.0374
   31SAPC  C219 4173   3.861   4.648   8.532  0.3882 -0.2237  0.4944
   31SAPC  H19R 4174   3.799   4.737   8.558 -0.6823 -0.7845 -0.1043
   31SAPC  H19S 4175   3.914   4.615   8.624  1.6640  1.1976  0.3236
   31SAPC  C220 4176   3.782   4.527   8.485  0.4162  0.0080 -0.1115
   31SAPC  H20R 4177   3.731   4.562   8.393  2.7625  0.7321 -1.2122
   31SAPC  H20S 4178   3.703   4.499   8.558 -1.0746  1.1216 -1.2409
   31SAPC  H20T 4179   3.840   4.439   8.450  0.5644  0.8282 -2.0686
   31SAPC   C33 4180   3.354   4.579   7.001  0.1210  0.9471  0.0601
   31SAPC   H3X 4181   3.464   4.596   7.009  0.1893 -0.1910  2.4128
   31SAPC   H3Y 4182   3.345   4.479   7.048  2.1547 -0.1279 -1.6579
   31SAPC   C34 4183   3.289   4.690   7.091  0.3609  0.3971  0.0562
   31SAPC   H4X 4184   3.179   4.682   7.080  0.1430 -1.3095  2.6657
   31SAPC   H4Y 4185   3.333   4.788   7.061  0.4981 -0.1181 -1.5079
   31SAPC   C35 4186   3.312   4.656   7.240 -0.1484  0.1005 -0.0120
   31SAPC   H5X 4187   3.416   4.673   7.276 -0.4328 -1.7937  1.9166
   31SAPC   H5Y 4188   3.296   4.547   7.255  1.8298 -0.2134  0.0932
   31SAPC   C36 4189   3.225   4.747   7.328 -0.0339 -0.7663  0.2273
   31SAPC   H6X 4190   3.123   4.712   7.300 -0.0162 -0.0410 -0.7920
   31SAPC   H6Y 4191   3.233   4.854   7.302 -0.8866 -0.8330 -0.3697
   31SAPC   C37 4192   3.245   4.715   7.478  0.4718  0.4404 -0.7009
   31SAPC   H7X 4193   3.348   4.728   7.518 -0.6936  1.6087  2.1565
   31SAPC   H7Y 4194   3.221   4.607   7.488  1.2540  0.2563 -0.7407
   31SAPC   C38 4195   3.148   4.797   7.565  0.2187 -0.2570  0.0368
   31SAPC   H8X 4196   3.045   4.804   7.525  0.4293  0.3140 -0.4218
   31SAPC   H8Y 4197   3.172   4.905   7.561  0.9777 -0.4408 -0.7119
   31SAPC   C39 4198   3.155   4.735   7.704 -0.4871 -0.1117  0.0236
   31SAPC   H9X 4199   3.264   4.740   7.724 -0.8277  0.7603  1.9141
   31SAPC   H9Y 4200   3.108   4.634   7.698 -0.3166 -0.1045 -1.9912
   31SAPC  C310 4201   3.082   4.818   7.815  0.7077  0.2617 -0.5674
   31SAPC  H10X 4202   2.973   4.798   7.811  0.5783  0.8118 -0.0756
   31SAPC  H10Y 4203   3.109   4.925   7.800 -0.0338  0.3548 -1.2838
   31SAPC  C311 4204   3.126   4.783   7.961 -0.2810 -0.5080 -0.2832
   31SAPC  H11X 4205   3.050   4.836   8.021 -0.0483  1.9753 -2.0082
   31SAPC  H11Y 4206   3.230   4.822   7.971 -0.0533 -1.1351 -0.1850
   31SAPC  C312 4207   3.124   4.631   7.993 -0.1175  0.0889  0.2570
   31SAPC  H12X 4208   3.199   4.575   7.933 -2.7661 -2.6848 -0.7376
   31SAPC  H12Y 4209   3.026   4.597   7.954  1.0449 -0.9026 -2.0463
   31SAPC  C313 4210   3.147   4.609   8.143 -0.6056 -0.9932 -0.8440
   31SAPC  H13X 4211   3.081   4.676   8.203  1.8941  2.0791 -1.2289
   31SAPC  H13Y 4212   3.252   4.632   8.171 -1.4271 -1.5131  3.3925
   31SAPC  C314 4213   3.115   4.470   8.196  0.2575 -0.0418  0.2838
   31SAPC  H14X 4214   3.163   4.392   8.133 -1.4677  0.2545 -1.4909
   31SAPC  H14Y 4215   3.006   4.451   8.203 -0.4324  3.3797  0.3083
   31SAPC  C315 4216   3.163   4.457   8.345  0.2655  0.4899  0.7523
   31SAPC  H15X 4217   3.119   4.534   8.412  0.4766  0.6120  0.7523
   31SAPC  H15Y 4218   3.273   4.469   8.355  0.4322 -1.3290  1.5183
   31SAPC  C316 4219   3.135   4.319   8.396  0.3483 -0.0454  0.0601
   31SAPC  H16X 4220   3.203   4.248   8.346 -1.1643 -0.6670 -1.2119
   31SAPC  H16Y 4221   3.031   4.289   8.369  1.4804 -2.0077 -2.4368
   31SAPC  C317 4222   3.145   4.317   8.544 -0.0393  0.8656 -0.5006
   31SAPC  H17X 4223   3.069   4.384   8.589 -0.4870 -0.2797  0.5097
   31SAPC  H17Y 4224   3.242   4.359   8.576 -0.6567  0.2684  2.4449
   31SAPC  C318 4225   3.137   4.172   8.608 -0.4477  0.2675  0.0318
   31SAPC  H18X 4226   3.033   4.134   8.595 -2.1247  4.1636  0.7454
   31SAPC  H18Y 4227   3.169   4.168   8.714  3.2621  0.7241 -0.9228
   31SAPC  H18Z 4228   3.202   4.110   8.542 -1.8412 -0.1820 -0.9697
   32SAPC     N 4229   5.282   4.429   5.649  0.2106 -0.0562  0.2608
   32SAPC   C12 4230   5.360   4.445   5.775  0.2731  0.3583 -0.4837
   32SAPC  H12A 4231   5.447   4.505   5.752  1.3453 -0.3031  1.6279
   32SAPC  H12B 4232   5.418   4.356   5.797  2.5875  0.7487 -4.0545
   32SAPC   C13 4233   5.200   4.549   5.617 -0.0691  0.0678 -0.1386
   32SAPC  H13A 4234   5.146   4.548   5.524  2.2595 -0.2712 -1.5531
   32SAPC  H13B 4235   5.129   4.585   5.691  1.2041  3.7193 -0.4879
   32SAPC  H13C 4236   5.265   4.635   5.607 -1.6027  1.2162 -0.6253
   32SAPC   C14 4237   5.378   4.425   5.534  0.2935  0.5910 -0.0874
   32SAPC  H14A 4238   5.436   4.513   5.511  1.5019 -0.4141 -0.9955
   32SAPC  H14B 4239   5.453   4.353   5.561 -1.2847 -1.3347 -0.5596
   32SAPC  H14C 4240   5.335   4.386   5.443  0.8361  1.8881 -0.9319
   32SAPC   C15 4241   5.197   4.304   5.644  0.2649  0.7500  0.0283
   32SAPC  H15A 4242   5.148   4.286   5.550  2.1998  3.4334 -1.6303
   32SAPC  H15B 4243   5.265   4.220   5.647  1.2629  1.5485  0.5031
   32SAPC  H15C 4244   5.139   4.292   5.735  0.1597  2.4502  0.2139
   32SAPC   C11 4245   5.282   4.499   5.904 -0.2293 -0.4246  0.1383
   32SAPC  H11A 4246   5.251   4.606   5.896  2.0157  0.3289  0.8899
   32SAPC  H11B 4247   5.357   4.508   5.985 -1.1821  0.0290  0.9986
   32SAPC     P 4248   5.182   4.287   6.031 -0.1595 -0.2447  0.1042
   32SAPC   O13 4249   5.054   4.211   6.025  0.5152 -0.2141 -0.0085
   32SAPC   O14 4250   5.309   4.213   5.998  0.5659  0.1674 -0.2538
   32SAPC   O12 4251   5.172   4.412   5.936 -1.0315 -0.1266 -0.0966
   32SAPC   O11 4252   5.197   4.353   6.176 -0.9073 -0.0985  0.3444
   32SAPC    C1 4253   5.079   4.426   6.217  0.4430 -0.1158  0.2105
   32SAPC    HA 4254   5.109   4.531   6.238 -2.1091  0.5146  0.9580
   32SAPC    HB 4255   4.998   4.432   6.141  0.5584 -0.1149  0.0852
   32SAPC    C2 4256   5.018   4.363   6.348  0.8818 -0.7754 -1.0244
   32SAPC    HS 4257   4.976   4.261   6.338  1.9657 -1.3163 -0.2775
   32SAPC   O21 4258   4.929   4.458   6.405 -0.3398 -0.1421 -0.3115
   32SAPC   C21 4259   4.815   4.410   6.470 -0.5115  0.3275 -0.0764
   32SAPC   O22 4260   4.792   4.291   6.479  0.2505 -0.2707 -0.5455
   32SAPC   C22 4261   4.725   4.516   6.528 -0.2929 -0.3534 -0.1472
   32SAPC   H2R 4262   4.623   4.477   6.507 -0.6342  0.1120  0.6168
   32SAPC   H2S 4263   4.749   4.501   6.635 -1.1296  0.4955  0.1770
   32SAPC    C3 4264   5.130   4.344   6.451  0.0834 -0.3653  0.7887
   32SAPC    HX 4265   5.182   4.442   6.445 -2.6362  1.1111 -0.4329
   32SAPC    HY 4266   5.199   4.268   6.409 -0.9612  0.0573 -1.9005
   32SAPC   O31 4267   5.086   4.322   6.589 -0.6206  0.3748  0.0852
   32SAPC   C31 4268   5.086   4.200   6.624  0.3047 -0.3795  0.0943
   32SAPC   O32 4269   5.108   4.100   6.561  0.4068 -0.1565  0.1645
   32SAPC   C32 4270   5.046   4.204   6.774 -0.2636  0.9141  0.4154
   32SAPC   H2X 4271   4.977   4.288   6.797 -1.5397  0.4196 -1.3281
   32SAPC   H2Y 4272   5.143   4.210   6.827  1.5989 -1.2912 -2.4181
   32SAPC   C23 4273   4.746   4.662   6.478 -0.1689  0.0365 -0.2778
   32SAPC   H3R 4274   4.655   4.723   6.501  0.3183  1.7716 -2.5954
   32SAPC   H3S 4275   4.751   4.668   6.367 -0.3831  1.0003 -0.2502
   32SAPC   C24 4276   4.869   4.734   6.546 -0.6480 -0.1510  0.0459
   32SAPC   H4R 4277   4.901   4.818   6.481 -0.2158 -2.1030 -2.4390
   32SAPC   H4S 4278   4.963   4.676   6.543  0.3239  1.3959 -1.0465
   32SAPC   C25 4279   4.837   4.796   6.689 -0.5334 -0.2363  0.0816
   32SAPC   H5R 4280   4.800   4.900   6.686 -1.9399 -0.7309 -0.6121
   32SAPC   C26 4281   4.851   4.740   6.808 -0.8546 -0.0520  0.1953
   32SAPC   H6R 4282   4.827   4.803   6.895 -2.3096 -1.9015  1.1836
   32SAPC   C27 4283   4.911   4.604   6.833  0.1700 -0.2494 -0.1428
   32SAPC   H7R 4284   4.971   4.561   6.750 -1.8678 -1.2339 -1.2077
   32SAPC   H7S 4285   4.823   4.537   6.819  0.8661 -1.2850  0.3482
   32SAPC   C28 4286   4.977   4.581   6.967  0.5934  0.1489 -0.2118
   32SAPC   H8R 4287   5.085   4.561   6.957  0.1425 -2.2963 -0.7876
   32SAPC   C29 4288   4.914   4.563   7.081  0.7462 -0.0716 -0.4172
   32SAPC   H9R 4289   4.976   4.542   7.169 -0.8155 -0.8857  0.5329
   32SAPC  C210 4290   4.768   4.567   7.109  0.4726 -0.7248 -0.1529
   32SAPC  H10R 4291   4.732   4.658   7.057 -0.1836 -0.2725  1.0653
   32SAPC  H10S 4292   4.747   4.587   7.216  2.0496  1.0212 -0.1237
   32SAPC  C211 4293   4.696   4.448   7.067 -0.2559  0.2912  0.4295
   32SAPC  H11R 4294   4.718   4.412   6.965 -0.8167 -0.3309  0.5303
   32SAPC  C212 4295   4.620   4.363   7.144  0.6635 -0.1670 -0.2903
   32SAPC  H12R 4296   4.572   4.278   7.095 -0.9085  0.6973 -0.3124
   32SAPC  C213 4297   4.576   4.384   7.288  0.0137 -0.4459 -0.0461
   32SAPC  H13R 4298   4.660   4.402   7.359 -2.0834 -0.3339  2.5759
   32SAPC  H13S 4299   4.534   4.286   7.320  0.3896 -0.7956 -0.5977
   32SAPC  C214 4300   4.455   4.473   7.310 -0.3170  0.5472 -0.4574
   32SAPC  H14R 4301   4.373   4.463   7.237 -1.4956 -1.9345  1.0565
   32SAPC  C215 4302   4.423   4.530   7.431  0.0078  0.0525  0.0208
   32SAPC  H15R 4303   4.338   4.599   7.429  1.9093  2.5685 -3.3516
   32SAPC  C216 4304   4.495   4.524   7.567 -0.2466 -0.4803 -0.2973
   32SAPC  H16R 4305   4.480   4.625   7.610 -0.1463 -0.1205 -1.1074
   32SAPC  H16S 4306   4.604   4.506   7.552 -0.4174 -0.8384 -1.1262
   32SAPC  C217 4307   4.449   4.412   7.665  0.4873 -0.4304 -0.0514
   32SAPC  H17R 4308   4.497   4.313   7.649  2.7089  0.4760  0.7429
   32SAPC  H17S 4309   4.340   4.389   7.664  0.6855 -1.3993 -0.2163
   32SAPC  C218 4310   4.472   4.462   7.808 -0.1053  0.3378  0.2550
   32SAPC  H18R 4311   4.388   4.531   7.829  0.0203  0.0353  1.8651
   32SAPC  H18S 4312   4.575   4.502   7.822  1.0757 -1.9981 -1.1465
   32SAPC  C219 4313   4.454   4.350   7.907  0.7016  0.5139 -1.0651
   32SAPC  H19R 4314   4.530   4.271   7.887  0.3472 -1.0411  2.8113
   32SAPC  H19S 4315   4.350   4.313   7.897  0.8289  0.2236 -1.2940
   32SAPC  C220 4316   4.480   4.403   8.051 -0.1603 -0.3581 -0.6830
   32SAPC  H20R 4317   4.451   4.319   8.117 -0.4868  0.1646 -0.1546
   32SAPC  H20S 4318   4.412   4.488   8.073 -0.7285 -1.1799  0.8649
   32SAPC  H20T 4319   4.589   4.419   8.061 -0.3752 -0.2203  2.2923
   32SAPC   C33 4320   4.983   4.068   6.824 -0.5252 -0.4103  0.2190
   32SAPC   H3X 4321   5.067   4.011   6.868  2.0854  1.2929 -2.2011
   32SAPC   H3Y 4322   4.940   4.010   6.740  1.3485  2.0706 -2.6491
   32SAPC   C34 4323   4.878   4.088   6.941  0.7367  0.1891  0.4124
   32SAPC   H4X 4324   4.786   4.119   6.887  2.0859  2.9893 -0.5135
   32SAPC   H4Y 4325   4.920   4.176   6.994 -0.7072  0.3546  1.3266
   32SAPC   C35 4326   4.855   3.968   7.039 -0.0010 -0.4073 -0.1008
   32SAPC   H5X 4327   4.950   3.942   7.091 -1.5914  0.2735  3.4749
   32SAPC   H5Y 4328   4.841   3.880   6.973  1.0088  0.4608 -1.5203
   32SAPC   C36 4329   4.739   4.002   7.130  0.6091 -0.5878 -0.6839
   32SAPC   H6X 4330   4.641   3.996   7.077  0.1831 -2.5292  0.2607
   32SAPC   H6Y 4331   4.746   4.108   7.164  0.4563 -0.9611  0.5720
   32SAPC   C37 4332   4.728   3.913   7.255  0.0944  0.1531  0.2184
   32SAPC   H7X 4333   4.824   3.912   7.310  0.0939 -0.1426  0.2157
   32SAPC   H7Y 4334   4.708   3.808   7.225  0.3168 -0.5448  2.3313
   32SAPC   C38 4335   4.627   3.974   7.348 -0.0095  0.1817 -0.5821
   32SAPC   H8X 4336   4.531   3.967   7.292  0.6546 -0.1090 -1.7044
   32SAPC   H8Y 4337   4.655   4.079   7.372 -0.9053  0.6307 -1.4514
   32SAPC   C39 4338   4.624   3.890   7.475  0.7491  0.0150  0.2347
   32SAPC   H9X 4339   4.725   3.848   7.494 -0.1026 -1.5750  1.4907
   32SAPC   H9Y 4340   4.550   3.809   7.457  0.6679 -0.3504  2.0848
   32SAPC  C310 4341   4.586   3.978   7.594 -0.3324  0.1357 -0.6201
   32SAPC  H10X 4342   4.499   4.043   7.570  0.0665  1.1683  0.5877
   32SAPC  H10Y 4343   4.677   4.039   7.613  1.5557 -2.2284 -1.5452
   32SAPC  C311 4344   4.552   3.899   7.724 -0.1303 -0.6724  0.0215
   32SAPC  H11X 4345   4.617   3.810   7.739  1.9814  0.8687  0.6117
   32SAPC  H11Y 4346   4.455   3.856   7.694 -1.0706 -0.9956  3.2068
   32SAPC  C312 4347   4.533   3.981   7.851  0.0088 -0.1803 -0.4093
   32SAPC  H12X 4348   4.452   4.054   7.828 -0.1971 -0.5374 -0.8367
   32SAPC  H12Y 4349   4.627   4.036   7.874 -1.3898  1.4960  1.8280
   32SAPC  C313 4350   4.485   3.902   7.971 -0.4555  0.4525  0.3007
   32SAPC  H13X 4351   4.555   3.815   7.974 -1.2834 -0.3608 -1.8741
   32SAPC  H13Y 4352   4.387   3.863   7.938  0.1315 -0.4741 -0.3952
   32SAPC  C314 4353   4.493   3.973   8.109 -0.5140 -0.6394  0.7240
   32SAPC  H14X 4354   4.451   4.074   8.090  1.4154 -0.2486 -2.1981
   32SAPC  H14Y 4355   4.602   3.990   8.120 -0.8023  1.8850  0.2397
   32SAPC  C315 4356   4.422   3.896   8.215  0.5282  0.5960 -0.3042
   32SAPC  H15X 4357   4.465   3.794   8.225 -1.2515 -0.4072 -1.9501
   32SAPC  H15Y 4358   4.317   3.881   8.182  0.2681  0.4836  0.5583
   32SAPC  C316 4359   4.436   3.964   8.353  0.0465 -0.4443  1.2908
   32SAPC  H16X 4360   4.361   4.040   8.382 -0.1262 -0.3792  0.6972
   32SAPC  H16Y 4361   4.537   4.009   8.365 -0.9195  1.8634  1.2627
   32SAPC  C317 4362   4.435   3.856   8.466  0.2449  0.5399  0.4383
   32SAPC  H17X 4363   4.519   3.786   8.451 -0.0261  0.5330 -1.1786
   32SAPC  H17Y 4364   4.339   3.802   8.450 -0.3001  2.1676 -2.5605
   32SAPC  C318 4365   4.440   3.904   8.617  0.0701 -0.3847 -0.0331
   32SAPC  H18X 4366   4.425   3.827   8.695  0.2801  0.8987  1.3239
   32SAPC  H18Y 4367   4.357   3.974   8.640 -1.5403 -2.2098 -0.1275
   32SAPC  H18Z 4368   4.539   3.952   8.635  0.4243 -0.8225 -0.7609
   33POPC     N 4369   1.572   5.925  10.736 -0.0865 -0.3320  0.5801
   33POPC   C12 4370   1.692   5.870  10.816  0.8032  0.5119 -0.6455
   33POPC  H12A 4371   1.702   5.763  10.800 -0.7888  0.1227  0.6809
   33POPC  H12B 4372   1.666   5.880  10.920 -0.1308 -0.5967 -0.7427
   33POPC   C13 4373   1.541   6.063  10.786  0.4239  0.2813 -0.2377
   33POPC  H13A 4374   1.622   6.134  10.780 -0.2649  0.9854 -2.5308
   33POPC  H13B 4375   1.450   6.107  10.747 -0.7149 -0.0381  1.8977
   33POPC  H13C 4376   1.511   6.047  10.888  1.7052 -0.9979 -0.0401
   33POPC   C14 4377   1.614   5.946  10.592 -0.5228  0.1468 -0.4150
   33POPC  H14A 4378   1.548   6.008  10.532 -0.4830  1.1962  0.5925
   33POPC  H14B 4379   1.707   6.002  10.592 -1.4390  1.7424 -1.0533
   33POPC  H14C 4380   1.615   5.854  10.536  2.3751 -0.5760  0.6668
   33POPC   C15 4381   1.450   5.837  10.749 -0.2277  0.2408  0.0511
   33POPC  H15A 4382   1.440   5.805  10.852  3.4452 -0.8729  0.1861
   33POPC  H15B 4383   1.476   5.745  10.700  1.4581  0.9273 -0.4182
   33POPC  H15C 4384   1.357   5.883  10.719  0.1453  0.7695 -0.3180
   33POPC   C11 4385   1.835   5.926  10.810 -0.6889 -0.7280  0.5073
   33POPC  H11A 4386   1.869   5.897  10.709 -1.4225  0.0078  0.0339
   33POPC  H11B 4387   1.897   5.883  10.891  0.4615 -0.7673 -0.3781
   33POPC     P 4388   1.922   6.161  10.728  0.2527  0.4857 -0.2379
   33POPC   O13 4389   1.962   6.279  10.810 -0.1406  0.1849  0.5091
   33POPC   O14 4390   1.856   6.174  10.601  0.0756  0.2515  0.1362
   33POPC   O12 4391   1.836   6.066  10.824 -0.4800  0.2860  0.0281
   33POPC   O11 4392   2.047   6.080  10.709  0.1777  0.5263  0.1705
   33POPC    C1 4393   2.152   6.136  10.626 -0.1675  0.7202  0.2226
   33POPC    HA 4394   2.164   6.247  10.626 -1.0924  0.8529  1.8250
   33POPC    HB 4395   2.249   6.109  10.673  0.6651  0.6663 -1.4826
   33POPC    C2 4396   2.151   6.092  10.471 -0.2987 -0.1143 -0.7173
   33POPC    HS 4397   2.060   6.140  10.430 -1.3137  0.5378  2.0601
   33POPC   O21 4398   2.156   5.946  10.469  0.1053 -0.3646 -0.1310
   33POPC   C21 4399   2.080   5.890  10.373 -0.5702 -0.4207 -0.5308
   33POPC   O22 4400   2.002   5.944  10.300 -0.5149  0.3042  0.1451
   33POPC   C22 4401   2.098   5.740  10.384  0.0541 -0.1643  0.4255
   33POPC   H2R 4402   2.124   5.714  10.489  1.0622  3.1976  1.1444
   33POPC   H2S 4403   2.193   5.722  10.329 -0.1972 -0.6490  0.1498
   33POPC    C3 4404   2.277   6.149  10.396  0.4029 -0.1234  0.5968
   33POPC    HX 4405   2.368   6.138  10.458  0.1902  0.8749  1.1129
   33POPC    HY 4406   2.265   6.259  10.385  0.9598 -0.3340 -4.0498
   33POPC   O31 4407   2.305   6.093  10.268  0.1612 -0.0309 -0.2657
   33POPC   C31 4408   2.225   6.132  10.165 -0.1678 -0.1485 -0.5055
   33POPC   O32 4409   2.129   6.204  10.175 -0.4023 -0.0257 -0.0494
   33POPC   C32 4410   2.265   6.052  10.037  0.2404  0.5262  0.1149
   33POPC   H2X 4411   2.221   5.953  10.059 -0.0435  0.4049 -0.9182
   33POPC   H2Y 4412   2.376   6.048  10.026  0.1290  0.2107 -1.0034
   33POPC   C23 4413   1.985   5.648  10.331 -0.0331  0.4235  0.0652
   33POPC   H3R 4414   1.891   5.695  10.368  0.3105 -0.2081  1.8346
   33POPC   H3S 4415   1.996   5.546  10.374  0.1987  0.4820  0.1420
   33POPC   C24 4416   1.984   5.609  10.184  0.0651 -0.3116  0.6806
   33POPC   H4R 4417   1.961   5.701  10.126 -1.9040 -0.7473  0.6820
   33POPC   H4S 4418   1.902   5.540  10.157 -0.0331  0.2401 -0.4868
   33POPC   C25 4419   2.113   5.551  10.135  0.7500  0.7309 -0.3390
   33POPC   H5R 4420   2.128   5.462  10.198 -0.7287 -1.3255 -2.6972
   33POPC   H5S 4421   2.195   5.626  10.143 -0.0777  1.6842 -0.6003
   33POPC   C26 4422   2.100   5.502   9.987  0.0900 -0.1974  0.7747
   33POPC   H6R 4423   2.043   5.407   9.986  1.6801 -1.1813  1.8280
   33POPC   H6S 4424   2.204   5.493   9.949 -0.7162 -1.0296 -1.3890
   33POPC   C27 4425   2.036   5.610   9.896  0.2554  0.0275 -0.5331
   33POPC   H7R 4426   2.109   5.693   9.909  1.5287 -0.9228 -1.4137
   33POPC   H7S 4427   1.933   5.634   9.931 -0.1895 -0.7115 -1.3108
   33POPC   C28 4428   2.024   5.558   9.749  0.1108  0.7018  0.6293
   33POPC   H8R 4429   1.965   5.631   9.689 -1.9567  0.7723  2.5953
   33POPC   H8S 4430   1.963   5.467   9.767  1.1359  0.1168  1.2402
   33POPC   C29 4431   2.158   5.535   9.682  0.1743 -0.1553  0.0333
   33POPC   H91 4432   2.232   5.520   9.762  0.4049  2.7933  0.4788
   33POPC  C210 4433   2.197   5.554   9.556  0.5474  0.3927  0.8961
   33POPC  H101 4434   2.303   5.535   9.534  0.7668  4.2777 -2.5648
   33POPC  C211 4435   2.107   5.607   9.443  0.0570 -0.1051 -0.9907
   33POPC  H11R 4436   2.084   5.713   9.467  1.1373 -0.1677  0.4493
   33POPC  H11S 4437   2.010   5.556   9.459  0.7165 -0.5138  2.3436
   33POPC  C212 4438   2.153   5.580   9.305  0.1562 -0.4937  0.5758
   33POPC  H12R 4439   2.179   5.472   9.300 -0.8078 -0.9449  3.3553
   33POPC  H12S 4440   2.251   5.621   9.274  0.4068 -2.9546 -2.4224
   33POPC  C213 4441   2.036   5.605   9.202 -0.2064  0.9547 -0.5812
   33POPC  H13R 4442   2.022   5.711   9.172  1.8265  1.1414 -1.0163
   33POPC  H13S 4443   1.940   5.578   9.251  0.7148  0.0698  0.8128
   33POPC  C214 4444   2.043   5.518   9.073 -0.1461  0.2533 -0.6527
   33POPC  H14R 4445   1.949   5.549   9.023  1.7652  2.5695 -3.1029
   33POPC  H14S 4446   2.053   5.412   9.106  2.6698 -0.4385 -3.2433
   33POPC  C215 4447   2.153   5.556   8.968  0.2332  0.5603  0.0383
   33POPC  H15R 4448   2.249   5.511   9.003 -0.3899 -1.3483 -0.5979
   33POPC  H15S 4449   2.170   5.666   8.980 -0.1866  0.4237  2.2945
   33POPC  C216 4450   2.124   5.525   8.826 -0.3589  0.1274  0.4136
   33POPC  H16R 4451   2.212   5.534   8.759 -0.0652 -0.8713  0.6601
   33POPC  H16S 4452   2.032   5.584   8.803 -1.7709 -0.8211  3.1749
   33POPC  C217 4453   2.089   5.373   8.823  0.0570 -0.4543 -0.0136
   33POPC  H17R 4454   2.008   5.349   8.896  1.4064  1.7265  2.3610
   33POPC  H17S 4455   2.189   5.337   8.854 -0.8725 -2.3788  0.9694
   33POPC  C218 4456   2.063   5.320   8.684  0.1770  0.5761 -0.2929
   33POPC  H18R 4457   2.022   5.216   8.686  2.3324 -0.3082  0.2918
   33POPC  H18S 4458   2.158   5.308   8.627 -0.7471  1.4610 -2.1109
   33POPC  H18T 4459   1.984   5.378   8.631 -0.9807 -1.6680 -1.1845
   33POPC   C33 4460   2.186   6.106   9.918 -0.8405 -0.0701 -0.2229
   33POPC   H3X 4461   2.201   6.213   9.892 -0.8702  0.3204  1.2673
   33POPC   H3Y 4462   2.078   6.104   9.944 -0.5972  3.5377  1.7661
   33POPC   C34 4463   2.214   6.014   9.796 -0.5538  0.6646  0.2363
   33POPC   H4X 4464   2.163   5.916   9.803 -0.3003  0.4011 -1.2321
   33POPC   H4Y 4465   2.324   6.011   9.782 -0.5550 -0.1722  0.3750
   33POPC   C35 4466   2.174   6.087   9.666 -0.9517 -0.0179  0.3556
   33POPC   H5X 4467   2.223   6.186   9.660 -1.6272  0.2544 -1.9693
   33POPC   H5Y 4468   2.066   6.114   9.664 -0.8796  0.2864  0.5137
   33POPC   C36 4469   2.214   6.006   9.548  0.1019  0.2997  0.1302
   33POPC   H6X 4470   2.157   5.912   9.564  3.0150 -1.5437  0.6043
   33POPC   H6Y 4471   2.319   5.970   9.555 -0.6563 -1.9616  0.6335
   33POPC   C37 4472   2.170   6.081   9.419  0.5780 -0.4607 -0.4206
   33POPC   H7X 4473   2.181   6.191   9.431  1.8780 -0.4628 -1.4472
   33POPC   H7Y 4474   2.060   6.070   9.432  0.4565  0.7052 -0.3688
   33POPC   C38 4475   2.223   6.010   9.299 -0.3319 -0.1198 -0.0900
   33POPC   H8X 4476   2.194   5.904   9.312 -2.9355  0.5834  0.4354
   33POPC   H8Y 4477   2.333   6.022   9.298 -0.2746 -0.6561 -0.6644
   33POPC   C39 4478   2.184   6.071   9.154  0.9040 -0.2397  0.1699
   33POPC   H9X 4479   2.236   6.005   9.082 -2.9736 -1.2606 -2.0258
   33POPC   H9Y 4480   2.225   6.173   9.170  3.4424 -1.4405  1.8233
   33POPC  C310 4481   2.036   6.066   9.124  0.2504  0.1918 -0.9786
   33POPC  H10X 4482   1.991   6.137   9.196  3.4476  1.4210 -0.0175
   33POPC  H10Y 4483   1.996   5.966   9.149  1.9781  0.4188  3.5764
   33POPC  C311 4484   2.002   6.124   8.987  0.7287 -0.1724  0.1943
   33POPC  H11X 4485   2.041   6.051   8.913 -0.0156 -1.8234  1.3717
   33POPC  H11Y 4486   2.040   6.228   8.981 -0.3106  0.1718 -0.8662
   33POPC  C312 4487   1.850   6.130   8.964  0.1715  0.4103 -0.5506
   33POPC  H12X 4488   1.812   6.199   9.042 -0.2596 -1.2773  0.8195
   33POPC  H12Y 4489   1.803   6.030   8.980 -1.9893  1.1267 -1.9173
   33POPC  C313 4490   1.821   6.166   8.815 -0.4562 -0.1251 -0.0015
   33POPC  H13X 4491   1.855   6.071   8.768 -0.5105  0.3439 -1.0051
   33POPC  H13Y 4492   1.881   6.248   8.770 -1.6938  0.7612 -0.0909
   33POPC  C314 4493   1.668   6.190   8.801 -0.8929  0.0418 -0.4364
   33POPC  H14X 4494   1.640   6.286   8.851 -0.6552  0.2729 -0.7454
   33POPC  H14Y 4495   1.617   6.107   8.855  0.2837 -0.3383  0.1293
   33POPC  C315 4496   1.623   6.191   8.656  0.0224 -0.4025  0.6764
   33POPC  H15X 4497   1.517   6.221   8.667  0.2130  0.8158 -0.5646
   33POPC  H15Y 4498   1.631   6.093   8.604 -1.3696 -0.0047 -0.3486
   33POPC  C316 4499   1.676   6.304   8.563  0.5552 -0.2023 -0.7792
   33POPC  H16X 4500   1.785   6.289   8.554  0.7832  1.5916 -1.5129
   33POPC  H16Y 4501   1.668   6.406   8.607 -0.4890  0.7984 -3.0843
   33POPC  H16Z 4502   1.629   6.312   8.463  0.4791  0.6996 -0.6834
   34POPC     N 4503   0.914   5.306  10.988 -0.6882  0.1727  0.4809
   34POPC   C12 4504   0.780   5.310  10.933  0.1766  0.6336 -0.2109
   34POPC  H12A 4505   0.761   5.411  10.901  0.7634 -0.3961 -4.3222
   34POPC  H12B 4506   0.701   5.290  11.004  0.0824  3.4673  0.6387
   34POPC   C13 4507   0.919   5.405  11.103 -0.3067 -0.4266  0.4926
   34POPC  H13A 4508   0.889   5.503  11.068 -2.5554 -1.6157 -1.1900
   34POPC  H13B 4509   0.847   5.375  11.178 -0.8185 -0.5129 -0.0221
   34POPC  H13C 4510   1.019   5.413  11.144 -0.9480  0.1098  2.0527
   34POPC   C14 4511   0.948   5.176  11.054 -0.4017 -0.5207  0.0162
   34POPC  H14A 4512   1.049   5.168  11.089  0.1992  4.6036  0.2372
   34POPC  H14B 4513   0.876   5.159  11.133  1.1771 -0.5829  1.5079
   34POPC  H14C 4514   0.925   5.092  10.991 -0.9288  0.4023 -1.0612
   34POPC   C15 4515   1.024   5.342  10.892 -0.0868 -0.3790  0.3185
   34POPC  H15A 4516   1.039   5.259  10.825  0.1405 -1.0311  1.1637
   34POPC  H15B 4517   1.115   5.367  10.946 -0.3159 -0.1668  0.6120
   34POPC  H15C 4518   0.997   5.429  10.833  0.6627  0.5565  1.3095
   34POPC   C11 4519   0.747   5.213  10.815 -0.3907  1.0141  0.3626
   34POPC  H11A 4520   0.802   5.253  10.727 -0.5989  2.5578  0.9105
   34POPC  H11B 4521   0.645   5.238  10.780 -1.3598 -1.0212  1.5992
   34POPC     P 4522   0.673   4.979  10.915  0.0944  0.1470 -0.3856
   34POPC   O13 4523   0.627   5.040  11.043  0.4225 -0.4926 -0.4448
   34POPC   O14 4524   0.737   4.849  10.930 -0.4776  0.5233 -0.2711
   34POPC   O12 4525   0.780   5.073  10.839 -0.1125  0.2236 -0.4530
   34POPC   O11 4526   0.544   4.968  10.815  0.1947 -0.0461  0.0459
   34POPC    C1 4527   0.565   4.875  10.704 -0.0703 -0.3792 -0.3382
   34POPC    HA 4528   0.464   4.846  10.668  0.1618 -0.3342 -1.0403
   34POPC    HB 4529   0.591   4.774  10.741 -0.0362  0.7514  3.0494
   34POPC    C2 4530   0.632   4.936  10.576  0.0701 -0.6483 -0.6628
   34POPC    HS 4531   0.725   4.991  10.602  1.1318 -2.5755 -0.1349
   34POPC   O21 4532   0.526   5.008  10.503 -0.1925  0.0050 -0.7529
   34POPC   C21 4533   0.560   5.119  10.451  0.7432 -0.1628  0.0210
   34POPC   O22 4534   0.666   5.181  10.450 -0.5063 -1.0791  0.3364
   34POPC   C22 4535   0.425   5.174  10.402  0.1924  0.5435 -0.7378
   34POPC   H2R 4536   0.432   5.272  10.351  0.2991  0.7589 -0.3174
   34POPC   H2S 4537   0.358   5.191  10.489  1.5579  1.5565  0.1496
   34POPC    C3 4538   0.690   4.819  10.488  0.0619  0.6432  0.0914
   34POPC    HX 4539   0.600   4.755  10.478  0.6488 -0.7886  2.8073
   34POPC    HY 4540   0.761   4.752  10.542  2.1266 -0.3126 -3.5090
   34POPC   O31 4541   0.736   4.877  10.361  0.1784 -0.0054 -0.0897
   34POPC   C31 4542   0.859   4.935  10.372  0.2779  0.1705  0.1725
   34POPC   O32 4543   0.916   4.931  10.481 -0.0853 -0.0165 -0.1687
   34POPC   C32 4544   0.917   5.001  10.246 -0.8059  0.3516  0.5117
   34POPC   H2X 4545   1.012   5.050  10.278  0.8846 -2.2523 -0.1904
   34POPC   H2Y 4546   0.840   5.074  10.214  0.4019  1.2043 -0.5911
   34POPC   C23 4547   0.359   5.084  10.287 -0.0407 -0.2371  0.5152
   34POPC   H3R 4548   0.257   5.124  10.269 -0.7043 -1.5693  1.1727
   34POPC   H3S 4549   0.346   4.981  10.329  0.8214 -0.5359  0.0680
   34POPC   C24 4550   0.445   5.072  10.161  0.3103  0.8779  1.2639
   34POPC   H4R 4551   0.543   5.021  10.175 -1.2313 -2.9266 -0.4540
   34POPC   H4S 4552   0.463   5.175  10.123 -1.2854  1.0291  0.8581
   34POPC   C25 4553   0.369   4.993  10.050 -0.1206  0.2432  0.0978
   34POPC   H5R 4554   0.319   4.899  10.082  1.2612 -1.1106 -1.5985
   34POPC   H5S 4555   0.440   4.950   9.977 -1.6539 -1.3790 -0.5112
   34POPC   C26 4556   0.264   5.076   9.981  0.2064 -0.6452 -0.1924
   34POPC   H6R 4557   0.325   5.150   9.924  1.2758 -0.1814  1.4863
   34POPC   H6S 4558   0.203   5.125  10.059  2.7312  2.8307 -0.1460
   34POPC   C27 4559   0.167   4.996   9.880 -0.1591  0.3810 -0.0908
   34POPC   H7R 4560   0.090   5.065   9.840 -0.6685 -0.5229 -0.7191
   34POPC   H7S 4561   0.122   4.912   9.937  0.3522  1.0579  1.3637
   34POPC   C28 4562   0.253   4.933   9.766 -0.3638 -0.1910  0.1791
   34POPC   H8R 4563   0.335   4.866   9.801  0.0258  0.6539  0.9197
   34POPC   H8S 4564   0.301   5.023   9.722 -0.5259  0.5134  1.3996
   34POPC   C29 4565   0.167   4.851   9.671 -0.1112 -0.6015  0.4709
   34POPC   H91 4566   0.114   4.767   9.718 -0.6985  0.3525  1.5441
   34POPC  C210 4567   0.148   4.876   9.537  0.4354  1.0344  0.2997
   34POPC  H101 4568   0.103   4.798   9.474 -0.7701 -1.6659  4.1033
   34POPC  C211 4569   0.213   4.995   9.457  0.5107 -0.1566 -0.0641
   34POPC  H11R 4570   0.293   5.041   9.518 -0.0449 -2.0838  2.2621
   34POPC  H11S 4571   0.131   5.068   9.440  0.7917  0.2273  0.2312
   34POPC  C212 4572   0.274   4.934   9.328  0.0950 -0.2119  0.9129
   34POPC  H12R 4573   0.187   4.893   9.271 -0.8947  1.8862  0.8005
   34POPC  H12S 4574   0.355   4.861   9.349  1.1397  0.2161 -1.3688
   34POPC  C213 4575   0.349   5.045   9.241 -0.1904  1.0019 -0.3008
   34POPC  H13R 4576   0.381   5.008   9.141 -0.6976  0.8636 -0.4139
   34POPC  H13S 4577   0.431   5.083   9.306  0.3060 -0.9386  0.2621
   34POPC  C214 4578   0.245   5.151   9.209 -1.0029 -0.3411  0.2208
   34POPC  H14R 4579   0.308   5.232   9.166  0.6032 -2.1543 -0.9802
   34POPC  H14S 4580   0.210   5.198   9.303  2.1943  0.0618  1.3325
   34POPC  C215 4581   0.145   5.100   9.103  0.4506  1.1523 -0.0276
   34POPC  H15R 4582   0.047   5.143   9.131 -0.7102 -1.3626  0.0708
   34POPC  H15S 4583   0.136   4.990   9.113 -0.4875  0.9405 -2.6200
   34POPC  C216 4584   0.178   5.139   8.957 -0.2183 -0.5517 -0.3127
   34POPC  H16R 4585   0.282   5.108   8.933 -0.6525 -2.0364 -0.3677
   34POPC  H16S 4586   0.173   5.250   8.951 -1.5852 -0.6165 -0.7906
   34POPC  C217 4587   0.075   5.083   8.859 -0.1659  0.0111 -0.2739
   34POPC  H17R 4588  -0.025   5.111   8.899  0.3636 -0.9405  1.8863
   34POPC  H17S 4589   0.085   4.973   8.866  0.2053 -0.1420 -2.4922
   34POPC  C218 4590   0.105   5.135   8.721 -0.5684 -0.1338 -0.8882
   34POPC  H18R 4591   0.026   5.087   8.660 -2.1381  0.5407  0.5244
   34POPC  H18S 4592   0.209   5.112   8.690 -0.2339 -1.6169  1.1219
   34POPC  H18T 4593   0.076   5.242   8.707 -1.0461 -0.2680 -0.9683
   34POPC   C33 4594   0.920   4.904  10.127 -0.3307 -0.2436  0.3090
   34POPC   H3X 4595   0.823   4.900  10.073 -0.6566  2.2839  0.5794
   34POPC   H3Y 4596   0.949   4.800  10.153  0.2516  0.6502  3.6214
   34POPC   C34 4597   1.032   4.952  10.035 -0.0551 -0.6468 -0.0531
   34POPC   H4X 4598   1.127   4.926  10.087  1.0910  0.8497 -1.2833
   34POPC   H4Y 4599   1.029   5.063  10.027  3.2367 -0.5378 -1.3080
   34POPC   C35 4600   1.026   4.888   9.896 -0.1117  0.4176  0.1966
   34POPC   H5X 4601   0.923   4.902   9.858 -0.6258  3.1584  2.2389
   34POPC   H5Y 4602   1.035   4.778   9.910 -0.4510  0.3699  0.0524
   34POPC   C36 4603   1.132   4.957   9.816 -0.0237  0.2627 -0.0814
   34POPC   H6X 4604   1.228   4.927   9.864 -1.5833 -0.9064  2.5770
   34POPC   H6Y 4605   1.116   5.066   9.808  2.5534  0.8197  1.1840
   34POPC   C37 4606   1.128   4.916   9.667  0.6052 -0.2329  0.4235
   34POPC   H7X 4607   1.050   4.959   9.602  1.1620 -0.9275 -0.7402
   34POPC   H7Y 4608   1.113   4.806   9.659 -2.0033  0.1008  0.1132
   34POPC   C38 4609   1.266   4.954   9.603  0.7365 -0.2635  0.5511
   34POPC   H8X 4610   1.340   4.951   9.685  0.8134  3.2663  0.7633
   34POPC   H8Y 4611   1.264   5.060   9.570  0.8444 -0.7798 -1.2415
   34POPC   C39 4612   1.317   4.874   9.478 -0.4247  0.2366 -0.9654
   34POPC   H9X 4613   1.319   4.766   9.502 -1.1590  0.1512 -1.2688
   34POPC   H9Y 4614   1.424   4.903   9.463 -0.4704  0.7005 -0.4170
   34POPC  C310 4615   1.227   4.895   9.354  0.7598  0.1764 -0.2094
   34POPC  H10X 4616   1.121   4.876   9.378  0.2298  1.7102 -1.2108
   34POPC  H10Y 4617   1.268   4.826   9.277  1.1935  1.0524 -0.7752
   34POPC  C311 4618   1.228   5.045   9.292 -0.0185  0.6093 -0.6608
   34POPC  H11X 4619   1.332   5.060   9.255 -0.1291  0.2337 -1.1371
   34POPC  H11Y 4620   1.197   5.116   9.370 -2.3085  1.1181 -1.9402
   34POPC  C312 4621   1.130   5.056   9.173  0.3821 -0.0611 -1.2575
   34POPC  H12X 4622   1.131   5.162   9.140 -1.4924 -0.0958 -1.4905
   34POPC  H12Y 4623   1.032   5.014   9.205  1.3900 -0.7177  1.2600
   34POPC  C313 4624   1.169   4.971   9.051 -0.2454 -0.3251  0.8319
   34POPC  H13X 4625   1.155   4.863   9.072  0.9639 -0.7432 -0.3428
   34POPC  H13Y 4626   1.274   4.999   9.027 -0.4566  0.7143  1.0500
   34POPC  C314 4627   1.085   5.020   8.929  0.1464  0.4881  0.7146
   34POPC  H14X 4628   1.121   5.121   8.898 -0.4816 -0.1374 -2.4171
   34POPC  H14Y 4629   0.981   5.029   8.965 -0.6192  2.6437 -1.7251
   34POPC  C315 4630   1.085   4.928   8.805  0.1218 -0.0353 -0.0482
   34POPC  H15X 4631   1.026   4.977   8.724 -0.4665  0.0592  0.4299
   34POPC  H15Y 4632   1.037   4.835   8.844 -1.3523  1.0398  0.8439
   34POPC  C316 4633   1.222   4.896   8.747 -0.6081  1.1199 -0.0708
   34POPC  H16X 4634   1.276   4.837   8.825 -0.8269  1.9849  0.7500
   34POPC  H16Y 4635   1.280   4.981   8.705  1.6863 -0.8966 -1.2695
   34POPC  H16Z 4636   1.199   4.824   8.665 -2.2007  2.2767 -0.6870
   35POPC     N 4637   0.004   3.776  11.362  0.9507  0.2439 -0.8802
   35POPC   C12 4638   0.025   3.725  11.222 -0.9116 -0.4678  1.0112
   35POPC  H12A 4639   0.117   3.669  11.218 -0.5744 -0.0298  2.1649
   35POPC  H12B 4640   0.060   3.806  11.159  1.7003 -0.4411  2.3747
   35POPC   C13 4641  -0.125   3.864  11.376  0.9352  0.3582  0.1008
   35POPC  H13A 4642  -0.211   3.813  11.334  0.0220  2.4624 -0.7147
   35POPC  H13B 4643  -0.134   3.900  11.477  0.5080  0.3685  0.0611
   35POPC  H13C 4644  -0.113   3.958  11.325  0.6371 -0.6647 -1.9616
   35POPC   C14 4645  -0.022   3.664  11.454 -0.1439 -0.4307  0.1522
   35POPC  H14A 4646  -0.063   3.702  11.547 -0.1251 -1.4433  0.5901
   35POPC  H14B 4647  -0.093   3.588  11.424  2.0419 -3.1037  1.3661
   35POPC  H14C 4648   0.073   3.622  11.484  0.7422  0.1890 -1.6564
   35POPC   C15 4649   0.118   3.856  11.408  0.9925  0.1325  0.6452
   35POPC  H15A 4650   0.131   3.952  11.360 -1.0561  0.0565 -0.1800
   35POPC  H15B 4651   0.210   3.801  11.398  0.7392 -0.0936 -0.6154
   35POPC  H15C 4652   0.113   3.889  11.510  2.4853  0.0516  0.7695
   35POPC   C11 4653  -0.079   3.639  11.149  0.4667 -0.5302  0.0077
   35POPC  H11A 4654  -0.060   3.640  11.039 -1.0292  0.7741 -0.2634
   35POPC  H11B 4655  -0.178   3.687  11.166 -0.0220 -1.5363  0.0729
   35POPC     P 4656   0.030   3.411  11.189 -0.1033 -0.0028  0.2307
   35POPC   O13 4657  -0.003   3.281  11.256 -0.1453 -0.2689  0.6408
   35POPC   O14 4658   0.155   3.471  11.245 -0.9950 -0.0281  0.2320
   35POPC   O12 4659  -0.087   3.506  11.203 -0.2907 -0.0722  0.3351
   35POPC   O11 4660   0.039   3.394  11.035  0.6160  0.2232  0.0964
   35POPC    C1 4661  -0.075   3.344  10.955 -0.1962  0.2623 -0.1389
   35POPC    HA 4662  -0.172   3.391  10.983 -0.5119  0.0487 -0.8707
   35POPC    HB 4663  -0.081   3.233  10.960  1.5180  0.2049  1.6892
   35POPC    C2 4664  -0.059   3.381  10.804  0.3423  0.1527  0.2549
   35POPC    HS 4665  -0.164   3.371  10.769  0.2878  0.9253  0.1786
   35POPC   O21 4666   0.039   3.286  10.747 -0.7752  0.0171  0.0679
   35POPC   C21 4667   0.004   3.220  10.638  0.6352  0.1847 -0.1816
   35POPC   O22 4668  -0.106   3.221  10.583 -0.2719 -0.0050  0.7182
   35POPC   C22 4669   0.128   3.159  10.577  0.6898  0.9899  0.9443
   35POPC   H2R 4670   0.165   3.096  10.660  2.2916  1.1740  0.4142
   35POPC   H2S 4671   0.210   3.233  10.564  1.6010 -0.2905 -1.2565
   35POPC    C3 4672  -0.015   3.522  10.775  0.4312 -0.8462  1.1602
   35POPC    HX 4673   0.095   3.525  10.790  0.3250 -0.0906  1.8742
   35POPC    HY 4674  -0.075   3.592  10.837  0.2601  1.7610 -1.7301
   35POPC   O31 4675  -0.047   3.552  10.633  0.4033  1.1529 -0.2981
   35POPC   C31 4676  -0.073   3.679  10.602  0.8526  0.0725 -0.2346
   35POPC   O32 4677  -0.057   3.773  10.674 -0.0351 -0.2890 -0.0030
   35POPC   C32 4678  -0.113   3.681  10.454 -0.3513  0.2895 -0.3360
   35POPC   H2X 4679  -0.150   3.579  10.429 -1.9352  1.0767 -1.3567
   35POPC   H2Y 4680  -0.028   3.700  10.385 -0.0584  0.0977 -0.0272
   35POPC   C23 4681   0.112   3.067  10.448 -0.2132 -0.0663  0.4052
   35POPC   H3R 4682   0.034   2.993  10.478 -1.0095  1.4445  2.2136
   35POPC   H3S 4683   0.208   3.014  10.426 -0.2725  0.5108 -1.4434
   35POPC   C24 4684   0.078   3.147  10.321 -0.0411  0.5533 -0.5276
   35POPC   H4R 4685   0.153   3.228  10.311 -0.0202  1.0367  2.4268
   35POPC   H4S 4686  -0.022   3.192  10.335 -0.1457  0.0542  0.4092
   35POPC   C25 4687   0.082   3.063  10.194  0.0953 -0.7846 -0.1317
   35POPC   H5R 4688  -0.010   3.001  10.188  0.1100 -0.6610 -2.9915
   35POPC   H5S 4689   0.175   3.003  10.190  0.4144 -0.2144 -2.0101
   35POPC   C26 4690   0.072   3.157  10.077  0.0655  0.1779  0.1518
   35POPC   H6R 4691   0.166   3.216  10.071  0.7133 -0.9766 -2.3741
   35POPC   H6S 4692  -0.000   3.240  10.094 -0.2653  0.3196 -1.7153
   35POPC   C27 4693   0.059   3.099   9.938 -0.1030 -0.1828  0.2759
   35POPC   H7R 4694   0.026   2.993   9.942 -1.6963  0.3347  1.4683
   35POPC   H7S 4695   0.158   3.107   9.887  2.0311  0.0074  4.0850
   35POPC   C28 4696  -0.053   3.173   9.852  0.8549 -0.6435 -0.3070
   35POPC   H8R 4697  -0.141   3.179   9.919  0.4424 -1.1913 -0.7923
   35POPC   H8S 4698  -0.083   3.109   9.766  0.6341 -0.1832 -0.5754
   35POPC   C29 4699  -0.010   3.314   9.824 -0.7870 -0.1072  0.1909
   35POPC   H91 4700   0.026   3.369   9.912  0.1424  0.8162 -0.7439
   35POPC  C210 4701  -0.010   3.366   9.696 -0.6294  0.3152  0.4960
   35POPC  H101 4702   0.035   3.466   9.693 -0.5498  0.3688  2.3340
   35POPC  C211 4703  -0.057   3.293   9.572  0.0179 -0.9793  0.1324
   35POPC  H11R 4704  -0.135   3.223   9.609  0.6146 -1.3776  0.6567
   35POPC  H11S 4705   0.032   3.238   9.535  2.1335  0.9348  2.0272
   35POPC  C212 4706  -0.111   3.386   9.461  0.3584 -0.9133 -0.6038
   35POPC  H12R 4707  -0.196   3.443   9.505  0.5947 -1.1911  0.2312
   35POPC  H12S 4708  -0.162   3.326   9.383  0.8992 -1.1272 -0.8009
   35POPC  C213 4709  -0.017   3.482   9.379  0.2863 -0.3620 -0.4722
   35POPC  H13R 4710   0.047   3.423   9.309  0.6762  1.1304 -1.4255
   35POPC  H13S 4711   0.049   3.535   9.451 -0.9985 -1.1574  1.3495
   35POPC  C214 4712  -0.098   3.574   9.292 -0.1150  0.1641 -0.1790
   35POPC  H14R 4713  -0.173   3.632   9.349 -2.1615 -0.7454 -1.8318
   35POPC  H14S 4714  -0.158   3.528   9.212  0.0485 -0.3675  0.0017
   35POPC  C215 4715  -0.014   3.680   9.216  0.4152 -0.3061 -0.9073
   35POPC  H15R 4716   0.082   3.638   9.180  0.4712 -0.1562 -0.9329
   35POPC  H15S 4717   0.012   3.764   9.284  4.0827 -2.5570  0.7083
   35POPC  C216 4718  -0.089   3.742   9.096  0.3871 -0.5023  0.1993
   35POPC  H16R 4719  -0.195   3.755   9.126  0.3780 -1.1959  0.4887
   35POPC  H16S 4720  -0.091   3.670   9.011  3.2904  0.1633 -0.5618
   35POPC  C217 4721  -0.037   3.879   9.046  0.7869 -0.4537  0.4844
   35POPC  H17R 4722   0.068   3.873   9.011  0.5189 -0.0786 -0.4472
   35POPC  H17S 4723  -0.039   3.962   9.119  0.3183  0.3960 -0.4597
   35POPC  C218 4724  -0.109   3.928   8.914  0.3027 -0.7942  0.7651
   35POPC  H18R 4725  -0.074   4.028   8.881  0.5182 -1.2923 -0.6008
   35POPC  H18S 4726  -0.220   3.934   8.922  0.4904  0.0227  3.6412
   35POPC  H18T 4727  -0.075   3.865   8.829  0.3583  2.0011 -1.4336
   35POPC   C33 4728  -0.226   3.784  10.425  0.3776 -0.0808 -0.7338
   35POPC   H3X 4729  -0.240   3.782  10.315 -2.0923  2.8310 -0.6338
   35POPC   H3Y 4730  -0.205   3.884  10.469  2.3627  0.6002 -3.0103
   35POPC   C34 4731  -0.362   3.749  10.483 -0.3641  0.6496  0.6337
   35POPC   H4X 4732  -0.357   3.762  10.594  2.3740 -3.3323  1.2100
   35POPC   H4Y 4733  -0.378   3.640  10.472 -0.4126  0.6403  0.7895
   35POPC   C35 4734  -0.481   3.820  10.421  0.1508  0.0037  0.3754
   35POPC   H5X 4735  -0.572   3.776  10.467  1.0493 -1.4195  0.8493
   35POPC   H5Y 4736  -0.483   3.803  10.312  0.8912  0.7918  0.2237
   35POPC   C36 4737  -0.481   3.973  10.442 -0.1919  0.3084 -0.7177
   35POPC   H6X 4738  -0.379   4.012  10.426 -0.2728  0.4069 -0.9870
   35POPC   H6Y 4739  -0.511   3.982  10.549  0.3970 -1.0395 -0.4155
   35POPC   C37 4740  -0.565   4.057  10.356  0.2690 -0.1162  0.5159
   35POPC   H7X 4741  -0.528   4.075  10.253 -1.7074  1.5802  0.0431
   35POPC   H7Y 4742  -0.565   4.159  10.400 -1.0465  0.1426 -0.0448
   35POPC   C38 4743  -0.706   4.005  10.351 -0.1662  0.1506  0.5978
   35POPC   H8X 4744  -0.746   3.990  10.453 -0.4687 -1.2849  0.2845
   35POPC   H8Y 4745  -0.700   3.900  10.316 -1.3353  0.4433 -0.5959
   35POPC   C39 4746  -0.811   4.089  10.273 -0.5943 -0.3087  0.0438
   35POPC   H9X 4747  -0.905   4.034  10.250 -0.5523 -0.1002 -0.6447
   35POPC   H9Y 4748  -0.772   4.102  10.170  1.3072 -0.2400  0.7304
   35POPC  C310 4749  -0.834   4.230  10.343  0.0331  0.4766 -0.2536
   35POPC  H10X 4750  -0.739   4.284  10.326  0.8876 -0.7316  0.4682
   35POPC  H10Y 4751  -0.850   4.212  10.452  1.4288 -0.5136 -0.1941
   35POPC  C311 4752  -0.943   4.329  10.289  0.5235  0.4715  0.5913
   35POPC  H11X 4753  -0.949   4.424  10.346  0.0371  0.7467  0.1011
   35POPC  H11Y 4754  -1.044   4.286  10.306  0.7466  0.5203  2.2020
   35POPC  C312 4755  -0.917   4.366  10.143 -0.1315  0.3771 -0.2904
   35POPC  H12X 4756  -0.913   4.277  10.076  0.4779 -0.9185  1.3943
   35POPC  H12Y 4757  -0.816   4.411  10.139 -1.1537  3.2493  2.1747
   35POPC  C313 4758  -1.018   4.468  10.080  0.0229  0.0330 -0.5328
   35POPC  H13X 4759  -0.995   4.570  10.117  0.7518 -1.1870  2.7512
   35POPC  H13Y 4760  -1.123   4.442  10.107  0.7083 -3.5408 -0.8893
   35POPC  C314 4761  -1.008   4.489   9.928  0.1638 -0.0653 -0.2578
   35POPC  H14X 4762  -1.063   4.577   9.890 -0.8492  0.2617  1.8096
   35POPC  H14Y 4763  -1.049   4.403   9.871 -2.7072  1.1981 -0.2728
   35POPC  C315 4764  -0.865   4.521   9.878 -0.2040 -0.7422  0.2343
   35POPC  H15X 4765  -0.807   4.427   9.889 -0.1413 -0.8875 -1.1244
   35POPC  H15Y 4766  -0.824   4.605   9.938  0.5617 -0.1748 -1.0525
   35POPC  C316 4767  -0.870   4.559   9.725  0.3969 -0.0445  0.0473
   35POPC  H16X 4768  -0.925   4.652   9.697  1.3529 -0.0672 -2.0491
   35POPC  H16Y 4769  -0.909   4.467   9.677 -0.5334  1.8201 -3.0466
   35POPC  H16Z 4770  -0.767   4.571   9.685  0.8730  0.3101  1.3266
   36POPC     N 4771   5.964   2.145  11.030  0.3115  0.2629 -0.0653
   36POPC   C12 4772   5.827   2.096  10.983 -0.3555 -0.5390 -0.1332
   36POPC  H12A 4773   5.838   1.989  10.975  1.8485 -0.6796  3.1309
   36POPC  H12B 4774   5.810   2.143  10.887  1.1823  1.3315  0.4499
   36POPC   C13 4775   5.993   2.086  11.158 -0.4669  0.4204  0.2693
   36POPC  H13A 4776   5.937   2.134  11.237 -1.3735 -0.2153  0.0325
   36POPC  H13B 4777   5.978   1.979  11.154  0.6593  0.2973 -1.6620
   36POPC  H13C 4778   6.095   2.108  11.186 -0.3393 -1.0477  1.0800
   36POPC   C14 4779   6.072   2.111  10.933 -0.4898 -0.4735 -0.6695
   36POPC  H14A 4780   6.062   2.006  10.911 -0.2783 -0.5655 -0.3330
   36POPC  H14B 4781   6.072   2.174  10.846  3.5021  0.2189 -0.3887
   36POPC  H14C 4782   6.170   2.122  10.978 -1.8765 -0.4446  2.6575
   36POPC   C15 4783   5.970   2.294  11.032 -0.5453 -0.6038 -0.1348
   36POPC  H15A 4784   5.889   2.345  11.081  0.5267  0.6421  0.3916
   36POPC  H15B 4785   5.992   2.341  10.937 -4.4203  0.4459 -0.7088
   36POPC  H15C 4786   6.045   2.320  11.105 -0.9963  1.4672 -0.3586
   36POPC   C11 4787   5.702   2.125  11.072  0.1941  0.0280  0.2483
   36POPC  H11A 4788   5.717   2.097  11.178  1.2464  0.2009  0.1536
   36POPC  H11B 4789   5.622   2.059  11.033 -0.1837 -0.8720  2.4291
   36POPC     P 4790   5.601   2.323  10.923 -0.4359 -0.2365 -0.0202
   36POPC   O13 4791   5.666   2.455  10.898  0.1654 -0.6914 -0.2304
   36POPC   O14 4792   5.456   2.319  10.935  0.2488  0.1568 -0.1905
   36POPC   O12 4793   5.668   2.268  11.056 -0.5884  0.2329  0.3319
   36POPC   O11 4794   5.648   2.225  10.813 -0.6844  0.0152  0.4844
   36POPC    C1 4795   5.614   2.265  10.672 -0.2416 -0.3743  0.4502
   36POPC    HA 4796   5.530   2.338  10.663 -0.7939 -0.7985  1.9340
   36POPC    HB 4797   5.564   2.186  10.613 -0.9504  0.6086 -0.3086
   36POPC    C2 4798   5.740   2.301  10.588  0.0128 -0.1228  1.3406
   36POPC    HS 4799   5.787   2.386  10.641 -1.3467  0.6519  1.3521
   36POPC   O21 4800   5.702   2.317  10.445  0.0820 -0.2601 -0.7456
   36POPC   C21 4801   5.651   2.436  10.424  0.2084 -0.3386  0.2332
   36POPC   O22 4802   5.641   2.531  10.499 -0.4050  0.3351 -0.3334
   36POPC   C22 4803   5.608   2.447  10.274  0.1656 -0.3027 -1.0394
   36POPC   H2R 4804   5.510   2.395  10.271  0.6149 -1.2649  0.1681
   36POPC   H2S 4805   5.676   2.377  10.220  1.6787 -1.2272  1.8470
   36POPC    C3 4806   5.851   2.193  10.585 -0.7831  0.0975  0.5318
   36POPC    HX 4807   5.817   2.105  10.528 -0.4804 -0.8267  1.7159
   36POPC    HY 4808   5.864   2.158  10.690 -0.4986 -3.0128 -0.4411
   36POPC   O31 4809   5.974   2.243  10.527 -0.2545  0.0207  0.6629
   36POPC   C31 4810   6.035   2.322  10.613  0.1815  0.3098  0.1135
   36POPC   O32 4811   6.013   2.334  10.732 -0.0481  0.3781  0.2001
   36POPC   C32 4812   6.134   2.413  10.535  0.0261 -0.7310  0.3219
   36POPC   H2X 4813   6.219   2.350  10.501  1.0755  0.5335  0.5565
   36POPC   H2Y 4814   6.174   2.495  10.598  0.6684 -1.0499  0.3331
   36POPC   C23 4815   5.589   2.593  10.218  0.3452  0.4300 -0.4936
   36POPC   H3R 4816   5.691   2.633  10.200  1.3272 -2.2298 -1.2660
   36POPC   H3S 4817   5.526   2.648  10.292 -1.6473 -1.9929 -0.2521
   36POPC   C24 4818   5.515   2.590  10.082  0.2650  0.3136  0.6221
   36POPC   H4R 4819   5.488   2.694  10.055  0.4228  0.7979  2.1902
   36POPC   H4S 4820   5.423   2.529  10.092  0.8282 -0.5730  0.5318
   36POPC   C25 4821   5.595   2.520   9.970  0.5543 -0.0550  0.3614
   36POPC   H5R 4822   5.606   2.412   9.993  0.7530 -0.0301  0.3774
   36POPC   H5S 4823   5.693   2.572   9.960  0.3906  0.3444  0.7986
   36POPC   C26 4824   5.533   2.525   9.828 -0.1462  0.5429 -0.0871
   36POPC   H6R 4825   5.491   2.624   9.800 -0.9404 -0.2305 -1.7664
   36POPC   H6S 4826   5.453   2.450   9.808  0.4068  0.5689 -2.7230
   36POPC   C27 4827   5.639   2.492   9.725 -0.2789 -1.4958 -0.4440
   36POPC   H7R 4828   5.677   2.389   9.748 -0.6109 -1.5323 -0.0561
   36POPC   H7S 4829   5.726   2.561   9.732 -2.2492  1.1787 -0.9231
   36POPC   C28 4830   5.594   2.495   9.580 -0.0236 -0.5475 -0.4215
   36POPC   H8R 4831   5.519   2.414   9.563 -2.3160  0.4384  3.6761
   36POPC   H8S 4832   5.689   2.475   9.526  0.2187  1.5854 -0.8693
   36POPC   C29 4833   5.550   2.630   9.532 -0.1938  1.0529  0.3352
   36POPC   H91 4834   5.620   2.713   9.546 -0.2783  1.2633 -0.4207
   36POPC  C210 4835   5.421   2.659   9.495  0.5598  0.1269  0.7148
   36POPC  H101 4836   5.397   2.765   9.476  0.1581 -0.3647 -1.9121
   36POPC  C211 4837   5.302   2.572   9.508  0.0119  0.8015 -0.3862
   36POPC  H11R 4838   5.325   2.488   9.577  0.0526  0.2740 -1.0387
   36POPC  H11S 4839   5.278   2.535   9.406 -0.6492 -0.5751  0.2392
   36POPC  C212 4840   5.188   2.648   9.571 -0.2010  0.3311 -0.5070
   36POPC  H12R 4841   5.204   2.647   9.681  3.5252  2.4861 -0.8836
   36POPC  H12S 4842   5.099   2.581   9.562 -0.5625  0.7921 -0.4250
   36POPC  C213 4843   5.136   2.781   9.514  0.1384  0.5110  0.6393
   36POPC  H13R 4844   5.216   2.855   9.536 -1.5448  2.2577  1.1713
   36POPC  H13S 4845   5.054   2.823   9.577 -2.3121 -0.1163 -1.9211
   36POPC  C214 4846   5.081   2.777   9.372 -0.1961 -0.1411 -0.4384
   36POPC  H14R 4847   5.003   2.699   9.361 -0.4835  0.2374 -1.1323
   36POPC  H14S 4848   5.155   2.761   9.290 -1.2095 -0.7608 -1.2561
   36POPC  C215 4849   5.013   2.912   9.324 -0.0572 -0.9238  0.1338
   36POPC  H15R 4850   5.077   3.003   9.336 -2.4168  0.6495  1.7476
   36POPC  H15S 4851   4.924   2.932   9.388  0.4376  2.1484  0.0160
   36POPC  C216 4852   4.968   2.905   9.178 -0.8728 -0.2275 -0.1541
   36POPC  H16R 4853   5.058   2.871   9.122 -0.3538 -1.9243  1.6220
   36POPC  H16S 4854   4.940   3.007   9.144 -0.7631 -0.1112  0.0956
   36POPC  C217 4855   4.851   2.818   9.142 -0.1403  0.6644  0.6317
   36POPC  H17R 4856   4.888   2.714   9.157 -0.3696  0.7435  1.7678
   36POPC  H17S 4857   4.815   2.833   9.038 -2.2279 -1.6747  0.9214
   36POPC  C218 4858   4.729   2.835   9.240 -0.6615  0.6428  0.3261
   36POPC  H18R 4859   4.752   2.783   9.335  1.0070  2.0532  0.7404
   36POPC  H18S 4860   4.636   2.788   9.199 -0.3248 -1.0376  1.3965
   36POPC  H18T 4861   4.712   2.943   9.260  0.3437  0.7185  0.8169
   36POPC   C33 4862   6.075   2.480  10.411 -0.1469 -0.6025 -0.3088
   36POPC   H3X 4863   5.973   2.518  10.434 -0.1237 -0.8325  0.1719
   36POPC   H3Y 4864   6.058   2.413  10.324  2.6334 -1.0425 -0.5827
   36POPC   C34 4865   6.167   2.587  10.346  0.0390  0.6977  0.1783
   36POPC   H4X 4866   6.247   2.535  10.291 -0.8855  0.0745 -0.6106
   36POPC   H4Y 4867   6.210   2.643  10.432  1.2518  0.7126 -0.4297
   36POPC   C35 4868   6.088   2.675  10.252 -0.7344 -0.3960 -0.1711
   36POPC   H5X 4869   6.158   2.759  10.229 -0.5415  0.0551  1.9118
   36POPC   H5Y 4870   5.998   2.725  10.293  1.0745  3.0077  0.0117
   36POPC   C36 4871   6.052   2.603  10.120  0.3063  0.2007  0.3750
   36POPC   H6X 4872   5.987   2.517  10.145  1.4586 -0.9233 -0.3755
   36POPC   H6Y 4873   6.151   2.557  10.098  0.6556  1.3565 -0.5706
   36POPC   C37 4874   5.992   2.693  10.009  0.0360 -0.2856 -0.3696
   36POPC   H7X 4875   6.054   2.786  10.006 -0.1432 -0.1344  0.4920
   36POPC   H7Y 4876   5.896   2.731  10.049  0.4935  0.2722  0.2146
   36POPC   C38 4877   5.997   2.633   9.872  0.1034 -0.1907  1.0700
   36POPC   H8X 4878   5.909   2.567   9.859  1.4989 -1.7404 -1.1157
   36POPC   H8Y 4879   6.096   2.592   9.843 -0.0881  1.4818 -2.4600
   36POPC   C39 4880   5.965   2.747   9.767  0.2002  0.9465 -0.6739
   36POPC   H9X 4881   6.028   2.839   9.764  0.3452  0.8858  0.2207
   36POPC   H9Y 4882   5.862   2.773   9.800  0.5521 -0.7048  1.9966
   36POPC  C310 4883   5.974   2.696   9.624  0.1995  0.7083  0.4072
   36POPC  H10X 4884   5.903   2.610   9.616  1.6241 -0.4720  0.0397
   36POPC  H10Y 4885   6.075   2.653   9.605 -0.1748  0.4273 -1.0872
   36POPC  C311 4886   5.910   2.788   9.512 -0.3448 -0.5061  0.2095
   36POPC  H11X 4887   5.973   2.878   9.492 -0.2975 -0.6937 -0.5084
   36POPC  H11Y 4888   5.809   2.817   9.548 -0.5981 -3.1929  1.8937
   36POPC  C312 4889   5.901   2.716   9.373 -0.5715  0.2128 -0.1149
   36POPC  H12X 4890   5.859   2.614   9.388 -0.1173  0.4043  3.6370
   36POPC  H12Y 4891   5.999   2.701   9.324  1.0056 -2.4319  3.3360
   36POPC  C313 4892   5.813   2.793   9.279  0.4439 -0.6632  0.2393
   36POPC  H13X 4893   5.866   2.887   9.251  0.2082 -0.7434 -0.4961
   36POPC  H13Y 4894   5.730   2.831   9.342  0.6857  0.8303 -0.2948
   36POPC  C314 4895   5.753   2.731   9.152  0.1620  0.3804  0.0415
   36POPC  H14X 4896   5.678   2.804   9.115 -0.5818 -1.4880 -2.3380
   36POPC  H14Y 4897   5.701   2.640   9.187  1.0422  0.3809  1.4285
   36POPC  C315 4898   5.850   2.714   9.035 -0.4717 -0.0480 -0.2410
   36POPC  H15X 4899   5.945   2.690   9.088 -0.1733 -1.4805 -1.3621
   36POPC  H15Y 4900   5.879   2.814   8.996 -0.1211  0.2699  0.7939
   36POPC  C316 4901   5.836   2.612   8.921  0.4060 -0.8896  0.0972
   36POPC  H16X 4902   5.728   2.613   8.897  0.4780 -0.5797 -0.2185
   36POPC  H16Y 4903   5.867   2.510   8.955  1.5708 -1.3212 -2.0730
   36POPC  H16Z 4904   5.906   2.640   8.839 -1.8056  1.0885 -1.2266
   37POPC     N 4905   6.578   6.130   6.363  0.3409  0.3211  0.3241
   37POPC   C12 4906   6.680   6.215   6.440  1.1800  0.4939  0.6326
   37POPC  H12A 4907   6.677   6.320   6.414  2.3267  0.3272 -0.2513
   37POPC  H12B 4908   6.778   6.180   6.412  0.5523 -0.9280  0.1152
   37POPC   C13 4909   6.444   6.135   6.422 -0.0133 -0.3600 -0.5141
   37POPC  H13A 4910   6.453   6.131   6.530  0.9053  2.0177 -0.4432
   37POPC  H13B 4911   6.401   6.233   6.406  1.0658  0.1454 -0.3950
   37POPC  H13C 4912   6.381   6.063   6.373 -1.2023 -1.9362  2.9860
   37POPC   C14 4913   6.571   6.175   6.219  0.7954 -0.3578  0.7216
   37POPC  H14A 4914   6.664   6.162   6.168  1.5905 -1.1069  2.2826
   37POPC  H14B 4915   6.491   6.123   6.168  1.3389  1.1499 -1.8184
   37POPC  H14C 4916   6.557   6.282   6.216  1.8422 -0.1721  1.8442
   37POPC   C15 4917   6.618   5.986   6.368 -0.3192  0.2916 -0.8617
   37POPC  H15A 4918   6.708   5.966   6.313  0.4937  0.9209  0.2069
   37POPC  H15B 4919   6.541   5.918   6.333  0.4545 -1.9237  1.4232
   37POPC  H15C 4920   6.627   5.946   6.469  2.1967 -0.1664 -1.1958
   37POPC   C11 4921   6.675   6.210   6.595 -0.7647  0.4496  0.2812
   37POPC  H11A 4922   6.581   6.253   6.635 -0.9740  2.4928 -2.1845
   37POPC  H11B 4923   6.762   6.267   6.633 -0.6923 -1.0298  2.5011
   37POPC     P 4924   6.821   6.016   6.695 -0.1871  0.0270  0.5367
   37POPC   O13 4925   6.936   6.066   6.610 -0.1721  0.2952  0.3610
   37POPC   O14 4926   6.808   5.867   6.695 -0.5129  0.2552 -0.1837
   37POPC   O12 4927   6.680   6.075   6.642 -0.4816  0.1490 -0.3301
   37POPC   O11 4928   6.831   6.063   6.841  0.0489  0.3634 -0.5436
   37POPC    C1 4929   6.940   6.142   6.888 -0.1515  0.4234  0.1049
   37POPC    HA 4930   6.956   6.240   6.838  0.8258  0.5092  0.5667
   37POPC    HB 4931   7.033   6.081   6.883  0.2764  0.8407  1.9475
   37POPC    C2 4932   6.931   6.156   7.039  0.2140 -0.1019 -0.4837
   37POPC    HS 4933   6.896   6.057   7.074  2.6671 -0.9345 -0.1713
   37POPC   O21 4934   6.843   6.267   7.076  0.1707  0.0135  0.4236
   37POPC   C21 4935   6.719   6.230   7.097  0.0259 -0.2234 -0.4117
   37POPC   O22 4936   6.673   6.119   7.098 -0.4482 -0.1894 -0.3097
   37POPC   C22 4937   6.623   6.346   7.133  0.1251 -0.3558  0.3270
   37POPC   H2R 4938   6.527   6.290   7.130  1.0679 -2.2091  2.0387
   37POPC   H2S 4939   6.620   6.417   7.047 -1.7468  0.3607  0.9460
   37POPC    C3 4940   7.067   6.183   7.112  0.1616  0.0290 -0.3951
   37POPC    HX 4941   7.100   6.286   7.086  0.3046 -0.3259 -1.6918
   37POPC    HY 4942   7.144   6.115   7.070 -0.4436  0.7587 -2.8228
   37POPC   O31 4943   7.046   6.186   7.255  0.1359  0.2644 -0.5775
   37POPC   C31 4944   7.038   6.064   7.316  0.2470 -0.5895  0.8318
   37POPC   O32 4945   7.062   5.957   7.268 -0.1743 -0.2862  0.2551
   37POPC   C32 4946   6.998   6.085   7.454  0.4154  0.1395 -1.0779
   37POPC   H2X 4947   7.055   6.174   7.489 -0.7162  0.5882 -0.2871
   37POPC   H2Y 4948   7.021   5.996   7.516  0.7720 -0.0699 -1.5068
   37POPC   C23 4949   6.644   6.415   7.274  0.0650 -1.1002 -0.1541
   37POPC   H3R 4950   6.721   6.495   7.276 -0.6977 -0.3229 -0.6281
   37POPC   H3S 4951   6.661   6.329   7.342 -0.2812  0.6788  2.3235
   37POPC   C24 4952   6.521   6.485   7.331  0.5206  1.4968  0.3836
   37POPC   H4R 4953   6.434   6.415   7.336  2.6290 -1.3686 -0.4346
   37POPC   H4S 4954   6.498   6.570   7.264  1.4558  2.0480  0.7531
   37POPC   C25 4955   6.545   6.536   7.468  0.1026  0.0282 -0.1274
   37POPC   H5R 4956   6.628   6.609   7.475  1.7699 -1.4465 -2.7460
   37POPC   H5S 4957   6.584   6.450   7.527 -0.2548 -0.0569 -0.0144
   37POPC   C26 4958   6.414   6.590   7.532 -1.0557 -0.6927 -0.8166
   37POPC   H6R 4959   6.330   6.517   7.524 -1.0731 -0.8598  0.6524
   37POPC   H6S 4960   6.397   6.686   7.480  0.1255  0.2610  0.4786
   37POPC   C27 4961   6.428   6.626   7.684 -0.6551  0.3415 -0.4486
   37POPC   H7R 4962   6.524   6.676   7.705 -1.6335  0.7498  4.0948
   37POPC   H7S 4963   6.425   6.533   7.745 -2.6267  0.7805  0.1961
   37POPC   C28 4964   6.326   6.730   7.730  0.7308  0.5245 -0.1932
   37POPC   H8R 4965   6.226   6.683   7.734  0.9489  0.1036  2.4857
   37POPC   H8S 4966   6.317   6.816   7.660  1.0900  2.2196  1.7505
   37POPC   C29 4967   6.366   6.765   7.866 -0.8041  0.0992 -0.0917
   37POPC   H91 4968   6.426   6.856   7.853 -0.7297  0.2519  1.2142
   37POPC  C210 4969   6.346   6.714   7.987  0.3238  0.5349 -0.1824
   37POPC  H101 4970   6.382   6.760   8.080  1.3454 -2.4350  1.0245
   37POPC  C211 4971   6.270   6.589   8.021 -0.4768 -0.4724 -0.4149
   37POPC  H11R 4972   6.218   6.544   7.934 -0.0133 -0.4331 -0.7201
   37POPC  H11S 4973   6.195   6.621   8.096  1.0036  2.8170 -0.1403
   37POPC  C212 4974   6.360   6.481   8.070  0.2518  0.0941  0.2534
   37POPC  H12R 4975   6.434   6.462   7.990 -1.4257  0.3040 -1.4372
   37POPC  H12S 4976   6.297   6.391   8.090  0.6148 -0.3277 -0.4375
   37POPC  C213 4977   6.431   6.498   8.199 -0.8201 -0.4604  0.1749
   37POPC  H13R 4978   6.357   6.522   8.278  0.6537 -2.4179  2.3121
   37POPC  H13S 4979   6.501   6.584   8.190 -0.1190 -1.0027  0.3232
   37POPC  C214 4980   6.506   6.371   8.251  0.1468 -0.6854  0.2333
   37POPC  H14R 4981   6.613   6.398   8.262 -0.0981 -0.0021  1.0611
   37POPC  H14S 4982   6.505   6.294   8.171 -1.7427 -0.8451  0.3660
   37POPC  C215 4983   6.453   6.302   8.378  0.5315 -0.2769  0.3466
   37POPC  H15R 4984   6.344   6.315   8.395  0.5060  0.4514 -0.3202
   37POPC  H15S 4985   6.495   6.358   8.464 -0.5354  0.8868  0.1421
   37POPC  C216 4986   6.502   6.164   8.402 -0.5003  0.2827 -0.2327
   37POPC  H16R 4987   6.612   6.167   8.387 -0.6695  1.7680 -1.3917
   37POPC  H16S 4988   6.464   6.092   8.327 -1.4252 -2.3232  2.5070
   37POPC  C217 4989   6.461   6.101   8.535 -0.2711  0.2797  0.3645
   37POPC  H17R 4990   6.483   5.992   8.533 -3.3085 -0.4622 -2.2978
   37POPC  H17S 4991   6.350   6.107   8.532 -0.2495  0.3939 -0.3831
   37POPC  C218 4992   6.512   6.169   8.655 -0.6553 -0.2660 -0.8634
   37POPC  H18R 4993   6.622   6.183   8.649 -0.8801  1.7003 -1.1061
   37POPC  H18S 4994   6.492   6.113   8.750 -1.3862  0.6627 -0.4497
   37POPC  H18T 4995   6.467   6.270   8.669  2.1338  0.9067  0.3989
   37POPC   C33 4996   6.842   6.106   7.451 -0.5726 -0.6287  0.4743
   37POPC   H3X 4997   6.791   6.020   7.403  1.6555 -0.7521 -1.9211
   37POPC   H3Y 4998   6.812   6.195   7.391  0.0595 -2.5047 -2.9183
   37POPC   C34 4999   6.770   6.112   7.585  0.2060  0.6426 -0.5721
   37POPC   H4X 5000   6.731   6.018   7.628 -1.3899  1.1591 -0.8199
   37POPC   H4Y 5001   6.677   6.165   7.556 -1.0553 -2.6500 -3.2030
   37POPC   C35 5002   6.854   6.195   7.689  0.1705 -0.5703  0.6114
   37POPC   H5X 5003   6.896   6.284   7.638  0.5538  0.3430  2.4411
   37POPC   H5Y 5004   6.939   6.133   7.726  1.9422  1.2987 -0.1170
   37POPC   C36 5005   6.778   6.262   7.803  0.0622  0.4133  0.0925
   37POPC   H6X 5006   6.686   6.311   7.764  1.0965  1.0298 -1.6726
   37POPC   H6Y 5007   6.846   6.340   7.841  0.9452 -0.5683  0.5725
   37POPC   C37 5008   6.736   6.170   7.908 -0.3209 -0.4250  0.0193
   37POPC   H7X 5009   6.690   6.078   7.866  0.3541 -1.0145  0.5426
   37POPC   H7Y 5010   6.660   6.222   7.969  0.6933  0.3400  0.6636
   37POPC   C38 5011   6.835   6.126   8.013  0.3405  0.4232  0.0052
   37POPC   H8X 5012   6.919   6.072   7.964  0.4250 -0.4081  1.0376
   37POPC   H8Y 5013   6.800   6.050   8.086  0.7166  0.4823  0.2490
   37POPC   C39 5014   6.898   6.237   8.096 -0.1664 -0.5210  0.1900
   37POPC   H9X 5015   6.821   6.304   8.140 -0.5837 -0.5078 -0.5310
   37POPC   H9Y 5016   6.947   6.303   8.020  1.4927 -0.8564  0.9275
   37POPC  C310 5017   7.002   6.197   8.210  0.1341 -0.3423  0.2259
   37POPC  H10X 5018   7.060   6.289   8.231  0.7167 -1.1355  2.2682
   37POPC  H10Y 5019   7.082   6.136   8.164 -1.2504 -1.1321 -1.2506
   37POPC  C311 5020   6.943   6.132   8.330 -0.0128 -0.1901 -0.3767
   37POPC  H11X 5021   7.014   6.080   8.398 -0.6059 -0.7007 -0.1297
   37POPC  H11Y 5022   6.882   6.047   8.291 -1.6271 -0.0936  1.7190
   37POPC  C312 5023   6.852   6.216   8.414 -0.3063  0.0212  0.2412
   37POPC  H12X 5024   6.798   6.156   8.490  0.8291 -0.9637  0.3043
   37POPC  H12Y 5025   6.779   6.252   8.339  0.9644  0.1411 -0.9805
   37POPC  C313 5026   6.933   6.339   8.468 -0.1734 -1.0392 -0.2439
   37POPC  H13X 5027   6.945   6.415   8.388 -0.1810  0.2726  0.9774
   37POPC  H13Y 5028   7.035   6.301   8.493 -0.0584 -1.4039 -1.1937
   37POPC  C314 5029   6.873   6.386   8.597 -0.0947 -0.1540 -0.8493
   37POPC  H14X 5030   6.841   6.296   8.654 -2.4334  0.4949 -1.0155
   37POPC  H14Y 5031   6.779   6.442   8.576 -0.0455  0.9899  1.6119
   37POPC  C315 5032   6.959   6.477   8.689 -0.7914 -0.1148 -0.6558
   37POPC  H15X 5033   6.894   6.546   8.746 -0.3707 -0.6662  0.5444
   37POPC  H15Y 5034   7.015   6.540   8.617  1.9978 -2.5066 -0.7648
   37POPC  C316 5035   7.054   6.391   8.778  0.6586 -0.5113 -0.1683
   37POPC  H16X 5036   6.990   6.330   8.846  1.0132 -0.0884  0.5580
   37POPC  H16Y 5037   7.117   6.459   8.839 -2.7671  1.2619  1.6951
   37POPC  H16Z 5038   7.106   6.310   8.723  1.3568 -0.7003  0.7372
   38POPC     N 5039   0.053   4.123   6.507  0.1622  0.2564 -0.0135
   38POPC   C12 5040   0.033   4.033   6.379 -0.1636  0.1812 -0.7691
   38POPC  H12A 5041   0.060   4.091   6.293  2.3262 -1.8183 -1.4705
   38POPC  H12B 5042  -0.069   3.999   6.368 -1.2943  3.1260 -0.1947
   38POPC   C13 5043   0.203   4.156   6.532  0.1032 -1.0267  0.2781
   38POPC  H13A 5044   0.256   4.072   6.575  0.7703 -0.8776 -0.2318
   38POPC  H13B 5045   0.257   4.189   6.444  1.7330 -2.0938  0.8358
   38POPC  H13C 5046   0.211   4.229   6.610 -0.3136 -2.2588  1.5133
   38POPC   C14 5047  -0.023   4.246   6.502 -0.3937 -0.6424  0.2900
   38POPC  H14A 5048  -0.128   4.229   6.515 -0.6599  0.6601 -0.0296
   38POPC  H14B 5049  -0.003   4.314   6.583 -0.2295  0.6611 -0.8101
   38POPC  H14C 5050   0.010   4.305   6.418 -0.4685  0.8096  1.2519
   38POPC   C15 5051   0.015   4.042   6.629  0.6240  0.4483  0.2911
   38POPC  H15A 5052  -0.089   4.014   6.632  0.8825 -0.4684  3.0042
   38POPC  H15B 5053   0.036   4.092   6.722  0.9385  0.9694 -0.0538
   38POPC  H15C 5054   0.072   3.950   6.629 -3.0591 -2.0569  2.3526
   38POPC   C11 5055   0.122   3.914   6.356 -0.4265  0.8824 -0.4617
   38POPC  H11A 5056   0.225   3.943   6.383  0.6589 -1.1380 -2.1722
   38POPC  H11B 5057   0.120   3.878   6.251 -2.0888 -1.4304  0.2654
   38POPC     P 5058   0.187   3.674   6.461 -0.4953 -0.4104 -0.2375
   38POPC   O13 5059   0.201   3.621   6.328  0.4735  0.1415  0.2532
   38POPC   O14 5060   0.132   3.588   6.567 -0.2934  0.5129  0.2378
   38POPC   O12 5061   0.091   3.804   6.448 -0.3237  0.8381 -0.1708
   38POPC   O11 5062   0.319   3.729   6.509 -0.1244  0.0812 -0.3858
   38POPC    C1 5063   0.440   3.649   6.480  0.0470 -0.6515 -0.6468
   38POPC    HA 5064   0.522   3.718   6.510 -1.4610  1.1892 -0.6302
   38POPC    HB 5065   0.455   3.626   6.372 -0.4026 -1.2960 -0.5773
   38POPC    C2 5066   0.443   3.515   6.557 -0.1463 -0.3643 -0.1721
   38POPC    HS 5067   0.363   3.446   6.523 -0.6872 -0.4592  1.2314
   38POPC   O21 5068   0.423   3.543   6.695 -0.8980  0.0595 -0.4660
   38POPC   C21 5069   0.396   3.440   6.767  0.0159 -0.4900  0.0372
   38POPC   O22 5070   0.359   3.332   6.736 -0.5829  0.1705  0.0230
   38POPC   C22 5071   0.406   3.491   6.906 -0.5495 -0.7390  0.0540
   38POPC   H2R 5072   0.337   3.578   6.908 -0.5107 -0.7178  0.6798
   38POPC   H2S 5073   0.510   3.525   6.925 -1.3004  2.6840 -1.2869
   38POPC    C3 5074   0.578   3.439   6.534 -0.0344 -0.1700 -0.2635
   38POPC    HX 5075   0.577   3.428   6.423 -2.5961  0.0708 -0.3206
   38POPC    HY 5076   0.566   3.333   6.568 -3.0596  0.1005 -0.2924
   38POPC   O31 5077   0.695   3.514   6.573 -0.5340  0.3503  0.5036
   38POPC   C31 5078   0.798   3.430   6.555  0.2439 -1.3439  0.1136
   38POPC   O32 5079   0.790   3.317   6.506 -0.8802  0.4752  0.4312
   38POPC   C32 5080   0.919   3.493   6.630  0.3854  0.1674 -0.4577
   38POPC   H2X 5081   0.904   3.460   6.735 -1.5483 -1.1732 -1.1188
   38POPC   H2Y 5082   0.895   3.601   6.645 -2.9055 -0.4121 -0.9004
   38POPC   C23 5083   0.357   3.383   7.006 -0.0147  0.4818 -0.6549
   38POPC   H3R 5084   0.409   3.284   7.000 -3.3556 -1.5665  1.0487
   38POPC   H3S 5085   0.250   3.360   6.985  0.1819  0.9114 -2.2719
   38POPC   C24 5086   0.350   3.433   7.152  0.3968  0.5349 -0.2311
   38POPC   H4R 5087   0.293   3.528   7.150  0.2665  0.4747  0.3455
   38POPC   H4S 5088   0.454   3.436   7.192  0.0503 -0.5025  0.8046
   38POPC   C25 5089   0.272   3.331   7.242  0.4808  0.8219 -0.4081
   38POPC   H5R 5090   0.303   3.226   7.224 -0.1800  1.0021 -2.9127
   38POPC   H5S 5091   0.164   3.338   7.218 -0.2062  2.1035  2.6507
   38POPC   C26 5092   0.274   3.371   7.389  0.2250  0.1578  0.5226
   38POPC   H6R 5093   0.193   3.309   7.433  1.8189 -1.4348  1.3488
   38POPC   H6S 5094   0.242   3.476   7.403 -0.3275  0.0415  0.1494
   38POPC   C27 5095   0.398   3.329   7.456 -0.3022  0.5025 -0.4161
   38POPC   H7R 5096   0.478   3.362   7.387 -1.0937 -0.2314 -1.7314
   38POPC   H7S 5097   0.403   3.219   7.469  1.1648  0.4587 -1.1685
   38POPC   C28 5098   0.428   3.393   7.590  0.4655 -0.1579  0.4714
   38POPC   H8R 5099   0.350   3.370   7.665  0.0579 -1.9393 -0.4557
   38POPC   H8S 5100   0.431   3.502   7.569 -0.3344 -0.2178  0.0205
   38POPC   C29 5101   0.554   3.336   7.642 -0.3974 -0.6185 -0.2999
   38POPC   H91 5102   0.636   3.351   7.571 -0.3207  0.1104 -0.0630
   38POPC  C210 5103   0.587   3.273   7.759 -0.2114 -0.4420 -0.0497
   38POPC  H101 5104   0.689   3.239   7.781 -0.2552 -0.4165  0.2024
   38POPC  C211 5105   0.494   3.255   7.866  0.1438  0.5921 -0.1328
   38POPC  H11R 5106   0.427   3.169   7.846  1.6060 -0.5575 -0.2242
   38POPC  H11S 5107   0.426   3.342   7.877 -1.4803 -0.5760 -0.5737
   38POPC  C212 5108   0.557   3.246   8.012  0.5246 -0.1624  0.2247
   38POPC  H12R 5109   0.617   3.338   8.025  0.2031  0.0170  0.4696
   38POPC  H12S 5110   0.629   3.162   8.025 -1.4797 -2.0611 -0.2281
   38POPC  C213 5111   0.443   3.243   8.117  0.2955 -0.5630 -0.6081
   38POPC  H13R 5112   0.413   3.137   8.133  0.1234 -0.3733  0.3853
   38POPC  H13S 5113   0.358   3.305   8.082  0.3252 -0.7864 -1.0786
   38POPC  C214 5114   0.478   3.280   8.261  0.7295  0.3500  0.0159
   38POPC  H14R 5115   0.565   3.349   8.258  2.3364 -1.6164 -1.5695
   38POPC  H14S 5116   0.524   3.191   8.310  1.5741  0.9158  0.2676
   38POPC  C215 5117   0.356   3.326   8.346  0.2805  0.2589  0.4128
   38POPC  H15R 5118   0.264   3.274   8.311  0.2647  1.2109 -1.0231
   38POPC  H15S 5119   0.333   3.434   8.335 -1.8373 -0.1685  0.2411
   38POPC  C216 5120   0.367   3.288   8.501 -0.3432  0.8601 -0.2244
   38POPC  H16R 5121   0.411   3.186   8.505 -0.0532  0.9146 -1.4768
   38POPC  H16S 5122   0.263   3.281   8.541 -0.3933 -2.5490 -0.6115
   38POPC  C217 5123   0.450   3.378   8.589  0.4162 -0.0532 -0.3737
   38POPC  H17R 5124   0.406   3.480   8.590 -0.2966 -0.3450  1.0911
   38POPC  H17S 5125   0.550   3.375   8.543  1.1191 -0.2836  1.1080
   38POPC  C218 5126   0.468   3.342   8.740  0.5211 -0.0747 -1.3378
   38POPC  H18R 5127   0.375   3.368   8.795 -0.0027  0.0774 -2.2615
   38POPC  H18S 5128   0.552   3.407   8.773 -0.6680  1.1367 -0.5738
   38POPC  H18T 5129   0.510   3.240   8.751  0.7407 -0.0942 -2.2597
   38POPC   C33 5130   1.058   3.454   6.571 -0.7420  0.0327 -0.1983
   38POPC   H3X 5131   1.056   3.481   6.463 -2.8810  1.7888  0.1898
   38POPC   H3Y 5132   1.070   3.344   6.582 -0.4581  0.0603 -0.2328
   38POPC   C34 5133   1.177   3.527   6.639  0.2854  0.2377 -0.0488
   38POPC   H4X 5134   1.180   3.634   6.609  3.2918  0.5943  1.1364
   38POPC   H4Y 5135   1.273   3.485   6.601  0.2284  0.8836 -0.9534
   38POPC   C35 5136   1.184   3.530   6.792 -0.2716 -0.0156  0.4365
   38POPC   H5X 5137   1.084   3.561   6.829 -1.2571  0.8072 -2.6334
   38POPC   H5Y 5138   1.256   3.605   6.831 -0.6337 -0.4807  2.0935
   38POPC   C36 5139   1.214   3.392   6.848 -0.3287 -0.7493  0.0591
   38POPC   H6X 5140   1.307   3.356   6.799 -0.0397  0.2937 -0.1771
   38POPC   H6Y 5141   1.127   3.330   6.816  0.2587 -2.3186  1.3575
   38POPC   C37 5142   1.239   3.374   6.996  0.0238 -0.3682  0.1541
   38POPC   H7X 5143   1.154   3.431   7.039  1.0619 -0.8928  3.1378
   38POPC   H7Y 5144   1.330   3.423   7.036 -0.6851  1.4815 -0.4101
   38POPC   C38 5145   1.228   3.233   7.051 -0.3596 -0.3102 -0.4397
   38POPC   H8X 5146   1.324   3.179   7.039  0.1455  0.1369  1.2899
   38POPC   H8Y 5147   1.142   3.183   7.001 -0.2529 -0.7053 -0.2342
   38POPC   C39 5148   1.192   3.233   7.206  0.2029  1.1451 -0.0961
   38POPC   H9X 5149   1.100   3.294   7.218  0.1614  1.3196 -1.2030
   38POPC   H9Y 5150   1.273   3.284   7.261  0.9962  0.7710 -0.8945
   38POPC  C310 5151   1.179   3.101   7.285 -0.1059  0.0355  0.1015
   38POPC  H10X 5152   1.268   3.036   7.269 -0.9705 -1.2674  0.4980
   38POPC  H10Y 5153   1.090   3.041   7.261  0.4682 -0.8449  0.1305
   38POPC  C311 5154   1.184   3.131   7.432 -0.0744 -0.3597  0.4411
   38POPC  H11X 5155   1.107   3.204   7.466  0.4532  0.4327 -0.0448
   38POPC  H11Y 5156   1.278   3.170   7.476 -0.7750  1.3049  0.5807
   38POPC  C312 5157   1.145   3.000   7.514 -0.2138 -0.4478 -0.3673
   38POPC  H12X 5158   1.229   2.931   7.492  0.1774  0.1857 -0.8902
   38POPC  H12Y 5159   1.051   2.957   7.474 -0.8922  0.6204  0.0266
   38POPC  C313 5160   1.114   3.027   7.665  0.4875  0.7492  0.7849
   38POPC  H13X 5161   1.014   3.072   7.676  0.8174  1.5609  0.5345
   38POPC  H13Y 5162   1.188   3.098   7.709 -0.1105  1.1268  1.1970
   38POPC  C314 5163   1.104   2.904   7.746  0.2113  0.1651 -0.0910
   38POPC  H14X 5164   1.207   2.865   7.762 -0.0841  0.1328  1.9155
   38POPC  H14Y 5165   1.051   2.821   7.695  0.3812 -0.7558  1.1755
   38POPC  C315 5166   1.055   2.915   7.894 -0.3433 -0.0474 -0.6201
   38POPC  H15X 5167   1.138   2.975   7.937  1.3097 -1.3990 -1.7732
   38POPC  H15Y 5168   1.069   2.812   7.933  1.6325  0.6310  0.5699
   38POPC  C316 5169   0.914   2.976   7.906 -0.6947 -0.1260  0.2303
   38POPC  H16X 5170   0.909   3.075   7.855 -0.0431 -0.5616 -0.7224
   38POPC  H16Y 5171   0.893   2.995   8.013  1.7244  0.2764  0.6745
   38POPC  H16Z 5172   0.846   2.899   7.863 -1.0570  0.9098 -1.1443
   39POPC     N 5173   5.178   3.833   6.316  0.1944 -0.2338 -0.1645
   39POPC   C12 5174   5.113   3.704   6.366  0.3411 -0.4297  0.0043
   39POPC  H12A 5175   5.020   3.696   6.311 -0.4757 -0.2003  1.3183
   39POPC  H12B 5176   5.076   3.722   6.466 -1.8989  3.8232 -1.3080
   39POPC   C13 5177   5.252   3.796   6.185 -0.6029  0.0672  0.5758
   39POPC  H13A 5178   5.324   3.867   6.148 -0.6590 -0.7215 -1.1105
   39POPC  H13B 5179   5.307   3.705   6.202  0.9363  0.3155 -2.4282
   39POPC  H13C 5180   5.179   3.769   6.110 -1.7130  2.0971  0.8507
   39POPC   C14 5181   5.087   3.943   6.276 -0.2070 -0.4995 -0.2793
   39POPC  H14A 5182   5.140   4.022   6.225 -2.0109  1.6003  0.9118
   39POPC  H14B 5183   5.005   3.898   6.221 -0.2572 -3.3431  1.8470
   39POPC  H14C 5184   5.054   3.977   6.372  1.3799 -0.8424  0.4234
   39POPC   C15 5185   5.277   3.883   6.409 -0.7380 -0.5363 -0.3814
   39POPC  H15A 5186   5.341   3.799   6.433  1.7776  1.4387  0.2851
   39POPC  H15B 5187   5.233   3.928   6.497 -2.1865 -0.5616 -1.0704
   39POPC  H15C 5188   5.343   3.955   6.362 -1.3595  0.6946  0.5695
   39POPC   C11 5189   5.188   3.568   6.363 -0.3017 -0.1294 -1.2045
   39POPC  H11A 5190   5.190   3.557   6.252  1.2138  2.2426 -1.5047
   39POPC  H11B 5191   5.133   3.496   6.427  0.6203  0.8846  0.8098
   39POPC     P 5192   5.438   3.490   6.362  0.1465  0.3093 -0.2215
   39POPC   O13 5193   5.466   3.519   6.224  0.2823  0.9627  0.3871
   39POPC   O14 5194   5.419   3.346   6.399 -0.4513 -0.1085  0.4769
   39POPC   O12 5195   5.321   3.578   6.418  0.5244  0.0262 -0.0097
   39POPC   O11 5196   5.565   3.538   6.450 -0.8227  0.0413  0.3068
   39POPC    C1 5197   5.597   3.678   6.469  0.1989 -0.5143  0.1714
   39POPC    HA 5198   5.522   3.752   6.433  1.9752  2.0404  1.3575
   39POPC    HB 5199   5.686   3.706   6.408 -0.0483 -2.2859 -1.0593
   39POPC    C2 5200   5.627   3.721   6.615 -0.1512  0.3272  0.3794
   39POPC    HS 5201   5.665   3.825   6.607 -1.6023  0.7467 -2.9509
   39POPC   O21 5202   5.715   3.620   6.675 -0.4513  0.0640 -0.4226
   39POPC   C21 5203   5.789   3.671   6.778 -0.0092  0.4767  0.6150
   39POPC   O22 5204   5.786   3.787   6.814 -0.4010  0.2996 -0.0787
   39POPC   C22 5205   5.863   3.556   6.844 -0.4351  0.4562  0.3946
   39POPC   H2R 5206   5.919   3.488   6.777 -0.7580 -0.0127  0.5880
   39POPC   H2S 5207   5.782   3.494   6.889  1.2980 -1.0370  1.6349
   39POPC    C3 5208   5.490   3.734   6.685 -0.9114  0.0896 -0.0799
   39POPC    HX 5209   5.436   3.638   6.673 -2.1716  0.5289  1.6569
   39POPC    HY 5210   5.438   3.821   6.638  0.4433 -0.1064 -2.0438
   39POPC   O31 5211   5.495   3.764   6.825 -0.1882 -0.5949 -0.3149
   39POPC   C31 5212   5.382   3.801   6.873 -0.0069 -0.0943  0.7057
   39POPC   O32 5213   5.276   3.813   6.812 -0.2282 -0.2400  0.2891
   39POPC   C32 5214   5.408   3.821   7.021  0.9240 -0.2295  0.2067
   39POPC   H2X 5215   5.457   3.725   7.050  0.9516 -0.3228 -0.1434
   39POPC   H2Y 5216   5.484   3.901   7.039  0.9122 -0.5378  1.7242
   39POPC   C23 5217   5.968   3.588   6.961  1.0178  0.0112 -0.2396
   39POPC   H3R 5218   6.008   3.689   6.937  0.6135  0.0407 -0.8049
   39POPC   H3S 5219   6.051   3.514   6.958  0.2625 -0.9561  1.5364
   39POPC   C24 5220   5.900   3.585   7.101  0.0367  0.6574  0.2597
   39POPC   H4R 5221   5.796   3.549   7.114  0.6156 -0.5746  1.8305
   39POPC   H4S 5222   5.899   3.689   7.141  1.8822  1.1218 -0.7772
   39POPC   C25 5223   5.978   3.504   7.209 -0.0468  0.2762 -0.2928
   39POPC   H5R 5224   6.084   3.538   7.212 -0.2495  0.9902 -0.9060
   39POPC   H5S 5225   5.958   3.397   7.191 -1.8611  0.2526  1.3964
   39POPC   C26 5226   5.918   3.508   7.354 -0.0329  0.4331  1.1053
   39POPC   H6R 5227   5.809   3.488   7.338  0.4228 -0.8586 -0.6390
   39POPC   H6S 5228   5.932   3.609   7.399  2.8586 -0.4233  2.2851
   39POPC   C27 5229   5.982   3.399   7.449  0.4684  0.3833 -0.4631
   39POPC   H7R 5230   6.093   3.402   7.439  0.4167  1.1114 -0.8977
   39POPC   H7S 5231   5.950   3.295   7.429 -1.8561  1.0116 -0.2494
   39POPC   C28 5232   5.949   3.434   7.598  0.3522  1.3671  0.6010
   39POPC   H8R 5233   6.013   3.523   7.616  1.6352  0.8772 -1.2174
   39POPC   H8S 5234   5.993   3.358   7.666 -1.8039 -1.6733 -1.1545
   39POPC   C29 5235   5.801   3.449   7.628  0.4466 -0.3205 -0.6708
   39POPC   H91 5236   5.737   3.457   7.539  0.2741 -0.4089 -0.5573
   39POPC  C210 5237   5.750   3.454   7.754  0.0958 -0.2487  0.2051
   39POPC  H101 5238   5.643   3.473   7.774  0.7071  1.0389  2.5247
   39POPC  C211 5239   5.822   3.447   7.886  0.3759 -0.4347 -0.0372
   39POPC  H11R 5240   5.921   3.397   7.878 -0.1867 -2.3216  3.2601
   39POPC  H11S 5241   5.770   3.372   7.949  0.2221  0.0392  0.4046
   39POPC  C212 5242   5.844   3.584   7.962  0.5542  0.4677 -0.0034
   39POPC  H12R 5243   5.879   3.662   7.891  2.4495 -1.6634 -1.5522
   39POPC  H12S 5244   5.933   3.567   8.027  1.4237 -0.3965 -1.3664
   39POPC  C213 5245   5.722   3.620   8.047  0.3750 -0.0548 -0.2119
   39POPC  H13R 5246   5.630   3.604   7.988  0.9255 -0.1213 -1.0727
   39POPC  H13S 5247   5.730   3.729   8.067 -2.0587  0.2678 -0.7805
   39POPC  C214 5248   5.713   3.552   8.185  0.3485  0.3311 -0.3657
   39POPC  H14R 5249   5.738   3.444   8.179 -0.6571  0.0178  0.7095
   39POPC  H14S 5250   5.608   3.565   8.219  0.2198 -2.9826  0.8016
   39POPC  C215 5251   5.799   3.620   8.290 -0.1165 -0.6226 -0.8202
   39POPC  H15R 5252   5.778   3.730   8.288  1.4059 -0.3255 -1.9305
   39POPC  H15S 5253   5.907   3.613   8.267  0.1869  2.7824 -1.0151
   39POPC  C216 5254   5.773   3.588   8.434 -0.4530 -0.4646 -0.4076
   39POPC  H16R 5255   5.739   3.482   8.439  1.3659 -1.0872 -0.6058
   39POPC  H16S 5256   5.692   3.652   8.475 -0.2722 -0.3721 -0.1970
   39POPC  C217 5257   5.888   3.580   8.537 -0.2796  0.1706  0.4902
   39POPC  H17R 5258   5.897   3.669   8.604 -0.0286 -0.0576  0.7611
   39POPC  H17S 5259   5.978   3.592   8.474 -1.9080  2.5712 -1.6072
   39POPC  C218 5260   5.895   3.454   8.623 -0.2083  0.0035 -0.2827
   39POPC  H18R 5261   5.810   3.467   8.693  1.1031 -0.4913  1.4552
   39POPC  H18S 5262   5.987   3.440   8.683 -0.3072  2.5804  0.6064
   39POPC  H18T 5263   5.879   3.363   8.562 -1.8369  0.8296 -1.1643
   39POPC   C33 5264   5.276   3.853   7.095  0.7220 -0.2246 -0.2384
   39POPC   H3X 5265   5.203   3.783   7.050  0.8148 -1.2088  1.0908
   39POPC   H3Y 5266   5.232   3.955   7.087 -0.7706 -0.4293  3.3743
   39POPC   C34 5267   5.299   3.829   7.244 -0.9845 -0.2390  0.5139
   39POPC   H4X 5268   5.366   3.912   7.273  0.5529 -1.0367 -0.6275
   39POPC   H4Y 5269   5.348   3.729   7.244 -2.4037 -0.9704 -0.1046
   39POPC   C35 5270   5.168   3.833   7.321 -0.2431  1.0013 -0.2667
   39POPC   H5X 5271   5.119   3.733   7.321 -0.2508  1.0045  0.4733
   39POPC   H5Y 5272   5.093   3.896   7.267 -0.2403  2.1005  0.9618
   39POPC   C36 5273   5.194   3.879   7.469  0.6881 -0.0139 -0.7935
   39POPC   H6X 5274   5.223   3.986   7.471 -1.1252  0.5192 -0.9239
   39POPC   H6Y 5275   5.273   3.811   7.508 -0.8852 -1.5968 -0.2215
   39POPC   C37 5276   5.062   3.870   7.552 -0.4872  0.8015  0.1969
   39POPC   H7X 5277   5.031   3.769   7.519  0.8488  0.9389 -1.6371
   39POPC   H7Y 5278   4.978   3.938   7.524  1.6348  2.2532 -3.2525
   39POPC   C38 5279   5.093   3.868   7.703 -0.1608  0.2821 -0.0803
   39POPC   H8X 5280   5.177   3.941   7.708  0.6560 -0.6791  0.7146
   39POPC   H8Y 5281   5.132   3.768   7.733 -1.6187 -0.9610 -2.0788
   39POPC   C39 5282   4.983   3.881   7.805 -0.4067 -0.3049  0.0445
   39POPC   H9X 5283   4.916   3.792   7.805  0.0509 -0.6572  0.6673
   39POPC   H9Y 5284   4.937   3.979   7.783  1.1899  0.7007  0.9527
   39POPC  C310 5285   5.048   3.893   7.951 -0.1737  0.1345  0.3070
   39POPC  H10X 5286   5.119   3.978   7.952  0.5160 -0.4396  0.2509
   39POPC  H10Y 5287   5.113   3.806   7.972 -0.4176 -0.3252 -0.7917
   39POPC  C311 5288   4.941   3.897   8.057  0.0746 -0.1168  0.6845
   39POPC  H11X 5289   4.876   3.808   8.042  1.3671 -1.1693  1.1479
   39POPC  H11Y 5290   4.875   3.986   8.056 -2.7492 -2.0883 -0.2511
   39POPC  C312 5291   4.998   3.884   8.199 -0.1168  0.4918 -0.3739
   39POPC  H12X 5292   5.069   3.968   8.209  2.4931 -1.5565 -0.6694
   39POPC  H12Y 5293   5.057   3.790   8.208  1.8282  1.8324  2.3895
   39POPC  C313 5294   4.891   3.878   8.309 -0.4144 -0.3862  0.1557
   39POPC  H13X 5295   4.853   3.774   8.312 -3.3848  0.6090  1.0703
   39POPC  H13Y 5296   4.813   3.955   8.288 -1.8391 -0.9064  3.0114
   39POPC  C314 5297   4.946   3.907   8.451 -0.0101 -0.2123  0.5825
   39POPC  H14X 5298   4.961   4.017   8.454  1.2506 -0.3417  0.0216
   39POPC  H14Y 5299   5.043   3.851   8.456 -0.8647 -2.2564 -2.8720
   39POPC  C315 5300   4.861   3.844   8.564 -0.0599  0.3661  0.4007
   39POPC  H15X 5301   4.864   3.734   8.571 -1.3331  0.2366 -0.7834
   39POPC  H15Y 5302   4.758   3.862   8.529  0.3493 -0.2638 -1.2323
   39POPC  C316 5303   4.888   3.908   8.692 -0.5966 -0.2852 -0.5608
   39POPC  H16X 5304   4.817   3.903   8.777  1.4061 -1.1209  1.1614
   39POPC  H16Y 5305   4.906   4.017   8.678  2.6412 -0.6401  0.0037
   39POPC  H16Z 5306   4.988   3.878   8.731 -0.1902  1.7892  0.1159
   40POPC     N 5307   3.068   3.425   6.339  0.4114 -0.2785  0.3106
   40POPC   C12 5308   2.918   3.404   6.344  0.1730 -0.3421 -0.7505
   40POPC  H12A 5309   2.866   3.488   6.303  1.0366 -0.1352 -1.4458
   40POPC  H12B 5310   2.898   3.407   6.450  0.6075  0.7320 -0.6878
   40POPC   C13 5311   3.139   3.318   6.416  0.3757 -0.1684  0.0875
   40POPC  H13A 5312   3.247   3.329   6.410  0.5763  0.6234  3.2718
   40POPC  H13B 5313   3.119   3.309   6.521 -0.3259  0.7605  0.0450
   40POPC  H13C 5314   3.112   3.219   6.383 -1.1392 -0.6902  2.6536
   40POPC   C14 5315   3.115   3.417   6.197  0.6535 -0.7379  0.4236
   40POPC  H14A 5316   3.083   3.325   6.150  0.8156  0.2324 -1.6790
   40POPC  H14B 5317   3.074   3.494   6.134  1.6059 -0.3993  0.2091
   40POPC  H14C 5318   3.223   3.415   6.194  0.6968 -3.6185 -3.1666
   40POPC   C15 5319   3.098   3.566   6.378 -0.4793  0.2521  0.0453
   40POPC  H15A 5320   3.068   3.600   6.476  2.1622  0.1329  0.9940
   40POPC  H15B 5321   3.057   3.641   6.312 -1.5025 -0.5472 -0.2414
   40POPC  H15C 5322   3.203   3.587   6.363 -1.0503  2.5226 -1.3270
   40POPC   C11 5323   2.856   3.273   6.285 -0.6360  0.1389  0.3423
   40POPC  H11A 5324   2.883   3.277   6.177  1.7331 -0.3707  0.8503
   40POPC  H11B 5325   2.748   3.284   6.307 -0.5006 -0.6378  1.4860
   40POPC     P 5326   2.855   3.023   6.316 -0.1319  0.5578 -0.3266
   40POPC   O13 5327   2.923   2.960   6.199  0.6798 -0.0219 -0.5229
   40POPC   O14 5328   2.708   3.030   6.309 -0.6448  0.6923  0.5347
   40POPC   O12 5329   2.918   3.156   6.346  0.4285 -0.2499  0.1091
   40POPC   O11 5330   2.904   2.942   6.444  0.0678 -0.2298  0.2287
   40POPC    C1 5331   2.924   3.009   6.567  0.4854  0.2786  0.7710
   40POPC    HA 5332   2.970   3.109   6.556 -0.5697  0.8027  1.0454
   40POPC    HB 5333   2.988   2.944   6.631 -1.2141 -0.5794  1.6701
   40POPC    C2 5334   2.789   3.039   6.633  0.4064 -0.5762 -0.0846
   40POPC    HS 5335   2.738   3.122   6.580 -1.1587 -1.6088 -0.2650
   40POPC   O21 5336   2.807   3.057   6.771 -1.0159  0.0701 -0.5945
   40POPC   C21 5337   2.851   3.177   6.809  0.1428 -0.8661 -0.1618
   40POPC   O22 5338   2.865   3.274   6.733 -0.5583  0.1242 -0.5709
   40POPC   C22 5339   2.881   3.180   6.957 -0.5020 -0.2244 -0.1676
   40POPC   H2R 5340   2.896   3.076   6.995  0.8376  0.8390  2.4703
   40POPC   H2S 5341   2.788   3.223   7.001 -1.1223 -1.1874 -0.4903
   40POPC    C3 5342   2.696   2.914   6.617  0.4340  0.2554  0.0035
   40POPC    HX 5343   2.764   2.829   6.637  0.5317  0.4967  0.7164
   40POPC    HY 5344   2.655   2.901   6.514 -2.7678 -0.5738  1.2806
   40POPC   O31 5345   2.587   2.903   6.711 -0.3548  0.3791 -0.3479
   40POPC   C31 5346   2.493   2.999   6.706 -0.5399 -0.8755 -0.5459
   40POPC   O32 5347   2.489   3.078   6.613  0.0455 -0.0711 -0.3673
   40POPC   C32 5348   2.390   2.981   6.817 -0.1161 -1.0627 -0.0457
   40POPC   H2X 5349   2.444   2.981   6.914  0.9120  1.5114 -0.5212
   40POPC   H2Y 5350   2.331   2.890   6.794 -0.8406 -1.3164  2.4959
   40POPC   C23 5351   3.006   3.267   6.981  0.0309  0.0803  0.2140
   40POPC   H3R 5352   2.981   3.375   6.987  0.1640  0.0967  0.4615
   40POPC   H3S 5353   3.081   3.250   6.901 -1.5365 -0.5867 -1.1674
   40POPC   C24 5354   3.078   3.228   7.111 -0.6555  0.3051  0.2981
   40POPC   H4R 5355   3.186   3.249   7.123  0.0046 -2.1731 -0.6715
   40POPC   H4S 5356   3.083   3.118   7.122  1.1488  0.2038 -1.1920
   40POPC   C25 5357   3.005   3.290   7.224  0.1032  0.0060 -0.0317
   40POPC   H5R 5358   2.899   3.256   7.227 -0.4136  1.5692  0.0473
   40POPC   H5S 5359   2.999   3.399   7.206 -0.9217 -0.3354 -2.0361
   40POPC   C26 5360   3.068   3.256   7.355  0.7866  0.2612  0.1038
   40POPC   H6R 5361   3.172   3.287   7.329  0.7079  0.0012 -0.5282
   40POPC   H6S 5362   3.069   3.146   7.362 -1.3503  0.0727 -1.4654
   40POPC   C27 5363   3.001   3.328   7.465  0.7554 -0.2281 -0.6481
   40POPC   H7R 5364   2.912   3.268   7.493  0.4326  1.3998  2.1822
   40POPC   H7S 5365   2.975   3.431   7.431 -0.0529 -0.1648  0.1135
   40POPC   C28 5366   3.090   3.328   7.586  0.6098 -0.4014 -0.8325
   40POPC   H8R 5367   3.163   3.406   7.557  1.4064 -1.3056 -1.3033
   40POPC   H8S 5368   3.140   3.229   7.592 -0.4202 -0.9171 -0.2908
   40POPC   C29 5369   3.013   3.356   7.719  0.2111 -0.2024 -0.0127
   40POPC   H91 5370   2.975   3.456   7.744  3.3980  0.3441  3.6111
   40POPC  C210 5371   2.988   3.261   7.810  0.3850 -0.2191 -0.3060
   40POPC  H101 5372   2.910   3.278   7.886 -0.8441  0.1503 -1.5966
   40POPC  C211 5373   3.029   3.115   7.800 -0.7420 -0.2330  0.3047
   40POPC  H11R 5374   3.011   3.086   7.695 -2.1732 -1.9362  0.9693
   40POPC  H11S 5375   2.958   3.046   7.851 -1.3384 -1.5746 -2.1740
   40POPC  C212 5376   3.172   3.080   7.845 -0.8938 -0.3639 -0.6597
   40POPC  H12R 5377   3.252   3.138   7.795 -1.2375 -0.1070 -0.9149
   40POPC  H12S 5378   3.198   2.974   7.825  0.9439 -0.1238  0.2552
   40POPC  C213 5379   3.200   3.085   7.991  0.3635 -0.1877 -1.0226
   40POPC  H13R 5380   3.203   3.194   8.012  0.8709 -0.3485 -0.2237
   40POPC  H13S 5381   3.300   3.048   8.021 -0.2522 -0.1732  1.2350
   40POPC  C214 5382   3.088   3.008   8.067  0.3678  0.4069  0.0082
   40POPC  H14R 5383   3.083   2.904   8.030 -0.5622  0.5224 -0.1977
   40POPC  H14S 5384   2.986   3.050   8.056  0.3722  0.1833 -0.9804
   40POPC  C215 5385   3.113   2.999   8.214 -0.4905  0.4380  0.4272
   40POPC  H15R 5386   3.023   2.959   8.265 -1.3236 -0.7320 -1.8074
   40POPC  H15S 5387   3.136   3.101   8.253  2.0560  0.7868 -1.7100
   40POPC  C216 5388   3.240   2.911   8.247  0.5773 -0.1368 -0.3190
   40POPC  H16R 5389   3.327   2.973   8.220 -0.7032  1.0729 -1.8291
   40POPC  H16S 5390   3.220   2.827   8.177 -1.8436  0.5706 -0.5913
   40POPC  C217 5391   3.227   2.856   8.390 -0.2868  0.6386  0.0992
   40POPC  H17R 5392   3.142   2.786   8.399 -0.2884  0.5299 -0.6639
   40POPC  H17S 5393   3.221   2.952   8.446  1.5108  0.0508  1.3822
   40POPC  C218 5394   3.361   2.791   8.438  0.0042 -0.5365 -0.5165
   40POPC  H18R 5395   3.395   2.713   8.366  2.0257 -1.7182  1.5700
   40POPC  H18S 5396   3.343   2.739   8.535 -1.6672  0.6624 -0.1514
   40POPC  H18T 5397   3.437   2.872   8.440  0.3591 -0.8685 -0.3946
   40POPC   C33 5398   2.277   3.096   6.820  0.0178 -0.5954  0.2117
   40POPC   H3X 5399   2.248   3.111   6.714  1.3169  1.4886  0.0852
   40POPC   H3Y 5400   2.317   3.193   6.858  0.8609 -0.6634 -0.4909
   40POPC   C34 5401   2.160   3.065   6.913 -0.9599 -0.4830  0.4716
   40POPC   H4X 5402   2.141   2.956   6.903  0.4650 -0.7708  0.7014
   40POPC   H4Y 5403   2.067   3.115   6.880 -0.0943 -1.2290 -3.5579
   40POPC   C35 5404   2.196   3.102   7.062 -0.0260 -0.2025  0.0422
   40POPC   H5X 5405   2.200   3.213   7.071 -1.1481 -0.1667  0.2252
   40POPC   H5Y 5406   2.293   3.054   7.086  0.3412  0.5230  0.0417
   40POPC   C36 5407   2.104   3.041   7.167 -0.3128 -0.4744 -0.4915
   40POPC   H6X 5408   2.110   2.931   7.156 -0.9507 -0.3836 -2.1803
   40POPC   H6Y 5409   2.004   3.085   7.142 -0.3155  0.1436  0.5389
   40POPC   C37 5410   2.120   3.081   7.313 -0.2774 -0.7787  0.9857
   40POPC   H7X 5411   2.121   3.192   7.326  2.1838 -0.7121  0.6565
   40POPC   H7Y 5412   2.226   3.053   7.326  0.5347  0.9547 -1.3497
   40POPC   C38 5413   2.033   3.010   7.411 -0.1174 -0.0115 -0.9800
   40POPC   H8X 5414   2.025   2.900   7.402  1.9629 -0.4774  1.5199
   40POPC   H8Y 5415   1.930   3.051   7.401  0.7805  1.9362 -3.0808
   40POPC   C39 5416   2.079   3.046   7.555 -0.9286 -0.4337 -0.1684
   40POPC   H9X 5417   2.071   3.153   7.585 -0.3913 -0.0102 -1.4654
   40POPC   H9Y 5418   2.190   3.037   7.559 -0.9703 -0.7619  0.3413
   40POPC  C310 5419   2.019   2.960   7.659 -0.6352  0.4813 -0.5242
   40POPC  H10X 5420   2.046   2.855   7.632  0.1400  0.0469  1.6849
   40POPC  H10Y 5421   1.909   2.967   7.644 -0.3511  0.4284 -2.9489
   40POPC  C311 5422   2.079   2.981   7.799  0.9657  0.1743  0.2891
   40POPC  H11X 5423   2.055   3.082   7.838 -1.3338 -0.5377  0.8987
   40POPC  H11Y 5424   2.188   2.965   7.786  0.8780 -0.4200  0.2539
   40POPC  C312 5425   2.030   2.884   7.905 -0.4797  0.1224 -0.1861
   40POPC  H12X 5426   2.024   2.775   7.882 -2.0242  0.1019  0.1903
   40POPC  H12Y 5427   1.929   2.918   7.938 -0.1787  0.9311 -0.0914
   40POPC  C313 5428   2.128   2.892   8.030 -0.0379 -0.2208 -0.5565
   40POPC  H13X 5429   2.107   2.984   8.089  0.5038 -0.5420  0.1444
   40POPC  H13Y 5430   2.234   2.891   7.996  0.2567 -0.9501  0.3352
   40POPC  C314 5431   2.115   2.777   8.132 -0.0160  0.1890 -0.0159
   40POPC  H14X 5432   2.133   2.682   8.078  0.3340  0.5787 -0.5963
   40POPC  H14Y 5433   2.010   2.781   8.170 -0.4059  2.7198 -1.1746
   40POPC  C315 5434   2.215   2.795   8.248 -0.0018  1.2114  0.0449
   40POPC  H15X 5435   2.196   2.886   8.309  2.5571  2.0337 -0.2442
   40POPC  H15Y 5436   2.316   2.809   8.202  0.5337 -1.2779  0.3159
   40POPC  C316 5437   2.227   2.675   8.337 -0.0009  0.0749  0.6957
   40POPC  H16X 5438   2.285   2.590   8.295  0.8680  0.3810  1.2601
   40POPC  H16Y 5439   2.121   2.646   8.356 -0.9453  0.8332 -2.6652
   40POPC  H16Z 5440   2.278   2.708   8.430  2.0926  1.6476 -0.9357
   41CHL1    C3 5441   0.720   0.755  10.291  0.1112 -0.3185  1.0716
   41CHL1    H3 5442   0.802   0.820  10.252 -0.1630 -0.3394  0.4535
   41CHL1    O3 5443   0.728   0.721  10.426 -0.5950  0.1809 -0.0045
   41CHL1   H3' 5444   0.662   0.651  10.437 -0.7187  0.1534 -0.8193
   41CHL1    C4 5445   0.583   0.819  10.269  0.2079 -0.9334 -0.2052
   41CHL1   H4A 5446   0.504   0.750  10.306  1.0500 -0.8881  1.7789
   41CHL1   H4B 5447   0.589   0.911  10.331  1.6703 -2.0531  1.4088
   41CHL1    C5 5448   0.562   0.839  10.121  0.1307  0.2153  0.4207
   41CHL1    C6 5449   0.520   0.964  10.088  0.0802  0.5752  0.7295
   41CHL1    H6 5450   0.510   1.042  10.164  2.0572 -0.6923  2.4178
   41CHL1    C7 5451   0.499   1.011   9.942 -0.1898  0.5815  0.2873
   41CHL1   H7A 5452   0.401   1.063   9.937  0.4356  1.7327 -0.5059
   41CHL1   H7B 5453   0.576   1.089   9.921  1.0291 -0.8014 -0.5691
   41CHL1    C8 5454   0.499   0.884   9.842 -0.4398 -1.0138  0.3526
   41CHL1    H8 5455   0.396   0.851   9.864 -1.1614  0.6614 -0.3548
   41CHL1   C14 5456   0.510   0.928   9.692 -0.0455 -0.0290  0.6594
   41CHL1   H14 5457   0.608   0.979   9.689 -0.1369  0.1579  0.8425
   41CHL1   C15 5458   0.418   1.044   9.644  0.7379 -0.6469 -0.5469
   41CHL1  H15A 5459   0.312   1.017   9.663  0.9514 -1.3739 -0.3331
   41CHL1  H15B 5460   0.446   1.144   9.682 -1.3899 -0.8452  1.8491
   41CHL1   C16 5461   0.443   1.038   9.487  1.0028  0.6380 -0.5164
   41CHL1  H16A 5462   0.344   1.042   9.437  0.4426 -0.6075  0.4172
   41CHL1  H16B 5463   0.507   1.124   9.458  1.2517  0.6488  0.0408
   41CHL1   C17 5464   0.527   0.907   9.453  0.0644  0.0799 -1.0000
   41CHL1   H17 5465   0.631   0.944   9.459 -0.6359  2.1954 -1.0929
   41CHL1   C13 5466   0.509   0.816   9.584 -0.1804 -0.3426  0.0696
   41CHL1   C18 5467   0.367   0.754   9.583 -1.0656 -0.0618 -0.2530
   41CHL1  H18A 5468   0.363   0.669   9.512  0.8965 -0.0098 -0.4895
   41CHL1  H18B 5469   0.348   0.707   9.682  0.7479 -2.2567 -0.8580
   41CHL1  H18C 5470   0.288   0.830   9.569  0.4926  2.3222  2.6221
   41CHL1   C12 5471   0.616   0.715   9.617 -0.1706 -0.3314 -0.6710
   41CHL1  H12A 5472   0.612   0.621   9.557  0.1897 -1.0128  0.3516
   41CHL1  H12B 5473   0.721   0.751   9.613  0.2261 -1.0091  1.9334
   41CHL1   C11 5474   0.611   0.664   9.762 -0.1409  0.1493  0.3480
   41CHL1  H11A 5475   0.515   0.608   9.773  0.9508 -1.4460  2.4316
   41CHL1  H11B 5476   0.700   0.604   9.788 -0.1793 -0.9358 -1.8172
   41CHL1    C9 5477   0.603   0.776   9.871  0.2590  0.2385  0.1629
   41CHL1    H9 5478   0.699   0.832   9.873  0.0824  0.5365  0.9676
   41CHL1   C10 5479   0.594   0.726  10.021 -0.9804  0.2351 -0.4755
   41CHL1   C19 5480   0.478   0.630  10.033  0.4737  0.6857  0.2894
   41CHL1  H19A 5481   0.496   0.543   9.967 -1.3085  1.6661 -1.6290
   41CHL1  H19B 5482   0.449   0.589  10.132  0.7013  0.2618  0.1796
   41CHL1  H19C 5483   0.386   0.677   9.991 -0.6672 -0.2278  1.6804
   41CHL1    C1 5484   0.727   0.651  10.047  0.3235  0.5125  0.2534
   41CHL1   H1A 5485   0.723   0.559   9.984 -1.9224  1.4731 -1.1596
   41CHL1   H1B 5486   0.809   0.717  10.011 -0.9080  0.8316 -2.2194
   41CHL1    C2 5487   0.736   0.626  10.196 -1.3452  0.3622 -0.1840
   41CHL1   H2A 5488   0.842   0.597  10.212 -0.3404  3.2676 -1.0985
   41CHL1   H2B 5489   0.673   0.539  10.227 -0.1777 -0.8476 -1.0509
   41CHL1   C20 5490   0.509   0.856   9.312 -0.3644 -0.1469 -0.3019
   41CHL1   H20 5491   0.408   0.811   9.302  0.1891 -2.0468  1.8070
   41CHL1   C21 5492   0.605   0.746   9.285  0.3159 -0.0417  0.9608
   41CHL1  H21A 5493   0.594   0.663   9.358  0.2376  0.3135  1.3562
   41CHL1  H21B 5494   0.708   0.787   9.283 -0.3630  1.7172 -0.0725
   41CHL1  H21C 5495   0.587   0.703   9.184  0.1219  0.2372  0.8754
   41CHL1   C22 5496   0.525   0.970   9.202  0.0788 -0.1272  0.2356
   41CHL1  H22A 5497   0.492   1.069   9.241 -0.5966 -0.8899  1.6642
   41CHL1  H22B 5498   0.635   0.987   9.196 -0.2404  4.4652  2.6934
   41CHL1   C23 5499   0.468   0.949   9.063  0.2006  0.2525 -0.0657
   41CHL1  H23A 5500   0.510   0.858   9.016 -0.0653  1.5118 -2.9411
   41CHL1  H23B 5501   0.360   0.923   9.067  1.0289 -3.6508  2.0740
   41CHL1   C24 5502   0.484   1.064   8.959 -0.0829 -0.1474  0.0044
   41CHL1  H24A 5503   0.430   1.153   8.998  0.1500 -0.5953  1.4400
   41CHL1  H24B 5504   0.592   1.088   8.955  0.2630 -0.9984  2.2462
   41CHL1   C25 5505   0.416   1.025   8.825 -0.1477 -0.5442  0.0743
   41CHL1   H25 5506   0.459   0.924   8.811 -0.5494 -0.7150  0.0456
   41CHL1   C26 5507   0.264   0.998   8.831  0.9433 -0.1282  0.1348
   41CHL1  H26A 5508   0.238   0.911   8.894  0.6949  0.4759  0.8870
   41CHL1  H26B 5509   0.208   1.088   8.864  0.8691 -0.5205  1.1089
   41CHL1  H26C 5510   0.208   0.963   8.742 -0.8740 -0.9209  1.5146
   41CHL1   C27 5511   0.449   1.118   8.720  0.1382  0.0944 -0.3740
   41CHL1  H27A 5512   0.556   1.149   8.731  0.8340 -1.9411 -0.8988
   41CHL1  H27B 5513   0.437   1.075   8.618  0.0963 -1.0966  0.1142
   41CHL1  H27C 5514   0.384   1.207   8.733  0.2422 -0.2651  3.7334
   42CHL1    C3 5515   1.106   6.228   9.897  0.4465  0.2436 -0.9310
   42CHL1    H3 5516   1.191   6.269   9.838 -0.2560  2.7680 -0.3178
   42CHL1    O3 5517   1.095   6.309  10.016 -0.1082 -0.2771  0.5467
   42CHL1   H3' 5518   1.185   6.328  10.042 -0.0305  0.2256 -0.0589
   42CHL1    C4 5519   0.977   6.246   9.812 -0.0088  0.7058  0.5634
   42CHL1   H4A 5520   0.891   6.211   9.873 -0.3553  0.0187 -0.2974
   42CHL1   H4B 5521   0.965   6.355   9.790 -1.4742  0.1375 -1.8761
   42CHL1    C5 5522   0.979   6.168   9.687 -0.0986  0.5123  0.6577
   42CHL1    C6 5523   0.975   6.231   9.570  0.2860  0.1259  0.0003
   42CHL1    H6 5524   0.957   6.339   9.574 -1.0254 -0.0976  2.5490
   42CHL1    C7 5525   0.983   6.167   9.432 -0.1974 -0.1198 -0.5702
   42CHL1   H7A 5526   0.910   6.216   9.363 -0.8262  0.8659  0.7484
   42CHL1   H7B 5527   1.084   6.182   9.388 -0.3666  0.0429 -0.9128
   42CHL1    C8 5528   0.970   6.010   9.447  0.3249 -0.2568 -0.0232
   42CHL1    H8 5529   0.862   5.989   9.459  0.1704  0.7599  0.4330
   42CHL1   C14 5530   1.032   5.953   9.327  0.0262  0.5462  0.1499
   42CHL1   H14 5531   1.142   5.967   9.332  0.0183  1.5725 -1.7447
   42CHL1   C15 5532   0.988   6.011   9.184 -0.0495 -0.0773 -0.2647
   42CHL1  H15A 5533   0.877   6.023   9.182 -0.0463 -0.0926 -0.9082
   42CHL1  H15B 5534   1.044   6.105   9.167 -0.0743 -0.0479 -0.1846
   42CHL1   C16 5535   1.027   5.906   9.089 -0.5460  0.0659  0.7704
   42CHL1  H16A 5536   0.941   5.870   9.029 -0.4038  0.0592  0.5713
   42CHL1  H16B 5537   1.106   5.937   9.017 -1.3826 -1.3516 -0.8262
   42CHL1   C17 5538   1.086   5.786   9.172  0.8214 -0.2650 -0.3193
   42CHL1   H17 5539   1.189   5.824   9.191  1.7176 -3.6677  2.5290
   42CHL1   C13 5540   1.023   5.802   9.314 -0.6983  0.6102 -0.4575
   42CHL1   C18 5541   0.879   5.748   9.316 -0.5206  0.5223  0.1330
   42CHL1  H18A 5542   0.872   5.637   9.309 -4.9700  0.5700  0.9656
   42CHL1  H18B 5543   0.835   5.789   9.410  1.5266  0.5070  1.1610
   42CHL1  H18C 5544   0.822   5.786   9.229  1.6381 -1.0062 -2.0836
   42CHL1   C12 5545   1.111   5.745   9.427  0.6223 -0.0587  0.1749
   42CHL1  H12A 5546   1.087   5.637   9.436 -3.8248  0.6454 -0.8507
   42CHL1  H12B 5547   1.219   5.754   9.400  0.5962 -0.4135 -0.0537
   42CHL1   C11 5548   1.076   5.802   9.564 -0.5858  0.0086  0.2626
   42CHL1  H11A 5549   0.979   5.768   9.605  0.1040 -0.9662  1.1258
   42CHL1  H11B 5550   1.156   5.772   9.636 -0.9361  2.9825  2.0818
   42CHL1    C9 5551   1.052   5.957   9.567 -0.3530  0.1296 -0.2043
   42CHL1    H9 5552   1.155   5.992   9.547 -0.6431 -0.0110 -2.0666
   42CHL1   C10 5553   1.008   6.017   9.702 -0.4422 -0.6958 -0.9725
   42CHL1   C19 5554   0.877   5.955   9.755 -0.6024 -0.2182 -0.0922
   42CHL1  H19A 5555   0.839   6.000   9.849 -0.6649  0.3339 -0.3833
   42CHL1  H19B 5556   0.801   5.968   9.675  1.1144  1.1420 -1.5743
   42CHL1  H19C 5557   0.893   5.847   9.777  2.4812  0.6852  3.0487
   42CHL1    C1 5558   1.117   5.984   9.811 -0.1379  0.1862  0.6410
   42CHL1   H1A 5559   1.127   5.880   9.851  0.8027  0.7858  2.0457
   42CHL1   H1B 5560   1.212   6.005   9.758 -0.1461 -0.2295  0.4600
   42CHL1    C2 5561   1.128   6.083   9.932  0.4069  0.5832  0.3470
   42CHL1   H2A 5562   1.218   6.056   9.992 -0.8912 -0.8714  1.7555
   42CHL1   H2B 5563   1.042   6.058   9.997  0.4939  1.1474  0.6828
   42CHL1   C20 5564   1.078   5.655   9.097  0.1400 -0.5865 -0.2355
   42CHL1   H20 5565   0.970   5.630   9.086  0.4584 -2.7778  0.9977
   42CHL1   C21 5566   1.136   5.540   9.179  0.8209  0.6855 -0.1152
   42CHL1  H21A 5567   1.245   5.536   9.203  1.0217  0.0233 -1.0534
   42CHL1  H21B 5568   1.113   5.445   9.124 -0.6463  1.0773 -0.2040
   42CHL1  H21C 5569   1.097   5.535   9.282  0.3123  2.3774 -0.2023
   42CHL1   C22 5570   1.136   5.671   8.955 -0.0926 -0.0900 -0.7141
   42CHL1  H22A 5571   1.065   5.723   8.888 -0.5414  0.9493  0.5292
   42CHL1  H22B 5572   1.234   5.723   8.960  0.1399 -0.5666  2.8398
   42CHL1   C23 5573   1.150   5.536   8.880  0.4551 -0.1515  0.2175
   42CHL1  H23A 5574   1.234   5.474   8.918 -0.2709 -1.7465 -0.6602
   42CHL1  H23B 5575   1.053   5.482   8.892  1.1932 -1.1098  2.2926
   42CHL1   C24 5576   1.164   5.561   8.724 -0.0474  0.3847 -0.0839
   42CHL1  H24A 5577   1.065   5.578   8.677 -0.4266 -0.5360  0.3469
   42CHL1  H24B 5578   1.219   5.656   8.709  1.4927 -0.2645  1.1168
   42CHL1   C25 5579   1.225   5.444   8.652 -0.2398 -0.2806 -0.1544
   42CHL1   H25 5580   1.329   5.444   8.689 -0.6009  1.2794  0.9880
   42CHL1   C26 5581   1.162   5.312   8.695  0.6185  0.2444 -0.2937
   42CHL1  H26A 5582   1.227   5.231   8.655  2.0174  0.5474  1.2510
   42CHL1  H26B 5583   1.157   5.284   8.802  3.7390  0.1661 -0.0651
   42CHL1  H26C 5584   1.064   5.309   8.643  1.2079 -2.6810 -1.3935
   42CHL1   C27 5585   1.236   5.462   8.501  0.6133 -0.0603 -0.1345
   42CHL1  H27A 5586   1.298   5.387   8.446  0.9052 -2.3218  2.9724
   42CHL1  H27B 5587   1.136   5.453   8.453 -0.4298 -2.7419  2.2140
   42CHL1  H27C 5588   1.274   5.563   8.475 -0.4683  0.5271  0.5446
   43CHL1    C3 5589   1.183   6.696  10.222 -0.7039  0.3313 -0.2050
   43CHL1    H3 5590   1.173   6.800  10.259  3.6732  1.1887 -0.9218
   43CHL1    O3 5591   1.159   6.621  10.339  0.2159 -0.2038  0.0426
   43CHL1   H3' 5592   1.063   6.620  10.340  0.1785  0.1754 -1.3837
   43CHL1    C4 5593   1.082   6.658  10.114 -0.1508 -0.9612 -0.3356
   43CHL1   H4A 5594   1.086   6.547  10.106  0.0228 -0.9787  0.0178
   43CHL1   H4B 5595   0.982   6.683  10.156  0.0930 -0.8238  0.1656
   43CHL1    C5 5596   1.107   6.728   9.985  0.5901  0.4922 -0.1962
   43CHL1    C6 5597   1.019   6.816   9.931 -0.4434  0.2205 -0.8822
   43CHL1    H6 5598   0.922   6.818   9.983  0.1875 -3.0182  0.6118
   43CHL1    C7 5599   1.046   6.900   9.813 -0.1034  0.0487 -0.0446
   43CHL1   H7A 5600   0.949   6.913   9.760 -1.8334 -1.2285  2.6393
   43CHL1   H7B 5601   1.079   7.002   9.844 -0.5532 -0.1735  1.2061
   43CHL1    C8 5602   1.153   6.830   9.727  0.5742  0.0448  0.6649
   43CHL1    H8 5603   1.108   6.737   9.686 -1.3627  1.6303 -1.0392
   43CHL1   C14 5604   1.183   6.914   9.601  0.0786 -0.3750 -0.8806
   43CHL1   H14 5605   1.224   7.001   9.656 -4.1458  0.8575  0.6874
   43CHL1   C15 5606   1.062   6.967   9.512 -0.3637  0.7557  0.4562
   43CHL1  H15A 5607   0.986   6.887   9.497  0.2578  0.2113  0.1271
   43CHL1  H15B 5608   1.015   7.052   9.566  0.3690  1.0711  0.6183
   43CHL1   C16 5609   1.133   7.003   9.381  0.2323  0.2744  0.2738
   43CHL1  H16A 5610   1.088   6.933   9.307 -0.0866  1.6805 -0.8952
   43CHL1  H16B 5611   1.111   7.108   9.356 -0.1608  0.4358  1.2623
   43CHL1   C17 5612   1.284   6.974   9.400 -0.1956 -0.4707 -0.7847
   43CHL1   H17 5613   1.331   7.056   9.459 -2.2649  1.3695 -1.5637
   43CHL1   C13 5614   1.288   6.862   9.508  0.1450 -0.8590  0.2048
   43CHL1   C18 5615   1.262   6.733   9.425  0.4317  0.7465  0.7232
   43CHL1  H18A 5616   1.359   6.682   9.408 -0.1899 -0.2874  0.2237
   43CHL1  H18B 5617   1.194   6.678   9.494  0.7591  0.5412  0.8851
   43CHL1  H18C 5618   1.199   6.730   9.333  0.2531  0.8812  0.8413
   43CHL1   C12 5619   1.420   6.861   9.597  0.6156  0.0089  0.1574
   43CHL1  H12A 5620   1.508   6.829   9.536  0.7875 -0.9024  0.8627
   43CHL1  H12B 5621   1.428   6.964   9.636 -2.5985  0.1598  0.6444
   43CHL1   C11 5622   1.399   6.760   9.718 -0.2954  0.1577  0.8392
   43CHL1  H11A 5623   1.393   6.657   9.678 -0.1804  0.6669 -0.5609
   43CHL1  H11B 5624   1.489   6.754   9.782  1.2921 -0.3954 -1.3591
   43CHL1    C9 5625   1.283   6.801   9.806 -0.1244  0.6434  0.0957
   43CHL1    H9 5626   1.307   6.904   9.840 -2.0093  1.3766 -0.6530
   43CHL1   C10 5627   1.256   6.716   9.935  0.5318  0.2272 -0.7720
   43CHL1   C19 5628   1.270   6.565   9.897 -0.1018  0.1019  0.0834
   43CHL1  H19A 5629   1.372   6.548   9.857  0.4924 -1.7842  2.1809
   43CHL1  H19B 5630   1.264   6.500   9.987  1.4295 -0.6186 -0.2991
   43CHL1  H19C 5631   1.188   6.534   9.827 -1.2734  0.7072  1.1425
   43CHL1    C1 5632   1.361   6.749  10.046 -0.2271 -0.3599 -0.9643
   43CHL1   H1A 5633   1.462   6.722  10.008 -0.9818 -2.5321 -1.5790
   43CHL1   H1B 5634   1.359   6.857  10.073 -3.3028  0.1016 -2.5903
   43CHL1    C2 5635   1.330   6.676  10.177  0.9753  0.3923  0.4327
   43CHL1   H2A 5636   1.403   6.719  10.248  0.9777  0.1090  0.6022
   43CHL1   H2B 5637   1.348   6.567  10.173  1.1175  0.4035 -3.6532
   43CHL1   C20 5638   1.355   6.957   9.268 -0.2790  0.0891 -0.1593
   43CHL1   H20 5639   1.314   6.867   9.216  0.0120  0.2572 -0.6873
   43CHL1   C21 5640   1.507   6.940   9.295 -0.3464  0.4820 -0.0540
   43CHL1  H21A 5641   1.522   6.834   9.324 -2.4990 -0.4615 -2.0899
   43CHL1  H21B 5642   1.542   7.017   9.367  2.0068  1.0437 -1.6590
   43CHL1  H21C 5643   1.574   6.962   9.209 -0.4277  1.2888  0.0821
   43CHL1   C22 5644   1.328   7.087   9.184 -0.0291  0.0780  0.4097
   43CHL1  H22A 5645   1.222   7.121   9.182 -0.3510 -0.8386  1.2405
   43CHL1  H22B 5646   1.392   7.159   9.240 -0.4854 -0.1021  1.1671
   43CHL1   C23 5647   1.378   7.071   9.039 -0.2312 -0.1894 -0.7963
   43CHL1  H23A 5648   1.476   7.019   9.032 -0.3251 -0.2853 -1.3785
   43CHL1  H23B 5649   1.302   7.000   9.000  0.6631 -1.9427  0.5062
   43CHL1   C24 5650   1.396   7.201   8.963  0.2166  0.5462 -0.2101
   43CHL1  H24A 5651   1.316   7.276   8.977 -0.3226  0.2844 -1.7062
   43CHL1  H24B 5652   1.487   7.243   9.011 -0.0596  1.1151 -0.1834
   43CHL1   C25 5653   1.432   7.198   8.817 -0.1548 -0.1033 -0.0900
   43CHL1   H25 5654   1.524   7.138   8.804  0.1485  0.7143 -1.9686
   43CHL1   C26 5655   1.330   7.132   8.725 -0.5002  0.4087 -0.3493
   43CHL1  H26A 5656   1.231   7.176   8.753  0.1107  0.0008  2.9171
   43CHL1  H26B 5657   1.359   7.133   8.618  2.7015 -1.4784  0.3861
   43CHL1  H26C 5658   1.313   7.024   8.745  1.9639  0.2334  1.2663
   43CHL1   C27 5659   1.468   7.345   8.773 -0.1782 -0.7179 -0.0476
   43CHL1  H27A 5660   1.386   7.409   8.812 -1.0095 -0.9697 -1.3485
   43CHL1  H27B 5661   1.566   7.366   8.822 -1.0849 -0.6258  1.8395
   43CHL1  H27C 5662   1.469   7.358   8.663  0.8203  3.7321  0.2820
   44CHL1    C3 5663   1.341   0.419  10.303 -0.0547  0.0489 -0.3944
   44CHL1    H3 5664   1.411   0.346  10.256  0.0925 -1.8438  2.5128
   44CHL1    O3 5665   1.363   0.424  10.442  0.1823  0.1924  0.4255
   44CHL1   H3' 5666   1.381   0.334  10.467  2.4879  1.1081  2.4929
   44CHL1    C4 5667   1.382   0.556  10.244  0.8666 -0.7673 -0.0774
   44CHL1   H4A 5668   1.321   0.632  10.298  0.0769 -1.3080 -0.1739
   44CHL1   H4B 5669   1.489   0.576  10.266  1.3962 -2.3202 -1.0592
   44CHL1    C5 5670   1.350   0.569  10.102 -0.1898  0.1522  0.6211
   44CHL1    C6 5671   1.446   0.611  10.018 -0.4804 -0.1963  0.0234
   44CHL1    H6 5672   1.548   0.643  10.046 -0.1391  3.5719 -4.2769
   44CHL1    C7 5673   1.429   0.625   9.869 -0.2876 -0.0567  0.1123
   44CHL1   H7A 5674   1.461   0.726   9.839  0.7710 -0.3493  0.2213
   44CHL1   H7B 5675   1.484   0.540   9.824 -1.2026 -0.2881 -0.5955
   44CHL1    C8 5676   1.279   0.614   9.828  0.6419  0.1063  0.6028
   44CHL1    H8 5677   1.223   0.710   9.836  0.3816  0.0294 -0.2021
   44CHL1   C14 5678   1.274   0.585   9.682 -0.1410 -0.1880 -0.4115
   44CHL1   H14 5679   1.307   0.480   9.667  0.0529 -0.3278  0.9432
   44CHL1   C15 5680   1.355   0.678   9.587  0.0802  0.1404  0.4178
   44CHL1  H15A 5681   1.327   0.784   9.606 -0.0982  0.5694 -1.9679
   44CHL1  H15B 5682   1.463   0.654   9.589 -0.1827 -1.0583  1.2340
   44CHL1   C16 5683   1.302   0.645   9.448  0.0728 -0.9387 -0.2420
   44CHL1  H16A 5684   1.282   0.739   9.392 -1.7099 -0.3865  1.2211
   44CHL1  H16B 5685   1.368   0.571   9.398  1.5630 -0.9229  1.5640
   44CHL1   C17 5686   1.158   0.581   9.481 -0.4635  0.6861  0.7958
   44CHL1   H17 5687   1.173   0.471   9.472  2.5310  0.9565  1.6744
   44CHL1   C13 5688   1.132   0.597   9.631  0.1364 -0.5305 -0.1441
   44CHL1   C18 5689   1.063   0.739   9.650 -0.5243  0.5720  0.5578
   44CHL1  H18A 5690   1.117   0.828   9.610  0.6682 -0.5976 -0.5292
   44CHL1  H18B 5691   0.961   0.738   9.605 -0.6738 -3.0830  0.6870
   44CHL1  H18C 5692   1.028   0.757   9.754 -0.3221  1.8445  0.4280
   44CHL1   C12 5693   1.053   0.478   9.696  1.0803  0.0667  0.0952
   44CHL1  H12A 5694   0.953   0.486   9.648  1.4974  1.2770 -0.6254
   44CHL1  H12B 5695   1.105   0.386   9.660  1.7239  1.1967 -2.0423
   44CHL1   C11 5696   1.049   0.493   9.851  0.7440 -0.5968  0.2614
   44CHL1  H11A 5697   0.990   0.584   9.875  3.5456  0.6581  3.0713
   44CHL1  H11B 5698   1.004   0.399   9.889  2.4877 -1.5551  0.0644
   44CHL1    C9 5699   1.195   0.507   9.904  0.1431 -0.3360 -0.3278
   44CHL1    H9 5700   1.236   0.408   9.875  1.3091 -0.5271  1.7746
   44CHL1   C10 5701   1.210   0.520  10.060  0.5203 -0.4120  0.0353
   44CHL1   C19 5702   1.115   0.635  10.120  0.9531  0.5513  0.8784
   44CHL1  H19A 5703   1.140   0.733  10.075  2.7282  0.2095  1.0187
   44CHL1  H19B 5704   1.015   0.605  10.082  1.4196  1.1201 -0.8738
   44CHL1  H19C 5705   1.106   0.639  10.231  0.3665 -0.3368  0.8757
   44CHL1    C1 5706   1.172   0.387  10.128  0.1422  0.0038  0.9218
   44CHL1   H1A 5707   1.063   0.373  10.109  0.3733 -0.8107  0.1057
   44CHL1   H1B 5708   1.225   0.305  10.075 -0.2294  1.8987 -2.6409
   44CHL1    C2 5709   1.203   0.371  10.276  0.6863 -0.3186  0.0767
   44CHL1   H2A 5710   1.194   0.266  10.312  0.1047 -0.1885  0.3322
   44CHL1   H2B 5711   1.132   0.430  10.337  1.4152  0.4012  0.2452
   44CHL1   C20 5712   1.048   0.621   9.380 -0.1460  0.7232 -0.3210
   44CHL1   H20 5713   1.030   0.728   9.401  1.9404  1.0247  0.1416
   44CHL1   C21 5714   0.918   0.553   9.385 -0.3744  0.5439 -0.3232
   44CHL1  H21A 5715   0.880   0.569   9.488  1.2395  0.3893  0.3131
   44CHL1  H21B 5716   0.934   0.444   9.371 -0.3695  0.4314  0.5372
   44CHL1  H21C 5717   0.841   0.580   9.309 -2.1933  0.0266  1.2517
   44CHL1   C22 5718   1.088   0.611   9.231 -0.7835 -0.3486  0.3676
   44CHL1  H22A 5719   1.196   0.582   9.231 -0.4834  0.7169  0.6564
   44CHL1  H22B 5720   1.024   0.542   9.174 -0.6345  1.2022 -1.7975
   44CHL1   C23 5721   1.077   0.753   9.158 -0.3481  0.1334  0.4933
   44CHL1  H23A 5722   0.969   0.771   9.141 -0.3812  1.7993  2.1172
   44CHL1  H23B 5723   1.121   0.836   9.218 -0.0002  1.3335 -1.3306
   44CHL1   C24 5724   1.167   0.756   9.032  0.1018 -0.1505  0.0334
   44CHL1  H24A 5725   1.274   0.747   9.060  0.1059 -1.1902 -0.2822
   44CHL1  H24B 5726   1.132   0.672   8.969  2.3078  0.0102 -1.5356
   44CHL1   C25 5727   1.151   0.877   8.946  1.0507 -0.0569  0.0354
   44CHL1   H25 5728   1.184   0.966   9.004 -0.6696  0.5991  0.0970
   44CHL1   C26 5729   1.236   0.878   8.815 -0.1557 -0.0860  0.1940
   44CHL1  H26A 5730   1.342   0.863   8.845 -0.7413 -1.0047  1.9336
   44CHL1  H26B 5731   1.207   0.789   8.755 -0.7814 -0.5468  1.1485
   44CHL1  H26C 5732   1.227   0.972   8.758  0.1063 -1.9263 -3.1515
   44CHL1   C27 5733   1.005   0.915   8.903  1.0556 -0.0131  0.2916
   44CHL1  H27A 5734   0.946   0.930   8.996 -1.1661 -0.1922 -1.0381
   44CHL1  H27B 5735   1.021   1.007   8.844 -0.2603 -0.0418 -0.1250
   44CHL1  H27C 5736   0.956   0.834   8.845 -0.5074 -3.0111  5.1281
   45CHL1    C3 5737   5.359   5.152  10.429 -0.6051 -0.3428  0.3070
   45CHL1    H3 5738   5.413   5.245  10.456 -0.8328  0.3113 -1.3646
   45CHL1    O3 5739   5.386   5.043  10.516 -0.3184  0.4252 -0.3183
   45CHL1   H3' 5740   5.310   4.987  10.495  0.6321 -0.6874 -0.9819
   45CHL1    C4 5741   5.212   5.184  10.400 -0.2347  0.5760  0.1321
   45CHL1   H4A 5742   5.153   5.094  10.374 -1.0541  0.9445  0.6561
   45CHL1   H4B 5743   5.161   5.208  10.496 -2.9607 -3.1618 -0.1868
   45CHL1    C5 5744   5.193   5.295  10.295  0.0547  0.0416 -0.2791
   45CHL1    C6 5745   5.115   5.399  10.325  0.6762  0.3142  0.1522
   45CHL1    H6 5746   5.054   5.390  10.416 -0.7861 -2.5167 -0.9571
   45CHL1    C7 5747   5.088   5.505  10.231  0.0660  0.4463 -0.0954
   45CHL1   H7A 5748   4.978   5.522  10.227  0.1332  1.5787  1.7971
   45CHL1   H7B 5749   5.135   5.601  10.259 -0.7777  1.5330 -2.1277
   45CHL1    C8 5750   5.147   5.493  10.091 -0.0529 -0.0875 -0.0023
   45CHL1    H8 5751   5.184   5.595  10.069  0.9502  0.3493  3.2728
   45CHL1   C14 5752   5.049   5.462   9.976 -0.3592  0.2323  0.3352
   45CHL1   H14 5753   5.014   5.357   9.985  0.5270 -0.1210 -0.2007
   45CHL1   C15 5754   4.927   5.560   9.972  0.0352  0.1779 -0.4753
   45CHL1  H15A 5755   4.831   5.508   9.995 -1.4532  2.4177 -1.2187
   45CHL1  H15B 5756   4.931   5.634  10.055  1.6110 -1.1281  0.6694
   45CHL1   C16 5757   4.911   5.623   9.830  0.1845  0.4372  0.1724
   45CHL1  H16A 5758   4.839   5.551   9.786  1.1085 -0.5373  0.1895
   45CHL1  H16B 5759   4.883   5.730   9.833  0.6139  0.5419  0.4860
   45CHL1   C17 5760   5.054   5.604   9.779  0.5408 -0.9753  0.0343
   45CHL1   H17 5761   5.105   5.693   9.824  2.4192 -1.4671 -0.9974
   45CHL1   C13 5762   5.118   5.472   9.830 -0.1129  0.4253 -0.0655
   45CHL1   C18 5763   5.062   5.353   9.744 -0.3978 -0.3392  0.1946
   45CHL1  H18A 5764   4.951   5.347   9.750 -0.6158  0.3525 -2.3868
   45CHL1  H18B 5765   5.088   5.367   9.637  0.8503  2.2614  0.7612
   45CHL1  H18C 5766   5.126   5.267   9.774 -1.8589 -0.8118  2.2304
   45CHL1   C12 5767   5.270   5.474   9.836  0.0508 -0.5589  0.3978
   45CHL1  H12A 5768   5.314   5.447   9.737 -2.5616 -1.5490 -0.5732
   45CHL1  H12B 5769   5.300   5.577   9.866 -1.1639  0.2904 -1.1223
   45CHL1   C11 5770   5.327   5.377   9.938  0.1335  0.2486 -0.6008
   45CHL1  H11A 5771   5.317   5.270   9.907  0.7839 -0.3137  1.0122
   45CHL1  H11B 5772   5.433   5.411   9.938 -0.3485  1.8696  0.5224
   45CHL1    C9 5773   5.278   5.403  10.085  0.1665 -0.6440  0.9622
   45CHL1    H9 5774   5.356   5.468  10.131  2.5236 -1.7229 -1.2906
   45CHL1   C10 5775   5.264   5.275  10.172 -0.3370  0.0438  0.7765
   45CHL1   C19 5776   5.184   5.166  10.094 -0.4286  0.6045 -1.2789
   45CHL1  H19A 5777   5.253   5.128  10.016  0.3778 -0.8933  0.0860
   45CHL1  H19B 5778   5.159   5.075  10.152  1.8817 -0.3513 -1.6644
   45CHL1  H19C 5779   5.091   5.199  10.043 -1.4015  1.3542  0.8191
   45CHL1    C1 5780   5.413   5.232  10.199  0.2274 -0.2744 -0.4327
   45CHL1   H1A 5781   5.460   5.207  10.101 -2.1288 -2.3837 -1.1063
   45CHL1   H1B 5782   5.453   5.329  10.237 -1.2037  0.4309 -0.6808
   45CHL1    C2 5783   5.429   5.117  10.294 -0.0046  0.5396 -0.2530
   45CHL1   H2A 5784   5.535   5.088  10.316 -0.8046 -2.8287 -0.2718
   45CHL1   H2B 5785   5.374   5.035  10.244  0.1759  0.5327 -0.4412
   45CHL1   C20 5786   5.067   5.624   9.623  0.2729 -0.4230 -0.2462
   45CHL1   H20 5787   5.165   5.580   9.593  0.9341 -0.5686  1.9673
   45CHL1   C21 5788   5.093   5.773   9.594 -0.7683 -0.0920  0.9238
   45CHL1  H21A 5789   5.006   5.834   9.625 -0.3264  1.3771 -0.5647
   45CHL1  H21B 5790   5.104   5.785   9.484  1.9529 -1.3729  0.9819
   45CHL1  H21C 5791   5.185   5.813   9.642 -0.6188 -0.9477  1.3736
   45CHL1   C22 5792   4.948   5.569   9.537  0.1973 -0.6824  0.4187
   45CHL1  H22A 5793   4.916   5.469   9.574  1.1805 -1.2637 -0.2543
   45CHL1  H22B 5794   4.861   5.638   9.538  0.6873 -0.0633  0.2178
   45CHL1   C23 5795   4.993   5.565   9.392  0.7108  0.3402 -0.0558
   45CHL1  H23A 5796   4.992   5.668   9.349 -0.3827 -0.1042 -1.1617
   45CHL1  H23B 5797   5.102   5.545   9.388  0.8116  0.6824  0.7770
   45CHL1   C24 5798   4.916   5.469   9.303  0.7139 -0.0617 -0.3474
   45CHL1  H24A 5799   4.897   5.376   9.360  3.5868  0.1096  1.0974
   45CHL1  H24B 5800   4.819   5.512   9.271  1.9310  1.7787 -1.8047
   45CHL1   C25 5801   4.989   5.422   9.177  0.6756 -0.1001  0.2146
   45CHL1   H25 5802   4.918   5.352   9.128  1.0173  1.0766 -2.0803
   45CHL1   C26 5803   5.032   5.537   9.082 -0.2731  0.5430 -0.0418
   45CHL1  H26A 5804   5.096   5.607   9.140 -1.6467  1.9581 -0.1713
   45CHL1  H26B 5805   5.084   5.506   8.989  1.9650 -1.8742  1.8468
   45CHL1  H26C 5806   4.944   5.597   9.053  0.1846  1.6840  0.8593
   45CHL1   C27 5807   5.112   5.337   9.210 -0.1588  0.5833 -0.4550
   45CHL1  H27A 5808   5.201   5.401   9.231  0.0863  0.7652 -1.9204
   45CHL1  H27B 5809   5.087   5.292   9.308 -0.0029 -0.6515 -0.9735
   45CHL1  H27C 5810   5.136   5.271   9.125 -0.0469  0.1871 -0.1205
   46CHL1    C3 5811   0.945   2.720  10.193 -0.0334  0.1849 -0.1734
   46CHL1    H3 5812   1.054   2.730  10.175 -0.0941  0.0202 -0.6533
   46CHL1    O3 5813   0.924   2.662  10.318  0.3184  0.0082  0.0792
   46CHL1   H3' 5814   0.998   2.601  10.325 -0.7588 -1.1686  2.6843
   46CHL1    C4 5815   0.879   2.855  10.170  0.2021  0.0228  0.6238
   46CHL1   H4A 5816   0.780   2.833  10.215 -0.5817  2.2624  0.1104
   46CHL1   H4B 5817   0.950   2.918  10.229  2.7948 -0.5391 -1.6879
   46CHL1    C5 5818   0.866   2.893  10.026  0.3921  0.4951 -0.0878
   46CHL1    C6 5819   0.904   3.012   9.987  0.3453 -0.4993 -0.1098
   46CHL1    H6 5820   0.942   3.080  10.064  0.8596  0.7426 -1.4160
   46CHL1    C7 5821   0.888   3.075   9.852 -0.0813  0.2457  0.4313
   46CHL1   H7A 5822   0.857   3.181   9.844 -1.0068 -0.0812 -0.4568
   46CHL1   H7B 5823   0.994   3.076   9.818  0.0980  0.7922  0.9918
   46CHL1    C8 5824   0.799   2.984   9.758  0.5325 -0.2188 -0.5983
   46CHL1    H8 5825   0.694   3.015   9.776  1.0536  1.7772 -0.7599
   46CHL1   C14 5826   0.821   3.016   9.608 -0.5313  0.2678  0.4373
   46CHL1   H14 5827   0.920   2.969   9.593 -2.1880 -3.0109 -1.2225
   46CHL1   C15 5828   0.845   3.159   9.555 -0.0075  0.1582 -0.0865
   46CHL1  H15A 5829   0.766   3.224   9.598 -2.3249  0.4262 -4.2162
   46CHL1  H15B 5830   0.948   3.190   9.583 -0.4735  0.9337  0.8207
   46CHL1   C16 5831   0.816   3.143   9.398 -0.2630 -0.3116  0.1638
   46CHL1  H16A 5832   0.728   3.206   9.376 -1.2340 -1.4173  0.7696
   46CHL1  H16B 5833   0.909   3.174   9.345 -0.5799  2.0696  0.8672
   46CHL1   C17 5834   0.787   2.991   9.368 -0.4941  0.2341  0.0742
   46CHL1   H17 5835   0.883   2.938   9.350 -1.3078 -1.2191 -0.1853
   46CHL1   C13 5836   0.737   2.941   9.502 -0.5127  0.8953 -0.7211
   46CHL1   C18 5837   0.588   2.983   9.512  0.2840 -0.1603  0.0582
   46CHL1  H18A 5838   0.548   2.958   9.613 -1.5378 -0.0356 -0.5947
   46CHL1  H18B 5839   0.584   3.094   9.512 -1.3664 -0.1328  2.8167
   46CHL1  H18C 5840   0.521   2.936   9.437  0.7644 -0.3390 -0.2617
   46CHL1   C12 5841   0.759   2.784   9.531  0.3996  0.7267 -0.2303
   46CHL1  H12A 5842   0.687   2.721   9.477  0.4912  0.9343 -0.5998
   46CHL1  H12B 5843   0.854   2.734   9.503 -0.9856 -1.9711 -0.3431
   46CHL1   C11 5844   0.727   2.763   9.681 -0.5717  0.6195  0.7363
   46CHL1  H11A 5845   0.621   2.793   9.694 -1.4946 -1.3978 -1.4026
   46CHL1  H11B 5846   0.731   2.656   9.711  1.8088  0.6255  0.6573
   46CHL1    C9 5847   0.823   2.836   9.780  0.2098  0.8364  0.2139
   46CHL1    H9 5848   0.928   2.810   9.755 -0.1987 -0.8369  0.1654
   46CHL1   C10 5849   0.811   2.790   9.927  0.2983 -0.5704 -0.6003
   46CHL1   C19 5850   0.663   2.757   9.956  0.4378  0.1355 -0.2979
   46CHL1  H19A 5851   0.644   2.748  10.065  1.2032  1.5361 -0.0169
   46CHL1  H19B 5852   0.598   2.843   9.929  1.1977  1.1588  0.9994
   46CHL1  H19C 5853   0.630   2.660   9.915 -0.7936 -1.0080  3.0792
   46CHL1    C1 5854   0.891   2.665   9.950  0.1917  0.2342  0.8846
   46CHL1   H1A 5855   0.853   2.588   9.880 -0.9016  0.8999  0.7214
   46CHL1   H1B 5856   0.999   2.678   9.931 -0.3364  0.8931 -2.0685
   46CHL1    C2 5857   0.882   2.619  10.092  0.1463  0.3476 -0.7200
   46CHL1   H2A 5858   0.950   2.531  10.099 -0.5552 -0.1350  0.1727
   46CHL1   H2B 5859   0.781   2.587  10.126  1.0132 -1.0696  0.6866
   46CHL1   C20 5860   0.699   2.971   9.237 -0.5609 -0.1751  0.3421
   46CHL1   H20 5861   0.602   3.021   9.257 -0.0768  0.7439  0.4844
   46CHL1   C21 5862   0.693   2.819   9.216  0.2756 -0.3195  0.7396
   46CHL1  H21A 5863   0.799   2.785   9.211 -0.3550 -2.2245 -0.7568
   46CHL1  H21B 5864   0.647   2.787   9.120  0.6313 -1.8921  1.0684
   46CHL1  H21C 5865   0.629   2.769   9.292 -0.4716  1.2250  1.1547
   46CHL1   C22 5866   0.753   3.045   9.112 -0.1731 -0.2613  0.6485
   46CHL1  H22A 5867   0.680   3.011   9.035 -1.0719 -2.3276  2.2841
   46CHL1  H22B 5868   0.744   3.154   9.128 -0.9925 -0.0862 -0.8444
   46CHL1   C23 5869   0.905   3.018   9.083  0.5323  0.5564 -0.5341
   46CHL1  H23A 5870   0.962   3.051   9.172  0.5534 -2.7086  0.8071
   46CHL1  H23B 5871   0.929   2.910   9.079  3.3993  1.1366 -2.9158
   46CHL1   C24 5872   0.963   3.077   8.955 -0.1296  0.2804 -0.6698
   46CHL1  H24A 5873   1.072   3.070   8.973 -0.6050 -1.6801  2.1949
   46CHL1  H24B 5874   0.920   3.025   8.867  1.3867 -1.8090 -0.2443
   46CHL1   C25 5875   0.950   3.233   8.943 -0.2610 -0.3589  0.9049
   46CHL1   H25 5876   0.845   3.268   8.955 -0.5020 -0.3731 -0.9238
   46CHL1   C26 5877   1.036   3.312   9.041 -0.5007 -0.1429  0.3056
   46CHL1  H26A 5878   1.028   3.270   9.143  0.3559  0.5076  0.6478
   46CHL1  H26B 5879   1.142   3.294   9.012 -0.5317  0.9570 -0.5920
   46CHL1  H26C 5880   1.019   3.421   9.050  0.3942  0.0540 -0.2835
   46CHL1   C27 5881   0.985   3.302   8.804  0.5547  0.1623 -1.4848
   46CHL1  H27A 5882   0.980   3.413   8.801 -0.9445  0.3741  2.3293
   46CHL1  H27B 5883   1.093   3.279   8.792  0.2211 -0.8272 -2.8236
   46CHL1  H27C 5884   0.923   3.246   8.730 -0.5924  0.4214 -0.7622
   47CHL1    C3 5885   1.676   6.406  10.098 -0.2242  0.2585 -0.8244
   47CHL1    H3 5886   1.581   6.462  10.100  0.6190  1.7237  0.2088
   47CHL1    O3 5887   1.715   6.392  10.236 -0.2119  0.3607  0.3584
   47CHL1   H3' 5888   1.725   6.299  10.258 -0.2018  0.2114 -0.2604
   47CHL1    C4 5889   1.654   6.274  10.028 -0.2370 -0.0935 -0.1903
   47CHL1   H4A 5890   1.745   6.213  10.040  0.3898  1.0885  1.4492
   47CHL1   H4B 5891   1.570   6.217  10.072 -0.2987 -1.2986 -1.7962
   47CHL1    C5 5892   1.609   6.295   9.880 -0.1541 -0.7976 -0.2166
   47CHL1    C6 5893   1.490   6.245   9.833 -0.2494  1.0342  0.2739
   47CHL1    H6 5894   1.432   6.185   9.904  0.8379  0.5919  0.8046
   47CHL1    C7 5895   1.435   6.252   9.692 -0.8152  0.0327 -0.1321
   47CHL1   H7A 5896   1.399   6.152   9.659 -0.4231  0.0345 -0.5783
   47CHL1   H7B 5897   1.362   6.336   9.684  0.9884  1.6378 -0.5221
   47CHL1    C8 5898   1.552   6.296   9.601  0.1675 -0.6660  0.0346
   47CHL1    H8 5899   1.615   6.205   9.590  1.4186 -0.0179  1.4735
   47CHL1   C14 5900   1.502   6.349   9.466  0.4568  0.5383 -0.5314
   47CHL1   H14 5901   1.449   6.442   9.497 -0.8507 -0.3594 -0.0068
   47CHL1   C15 5902   1.388   6.274   9.400 -0.2236 -0.2815 -0.5456
   47CHL1  H15A 5903   1.411   6.165   9.401 -0.0605 -0.2470 -0.2250
   47CHL1  H15B 5904   1.295   6.306   9.452  0.3271  2.0042 -0.8479
   47CHL1   C16 5905   1.395   6.320   9.252 -0.1290  0.9423  0.4683
   47CHL1  H16A 5906   1.407   6.229   9.189 -0.7138  0.1084  1.5289
   47CHL1  H16B 5907   1.294   6.350   9.218 -1.3884 -3.5286 -0.4276
   47CHL1   C17 5908   1.511   6.423   9.242  0.5257 -0.0536  0.1056
   47CHL1   H17 5909   1.454   6.516   9.261 -0.4186 -0.7584  0.8280
   47CHL1   C13 5910   1.600   6.387   9.362 -1.0888  0.5444  0.2144
   47CHL1   C18 5911   1.681   6.264   9.315 -0.7944  0.5664 -0.1150
   47CHL1  H18A 5912   1.749   6.296   9.233  0.4429 -0.3472  0.5194
   47CHL1  H18B 5913   1.734   6.211   9.397 -1.1864 -1.1160 -0.9220
   47CHL1  H18C 5914   1.610   6.186   9.281 -1.1562  1.3488 -1.1998
   47CHL1   C12 5915   1.688   6.494   9.425 -0.3480 -0.0959 -0.9987
   47CHL1  H12A 5916   1.777   6.509   9.360  0.7908 -1.7725  0.0721
   47CHL1  H12B 5917   1.624   6.584   9.433 -0.3418 -0.2622  2.1248
   47CHL1   C11 5918   1.749   6.461   9.562  0.9180  0.3500  0.0266
   47CHL1  H11A 5919   1.808   6.367   9.552 -0.4859 -0.8028  1.8532
   47CHL1  H11B 5920   1.813   6.546   9.597  1.8502 -0.7340  1.0672
   47CHL1    C9 5921   1.643   6.409   9.663 -0.0929  0.3736  0.5196
   47CHL1    H9 5922   1.574   6.494   9.679  1.9037  2.2001 -0.0192
   47CHL1   C10 5923   1.705   6.386   9.802 -0.0583  0.1426 -0.1403
   47CHL1   C19 5924   1.834   6.300   9.783  0.4049  0.2011 -0.3808
   47CHL1  H19A 5925   1.819   6.214   9.715 -1.3613  0.8145 -0.8037
   47CHL1  H19B 5926   1.914   6.364   9.738  0.5014  0.6328  0.3823
   47CHL1  H19C 5927   1.872   6.257   9.878  0.9689 -3.6126 -2.1157
   47CHL1    C1 5928   1.730   6.516   9.882 -0.3511 -0.0787  0.8160
   47CHL1   H1A 5929   1.798   6.575   9.817 -1.6473  0.4978 -0.0453
   47CHL1   H1B 5930   1.636   6.575   9.889 -0.3476 -0.2586  3.8870
   47CHL1    C2 5931   1.785   6.490  10.024 -0.1269 -0.1912  0.8900
   47CHL1   H2A 5932   1.807   6.590  10.068  0.1558  0.0120  0.2947
   47CHL1   H2B 5933   1.879   6.430  10.022  0.3657  0.5653 -0.8124
   47CHL1   C20 5934   1.570   6.433   9.102 -0.0770  0.2397  0.5709
   47CHL1   H20 5935   1.615   6.333   9.078 -0.4074  0.1804  0.1939
   47CHL1   C21 5936   1.674   6.551   9.090 -0.1746  0.6842  0.1336
   47CHL1  H21A 5937   1.689   6.576   8.983 -2.4199  0.1066 -0.3800
   47CHL1  H21B 5938   1.769   6.517   9.135  0.5924  1.9679 -0.4714
   47CHL1  H21C 5939   1.632   6.640   9.144 -0.2896  0.5226  0.3116
   47CHL1   C22 5940   1.464   6.445   8.999  0.1093  0.8267 -0.2428
   47CHL1  H22A 5941   1.516   6.430   8.902  0.8286  3.0846 -0.2581
   47CHL1  H22B 5942   1.397   6.356   9.005  1.6359 -0.4283 -0.9221
   47CHL1   C23 5943   1.389   6.587   8.989 -0.5976 -0.6785 -0.2239
   47CHL1  H23A 5944   1.343   6.619   9.084 -0.0752  1.0894 -0.5373
   47CHL1  H23B 5945   1.458   6.673   8.973 -0.6168 -0.5969  0.1430
   47CHL1   C24 5946   1.284   6.580   8.877  0.0442 -1.0277 -0.1516
   47CHL1  H24A 5947   1.322   6.539   8.781  1.7640 -1.8404  0.8241
   47CHL1  H24B 5948   1.203   6.513   8.912  0.4811 -1.5720 -0.1604
   47CHL1   C25 5949   1.228   6.724   8.858  0.4233  0.3684 -0.2014
   47CHL1   H25 5950   1.316   6.789   8.839  1.3176 -1.0032 -0.9198
   47CHL1   C26 5951   1.141   6.720   8.735 -0.7371 -0.3552 -0.1757
   47CHL1  H26A 5952   1.082   6.810   8.709 -2.8200 -1.4348  0.6111
   47CHL1  H26B 5953   1.064   6.640   8.738 -2.8325  1.5777  0.4531
   47CHL1  H26C 5954   1.199   6.693   8.644  1.8194 -2.4210  1.8979
   47CHL1   C27 5955   1.149   6.772   8.977  0.1036  0.0954 -0.1824
   47CHL1  H27A 5956   1.124   6.879   8.962  0.9424 -0.0197 -2.8747
   47CHL1  H27B 5957   1.062   6.703   8.983  1.7566 -2.1669 -0.6766
   47CHL1  H27C 5958   1.205   6.760   9.073  2.3683  1.6816 -1.2248
   48CHL1    C3 5959   3.815   0.832  10.067  0.0353 -0.3924  0.0002
   48CHL1    H3 5960   3.733   0.758  10.055 -0.7292  0.4311  0.0444
   48CHL1    O3 5961   3.813   0.876  10.202  0.1982  0.0169  0.7267
   48CHL1   H3' 5962   3.815   0.970  10.186 -2.0324 -0.0960 -0.6276
   48CHL1    C4 5963   3.948   0.773  10.028 -0.1621  0.3855  0.0806
   48CHL1   H4A 5964   4.029   0.842  10.061 -0.9060 -0.2331  3.5429
   48CHL1   H4B 5965   3.969   0.689  10.097  0.6670  0.3217 -0.2299
   48CHL1    C5 5966   3.960   0.726   9.890  0.5845 -1.3454  0.9919
   48CHL1    C6 5967   3.989   0.601   9.855  0.2660 -0.6758  0.0591
   48CHL1    H6 5968   3.995   0.525   9.934 -0.4857 -0.6448  0.1562
   48CHL1    C7 5969   3.992   0.552   9.716  0.0401  0.7813 -0.1674
   48CHL1   H7A 5970   4.077   0.484   9.694 -0.1607  0.3615  0.3354
   48CHL1   H7B 5971   3.901   0.491   9.700  1.2389 -1.4399  1.1389
   48CHL1    C8 5972   3.998   0.663   9.608 -0.4190  0.3639 -0.4249
   48CHL1    H8 5973   4.094   0.718   9.609 -0.6616  0.7923 -0.1448
   48CHL1   C14 5974   3.957   0.613   9.468  0.0527  0.3821  0.0566
   48CHL1   H14 5975   3.861   0.556   9.476  0.6034 -0.3426  1.9341
   48CHL1   C15 5976   4.054   0.505   9.425 -0.1275  0.2735 -0.5492
   48CHL1  H15A 5977   4.155   0.549   9.437 -0.7133  1.1319  1.8803
   48CHL1  H15B 5978   4.051   0.415   9.490  2.1205  0.0349 -0.6946
   48CHL1   C16 5979   4.024   0.500   9.280 -0.5078 -0.1551  0.3291
   48CHL1  H16A 5980   4.121   0.499   9.225  0.2741  0.0922  1.6727
   48CHL1  H16B 5981   3.963   0.413   9.248 -0.9338  0.1234  0.3634
   48CHL1   C17 5982   3.928   0.625   9.244 -0.7637 -0.5919  0.2707
   48CHL1   H17 5983   3.823   0.590   9.258 -0.7123 -0.3019  1.5162
   48CHL1   C13 5984   3.946   0.719   9.357 -0.6485 -0.0817  0.1041
   48CHL1   C18 5985   4.080   0.796   9.337 -0.5547 -0.1546 -0.0344
   48CHL1  H18A 5986   4.073   0.860   9.246  0.7185  0.1062  0.0295
   48CHL1  H18B 5987   4.113   0.851   9.427 -3.1690  0.4278  0.6456
   48CHL1  H18C 5988   4.166   0.727   9.320  0.3033  1.1208 -1.0797
   48CHL1   C12 5989   3.839   0.811   9.405  0.5445 -0.6710  0.2613
   48CHL1  H12A 5990   3.845   0.900   9.338  2.2868 -1.2085 -0.3471
   48CHL1  H12B 5991   3.738   0.767   9.391 -0.3298  0.0074  3.5676
   48CHL1   C11 5992   3.867   0.877   9.539  0.5203  0.1454  0.6562
   48CHL1  H11A 5993   3.944   0.955   9.524 -0.8630  1.6136  1.0172
   48CHL1  H11B 5994   3.774   0.932   9.565 -0.9955 -0.8821 -2.1549
   48CHL1    C9 5995   3.895   0.768   9.649  0.5127  0.2410  0.5692
   48CHL1    H9 5996   3.800   0.712   9.666 -0.5992  0.8374 -2.8641
   48CHL1   C10 5997   3.926   0.834   9.786  0.2342  0.0648  0.9580
   48CHL1   C19 5998   4.037   0.945   9.767 -0.3484 -0.3007 -0.4405
   48CHL1  H19A 5999   3.987   1.031   9.718 -1.4637 -0.2373  0.7253
   48CHL1  H19B 6000   4.054   0.991   9.867 -2.3049  1.0481 -0.6584
   48CHL1  H19C 6001   4.129   0.909   9.716 -0.1101 -2.9333  1.5758
   48CHL1    C1 6002   3.792   0.912   9.830 -0.5290 -0.0376  0.1073
   48CHL1   H1A 6003   3.801   1.004   9.769  1.2406  1.0105  1.8235
   48CHL1   H1B 6004   3.706   0.851   9.797 -0.8689  0.4645  0.0516
   48CHL1    C2 6005   3.788   0.952   9.979 -0.1841  0.3696  0.1064
   48CHL1   H2A 6006   3.692   1.003  10.000  0.7291  1.2161  2.5301
   48CHL1   H2B 6007   3.858   1.036   9.999  0.4357 -0.2291  0.4937
   48CHL1   C20 6008   3.935   0.657   9.088 -0.4222  0.6246 -0.2155
   48CHL1   H20 6009   4.035   0.700   9.067  1.1330 -0.9736  3.2273
   48CHL1   C21 6010   3.840   0.782   9.069 -0.1127  0.1007 -0.5592
   48CHL1  H21A 6011   3.831   0.820   8.965 -0.9406 -1.4103 -1.0762
   48CHL1  H21B 6012   3.881   0.861   9.135  2.4189 -2.2851  0.9718
   48CHL1  H21C 6013   3.740   0.750   9.106  0.0671 -0.2684 -0.3812
   48CHL1   C22 6014   3.891   0.545   9.000 -0.2541  0.0678  0.6062
   48CHL1  H22A 6015   3.954   0.454   9.013 -0.7677 -0.2960  0.6243
   48CHL1  H22B 6016   3.784   0.525   9.021 -0.4241 -0.8219 -0.9327
   48CHL1   C23 6017   3.897   0.565   8.848  0.2236  0.5525 -0.6508
   48CHL1  H23A 6018   3.839   0.656   8.818 -1.3059 -0.8037 -2.0267
   48CHL1  H23B 6019   4.001   0.566   8.810 -0.0740  0.6094 -1.4830
   48CHL1   C24 6020   3.833   0.446   8.765 -0.2234 -0.1567 -0.1740
   48CHL1  H24A 6021   3.862   0.461   8.659  1.9269  0.2574  0.4105
   48CHL1  H24B 6022   3.865   0.347   8.803 -2.5832 -0.3804  1.4623
   48CHL1   C25 6023   3.680   0.438   8.771  0.2900 -0.2380 -1.0340
   48CHL1   H25 6024   3.651   0.442   8.878 -1.4337 -0.1291 -1.4740
   48CHL1   C26 6025   3.611   0.559   8.716 -0.2094  0.1286  0.5311
   48CHL1  H26A 6026   3.500   0.547   8.715  0.0278 -2.6848  1.3210
   48CHL1  H26B 6027   3.631   0.646   8.781  0.0879  0.4343  0.0352
   48CHL1  H26C 6028   3.645   0.573   8.611  0.3436 -0.1899  0.6663
   48CHL1   C27 6029   3.626   0.314   8.696  0.0471  0.4445  0.4628
   48CHL1  H27A 6030   3.514   0.316   8.693 -0.0409  1.8553  2.7117
   48CHL1  H27B 6031   3.654   0.311   8.588 -0.9922  0.2805  0.1802
   48CHL1  H27C 6032   3.660   0.221   8.746 -0.3038  0.9030  1.5986
   49CHL1    C3 6033   1.333   2.145  10.069 -0.7590  0.3730 -0.5786
   49CHL1    H3 6034   1.420   2.187  10.013  0.3208  1.7421  1.9461
   49CHL1    O3 6035   1.351   2.187  10.206 -0.7915 -0.0576  0.0274
   49CHL1   H3' 6036   1.284   2.135  10.252  0.6403 -0.5748  1.6462
   49CHL1    C4 6037   1.198   2.193  10.011  0.2506  0.4912 -0.0271
   49CHL1   H4A 6038   1.114   2.155  10.073  0.0317  0.3140 -0.4293
   49CHL1   H4B 6039   1.184   2.304  10.011 -0.5827  0.3951  0.6926
   49CHL1    C5 6040   1.178   2.133   9.870 -0.4569 -0.1656  0.3483
   49CHL1    C6 6041   1.166   2.214   9.762 -0.0847  1.0170  0.8350
   49CHL1    H6 6042   1.165   2.323   9.767  1.1976  1.0483  0.5793
   49CHL1    C7 6043   1.163   2.164   9.625  0.0247 -0.6316 -0.3906
   49CHL1   H7A 6044   1.094   2.222   9.559  0.4306 -0.3934 -0.6111
   49CHL1   H7B 6045   1.260   2.184   9.576  1.0463 -1.0060  1.4270
   49CHL1    C8 6046   1.133   2.015   9.606  0.0831 -0.6062  0.1338
   49CHL1    H8 6047   1.033   1.976   9.635  0.5936 -0.7148  1.8084
   49CHL1   C14 6048   1.164   1.973   9.465 -0.2176 -0.2492  0.6555
   49CHL1   H14 6049   1.272   1.989   9.442 -0.2090 -1.8151 -0.5131
   49CHL1   C15 6050   1.091   2.047   9.358  0.1403 -0.0105 -0.9193
   49CHL1  H15A 6051   0.992   2.089   9.387  1.1582  3.0147 -1.5261
   49CHL1  H15B 6052   1.139   2.146   9.347 -2.4141  1.2488 -1.5946
   49CHL1   C16 6053   1.088   1.946   9.239  0.4195 -0.2862 -0.1080
   49CHL1  H16A 6054   0.987   1.913   9.207  0.3169 -0.0504 -0.0260
   49CHL1  H16B 6055   1.143   1.997   9.157  0.8267 -0.4127  0.0798
   49CHL1   C17 6056   1.173   1.823   9.287  0.7185  0.2968  0.2147
   49CHL1   H17 6057   1.279   1.853   9.272  0.2887  1.1716 -1.2988
   49CHL1   C13 6058   1.147   1.825   9.444  0.2639  0.1115  0.7960
   49CHL1   C18 6059   1.001   1.784   9.470  0.7602  0.0563  0.4435
   49CHL1  H18A 6060   0.975   1.685   9.426 -0.4596  0.0487  1.1347
   49CHL1  H18B 6061   0.979   1.774   9.578 -1.1853 -1.4600 -0.0146
   49CHL1  H18C 6062   0.930   1.859   9.429  0.0637 -1.0515 -0.4529
   49CHL1   C12 6063   1.253   1.753   9.530 -0.3632 -0.0169 -0.2100
   49CHL1  H12A 6064   1.262   1.644   9.510  2.9302 -0.2660  1.8419
   49CHL1  H12B 6065   1.347   1.806   9.503  0.7591 -0.5516  2.3464
   49CHL1   C11 6066   1.240   1.787   9.681  0.1791  0.3584  0.2982
   49CHL1  H11A 6067   1.152   1.727   9.713  0.0168 -0.3281 -1.3253
   49CHL1  H11B 6068   1.332   1.751   9.732  2.4102  0.4879 -3.2676
   49CHL1    C9 6069   1.230   1.939   9.700  0.6260 -0.6979  0.4563
   49CHL1    H9 6070   1.335   1.975   9.689 -0.7943  3.3994 -1.6629
   49CHL1   C10 6071   1.204   1.985   9.843 -0.3181  0.2036 -0.4414
   49CHL1   C19 6072   1.072   1.908   9.896 -0.4223 -0.3832 -0.4658
   49CHL1  H19A 6073   0.984   1.901   9.828 -0.7210 -0.9467 -0.0374
   49CHL1  H19B 6074   1.096   1.800   9.907  1.3130 -0.3751 -3.1575
   49CHL1  H19C 6075   1.032   1.946   9.992 -0.8310  1.5090 -1.3352
   49CHL1    C1 6076   1.329   1.933   9.934  0.0173  0.2347 -0.2132
   49CHL1   H1A 6077   1.322   1.823   9.947  0.4033  0.3344  0.8690
   49CHL1   H1B 6078   1.424   1.965   9.886 -0.2595 -0.3106 -1.1420
   49CHL1    C2 6079   1.353   1.994  10.074 -0.6477  0.5627  0.5034
   49CHL1   H2A 6080   1.446   1.951  10.116 -0.7875 -1.2602 -0.9466
   49CHL1   H2B 6081   1.280   1.951  10.146  0.9028 -1.1100  1.1356
   49CHL1   C20 6082   1.148   1.703   9.206  0.4731 -0.2781  0.7891
   49CHL1   H20 6083   1.054   1.652   9.235  1.0288 -1.0272  1.3055
   49CHL1   C21 6084   1.254   1.592   9.218  0.7937  0.0592 -0.1290
   49CHL1  H21A 6085   1.215   1.504   9.163 -0.1612  0.7209 -0.5415
   49CHL1  H21B 6086   1.278   1.563   9.323  0.4856 -0.1086 -0.1047
   49CHL1  H21C 6087   1.351   1.628   9.176  0.7392 -0.2308 -0.5105
   49CHL1   C22 6088   1.137   1.730   9.050  0.2870  0.1839 -0.5798
   49CHL1  H22A 6089   1.125   1.629   9.006  2.1283 -0.3517  0.0669
   49CHL1  H22B 6090   1.051   1.793   9.016  0.2056  0.6528  0.4796
   49CHL1   C23 6091   1.254   1.805   8.974  0.5872  0.6760 -0.0048
   49CHL1  H23A 6092   1.252   1.914   8.995 -2.3414  1.0422 -1.7905
   49CHL1  H23B 6093   1.351   1.758   9.002 -0.7726 -1.7357  0.9301
   49CHL1   C24 6094   1.236   1.772   8.826 -0.5913  0.0631  0.2524
   49CHL1  H24A 6095   1.294   1.679   8.804  3.7418  2.5810 -0.1802
   49CHL1  H24B 6096   1.129   1.755   8.803 -0.4738 -1.5053  0.7531
   49CHL1   C25 6097   1.283   1.884   8.726  0.6455  0.2782 -0.0269
   49CHL1   H25 6098   1.381   1.919   8.763  1.7494 -2.2633 -0.3375
   49CHL1   C26 6099   1.309   1.817   8.591  0.0158  0.2096 -0.1434
   49CHL1  H26A 6100   1.334   1.889   8.511  0.1520 -0.7894 -1.0170
   49CHL1  H26B 6101   1.392   1.746   8.607 -0.0116 -0.2408 -1.7905
   49CHL1  H26C 6102   1.225   1.749   8.567 -0.7461  1.4186 -1.0175
   49CHL1   C27 6103   1.187   1.998   8.709  0.3933  0.0285  0.1172
   49CHL1  H27A 6104   1.083   1.962   8.703 -0.7512  2.9725  0.4076
   49CHL1  H27B 6105   1.178   2.079   8.785 -0.6164 -0.4957  0.5753
   49CHL1  H27C 6106   1.199   2.047   8.610 -2.8906 -1.2701 -1.0475
   50CHL1    C3 6107   3.645   6.311  10.257 -0.1577 -0.4818  0.2419
   50CHL1    H3 6108   3.696   6.215  10.233  1.2307  0.4694 -0.8247
   50CHL1    O3 6109   3.597   6.312  10.387  0.2912 -0.0983  0.6152
   50CHL1   H3' 6110   3.579   6.218  10.391 -0.6887 -0.0734 -1.7744
   50CHL1    C4 6111   3.729   6.442  10.225 -0.8919  0.3204 -0.7199
   50CHL1   H4A 6112   3.660   6.526  10.249 -0.4509  0.0972  1.6312
   50CHL1   H4B 6113   3.817   6.426  10.291 -0.7710 -1.2844 -1.2261
   50CHL1    C5 6114   3.790   6.450  10.087 -0.2088  0.4249 -0.0264
   50CHL1    C6 6115   3.919   6.471  10.052 -0.5939  0.3149 -0.1560
   50CHL1    H6 6116   3.995   6.475  10.132  0.0010 -2.8680 -0.4548
   50CHL1    C7 6117   3.958   6.489   9.906 -0.1879  0.4916  0.0284
   50CHL1   H7A 6118   4.014   6.585   9.903  0.6931  0.0424  1.1174
   50CHL1   H7B 6119   4.014   6.394   9.886  0.5930  0.9399  0.0355
   50CHL1    C8 6120   3.846   6.498   9.798 -0.3765  0.1073 -0.2693
   50CHL1    H8 6121   3.833   6.605   9.774  1.0318  0.3158 -0.2050
   50CHL1   C14 6122   3.896   6.438   9.669  0.2410  1.6423  0.8493
   50CHL1   H14 6123   3.907   6.328   9.685 -2.1980  1.4867  1.8731
   50CHL1   C15 6124   4.031   6.472   9.624  0.0338  0.2592 -0.5634
   50CHL1  H15A 6125   4.029   6.583   9.630 -1.0550  0.2205  0.1410
   50CHL1  H15B 6126   4.114   6.437   9.688 -0.0476  0.2574 -0.4576
   50CHL1   C16 6127   4.031   6.434   9.475  0.2750 -0.4019 -0.1887
   50CHL1  H16A 6128   4.043   6.535   9.429  1.1084 -0.6801 -0.6115
   50CHL1  H16B 6129   4.106   6.357   9.446 -1.2319 -1.6268 -0.9828
   50CHL1   C17 6130   3.884   6.382   9.445  0.0182  0.4088  0.2379
   50CHL1   H17 6131   3.889   6.271   9.455 -0.6742  0.2540 -0.9450
   50CHL1   C13 6132   3.795   6.439   9.552 -0.6567  0.5123 -0.1638
   50CHL1   C18 6133   3.757   6.586   9.515 -0.1525 -0.1799  0.2216
   50CHL1  H18A 6134   3.852   6.643   9.504 -1.1701  2.2905  2.9789
   50CHL1  H18B 6135   3.691   6.602   9.427 -0.4622 -0.4482  0.4030
   50CHL1  H18C 6136   3.699   6.636   9.595  0.2656 -0.0857  0.4684
   50CHL1   C12 6137   3.666   6.368   9.591 -0.1869 -0.1810  0.0223
   50CHL1  H12A 6138   3.585   6.377   9.516  0.3292 -0.3060 -0.5577
   50CHL1  H12B 6139   3.700   6.262   9.594 -0.5015 -0.3042 -0.4843
   50CHL1   C11 6140   3.612   6.407   9.728  0.9237 -0.8319  0.1656
   50CHL1  H11A 6141   3.543   6.494   9.728 -0.9288 -2.2034  1.7620
   50CHL1  H11B 6142   3.544   6.321   9.748  0.7867 -1.2289 -1.7921
   50CHL1    C9 6143   3.724   6.422   9.840  0.3963  0.4116 -1.1449
   50CHL1    H9 6144   3.762   6.318   9.841 -0.2049  0.1822  0.2301
   50CHL1   C10 6145   3.673   6.452   9.982  0.4191 -0.7178 -0.0136
   50CHL1   C19 6146   3.592   6.591   9.980  0.6111  0.8437  0.3087
   50CHL1  H19A 6147   3.534   6.601  10.074 -3.5191 -2.3852 -1.5606
   50CHL1  H19B 6148   3.659   6.679   9.977  1.6128  0.1015 -1.5196
   50CHL1  H19C 6149   3.515   6.603   9.900 -0.5355 -0.0514  1.2461
   50CHL1    C1 6150   3.578   6.334  10.020  0.6429  0.1005 -0.4571
   50CHL1   H1A 6151   3.488   6.330   9.955  1.2146  2.4848 -1.5028
   50CHL1   H1B 6152   3.627   6.243   9.978 -2.0141 -0.5224 -2.4764
   50CHL1    C2 6153   3.530   6.318  10.165 -0.0041  0.2318  0.2772
   50CHL1   H2A 6154   3.475   6.222  10.169  1.1426 -0.4724 -0.2448
   50CHL1   H2B 6155   3.468   6.409  10.180  1.7019  1.5509 -0.3663
   50CHL1   C20 6156   3.847   6.417   9.301  1.0324 -0.7233 -0.2785
   50CHL1   H20 6157   3.831   6.526   9.286 -0.3399 -0.8609  0.0521
   50CHL1   C21 6158   3.713   6.347   9.283  0.0811  0.1548  0.5231
   50CHL1  H21A 6159   3.627   6.412   9.309  0.1481  0.4022  0.1141
   50CHL1  H21B 6160   3.720   6.248   9.333  3.5223  0.0955  0.1134
   50CHL1  H21C 6161   3.695   6.307   9.181 -0.0292  0.3845  0.4515
   50CHL1   C22 6162   3.939   6.368   9.189  0.5981 -0.6720 -0.0036
   50CHL1  H22A 6163   4.040   6.407   9.212 -0.0447  0.5502  0.9184
   50CHL1  H22B 6164   3.941   6.257   9.198 -1.8597 -0.6098  3.0633
   50CHL1   C23 6165   3.897   6.420   9.056 -0.8073  0.0524  0.4373
   50CHL1  H23A 6166   3.816   6.359   9.011  0.3084 -1.2919  0.2010
   50CHL1  H23B 6167   3.853   6.522   9.064  1.4677  1.1316 -0.0527
   50CHL1   C24 6168   4.013   6.426   8.952  0.8040 -0.0617  0.3972
   50CHL1  H24A 6169   4.083   6.511   8.967  1.2368 -0.5698  1.3007
   50CHL1  H24B 6170   4.083   6.340   8.955  0.8456 -0.0912  4.4943
   50CHL1   C25 6171   3.948   6.435   8.806 -0.0978  0.1925 -0.5043
   50CHL1   H25 6172   3.863   6.364   8.810  0.4896 -0.6637 -2.4621
   50CHL1   C26 6173   3.915   6.574   8.754 -0.0000 -0.0076  0.7298
   50CHL1  H26A 6174   4.001   6.639   8.728 -0.6361  0.9314  0.9263
   50CHL1  H26B 6175   3.882   6.552   8.650  0.6032 -0.6452  0.6628
   50CHL1  H26C 6176   3.834   6.623   8.812 -0.3064  0.9369 -0.4556
   50CHL1   C27 6177   4.043   6.365   8.708 -0.4154  0.0598 -0.1905
   50CHL1  H27A 6178   4.071   6.264   8.744 -1.4122  0.3505  1.4664
   50CHL1  H27B 6179   3.997   6.348   8.608  0.4784 -0.8463 -0.4686
   50CHL1  H27C 6180   4.139   6.418   8.690  0.6658 -1.3127  1.2870
   51CHL1    C3 6181   6.571   5.235  10.363 -0.8133 -0.4111 -1.2743
   51CHL1    H3 6182   6.468   5.193  10.365 -0.9141 -0.1608  0.8763
   51CHL1    O3 6183   6.613   5.245  10.502  0.1040  0.2996 -0.1151
   51CHL1   H3' 6184   6.542   5.297  10.540  1.8562  2.6086  0.2161
   51CHL1    C4 6185   6.673   5.151  10.285 -0.4293  0.0162  0.8736
   51CHL1   H4A 6186   6.777   5.180  10.313 -0.0520  2.5782 -2.5647
   51CHL1   H4B 6187   6.667   5.047  10.324 -1.0945 -0.1694  0.2954
   51CHL1    C5 6188   6.646   5.157  10.137 -0.3078 -0.4016 -0.5568
   51CHL1    C6 6189   6.631   5.039  10.073 -0.2221 -0.1006  0.2179
   51CHL1    H6 6190   6.649   4.948  10.131 -3.0773 -1.3201 -0.5876
   51CHL1    C7 6191   6.608   5.031   9.926  0.0534 -0.6541 -0.6226
   51CHL1   H7A 6192   6.684   4.968   9.875  0.8955 -1.3175  1.3358
   51CHL1   H7B 6193   6.511   4.980   9.908  0.3915 -2.0355  1.1588
   51CHL1    C8 6194   6.611   5.167   9.855  0.3715  0.3355  0.2254
   51CHL1    H8 6195   6.718   5.190   9.836  0.4960 -1.1386 -1.1318
   51CHL1   C14 6196   6.540   5.152   9.722  1.3116  0.2218 -0.0411
   51CHL1   H14 6197   6.432   5.143   9.749  1.2075  2.5077  0.5084
   51CHL1   C15 6198   6.586   5.035   9.630  0.0565  0.3195 -0.5559
   51CHL1  H15A 6199   6.696   5.022   9.634  0.0394  0.3088  0.0110
   51CHL1  H15B 6200   6.532   4.940   9.652 -1.7906  1.3105 -0.6239
   51CHL1   C16 6201   6.543   5.082   9.492  0.5706 -0.9043  0.4026
   51CHL1  H16A 6202   6.626   5.080   9.419  1.5072 -0.9525  1.4390
   51CHL1  H16B 6203   6.453   5.023   9.465 -1.3058  0.9879  2.0384
   51CHL1   C17 6204   6.483   5.232   9.508  0.3779  0.4547  0.0910
   51CHL1   H17 6205   6.378   5.208   9.536  0.1594 -0.9160 -1.6585
   51CHL1   C13 6206   6.554   5.277   9.634 -0.4961  0.4058 -0.5413
   51CHL1   C18 6207   6.707   5.296   9.593  0.1575  0.1181  0.2731
   51CHL1  H18A 6208   6.699   5.388   9.531 -0.3303  0.1520  0.3875
   51CHL1  H18B 6209   6.773   5.311   9.681  2.5030 -0.8078 -1.2088
   51CHL1  H18C 6210   6.748   5.212   9.532 -2.4425 -2.2485  1.5670
   51CHL1   C12 6211   6.501   5.399   9.714 -0.1967 -0.6300  0.2533
   51CHL1  H12A 6212   6.503   5.495   9.659 -0.0014 -0.6943  0.1446
   51CHL1  H12B 6213   6.392   5.383   9.731 -0.3569 -0.2665 -0.4125
   51CHL1   C11 6214   6.554   5.417   9.851  0.0198 -0.2252  0.1826
   51CHL1  H11A 6215   6.655   5.463   9.851 -0.8418  1.7925  0.1667
   51CHL1  H11B 6216   6.485   5.486   9.904 -1.5843 -1.7707  0.2036
   51CHL1    C9 6217   6.559   5.282   9.937 -0.2443 -0.1467 -0.4353
   51CHL1    H9 6218   6.451   5.264   9.956  0.1925 -0.2144  2.3178
   51CHL1   C10 6219   6.633   5.296  10.075  0.0176 -0.5017  0.0314
   51CHL1   C19 6220   6.774   5.360  10.068  0.0485 -0.3537 -0.4512
   51CHL1  H19A 6221   6.762   5.463  10.030 -0.0755  0.1269  0.8596
   51CHL1  H19B 6222   6.810   5.364  10.173  0.8377  3.7283 -0.7120
   51CHL1  H19C 6223   6.851   5.303  10.010 -0.1376  0.8046 -1.8989
   51CHL1    C1 6224   6.545   5.385  10.162 -0.6551  0.4677 -0.3139
   51CHL1   H1A 6225   6.556   5.490  10.126 -0.1019  0.5990  0.2145
   51CHL1   H1B 6226   6.438   5.356  10.152  0.1336 -2.1620 -2.0834
   51CHL1    C2 6227   6.575   5.381  10.314 -0.1629  0.6381 -0.0475
   51CHL1   H2A 6228   6.507   5.446  10.372 -1.5442 -1.1240  0.3923
   51CHL1   H2B 6229   6.673   5.431  10.331 -0.6021  2.4431 -2.3801
   51CHL1   C20 6230   6.491   5.312   9.373 -0.5939  0.8769 -0.3452
   51CHL1   H20 6231   6.595   5.311   9.334 -0.6303 -0.2557 -0.4655
   51CHL1   C21 6232   6.447   5.460   9.395  0.2645 -0.1603  0.4916
   51CHL1  H21A 6233   6.459   5.520   9.302 -0.8738  1.8076  1.5537
   51CHL1  H21B 6234   6.519   5.509   9.465 -0.4599 -0.4184  1.4295
   51CHL1  H21C 6235   6.342   5.467   9.428 -0.4467  0.9388 -1.8498
   51CHL1   C22 6236   6.413   5.242   9.258  0.1558  0.1915  0.7869
   51CHL1  H22A 6237   6.457   5.142   9.242 -1.2827 -0.0888 -2.2788
   51CHL1  H22B 6238   6.303   5.244   9.274 -0.3788  1.2459 -2.2399
   51CHL1   C23 6239   6.433   5.317   9.120 -0.1411  0.0286 -0.1197
   51CHL1  H23A 6240   6.401   5.423   9.117  0.5201  0.2586  0.5663
   51CHL1  H23B 6241   6.542   5.334   9.111 -0.2583  2.7079  2.1881
   51CHL1   C24 6242   6.372   5.231   9.001  0.1873  0.0729 -0.1014
   51CHL1  H24A 6243   6.419   5.131   9.009 -0.7696 -0.2897  1.8036
   51CHL1  H24B 6244   6.265   5.214   9.028  0.4303 -0.9356  0.2641
   51CHL1   C25 6245   6.378   5.284   8.863 -0.4193  0.1859  0.3215
   51CHL1   H25 6246   6.347   5.196   8.803  0.4931 -1.0245  1.5706
   51CHL1   C26 6247   6.297   5.409   8.837  0.4022  0.6577 -0.8224
   51CHL1  H26A 6248   6.318   5.460   8.741  0.7940 -1.5179 -1.9591
   51CHL1  H26B 6249   6.188   5.388   8.848  0.3728  0.5125 -1.3688
   51CHL1  H26C 6250   6.327   5.479   8.918 -0.0103 -0.8705  0.7299
   51CHL1   C27 6251   6.532   5.304   8.830  0.0930  0.2831 -0.7137
   51CHL1  H27A 6252   6.558   5.411   8.847  0.2954  0.2059 -0.5386
   51CHL1  H27B 6253   6.589   5.236   8.896  0.6054 -0.2212 -1.6633
   51CHL1  H27C 6254   6.569   5.269   8.732  0.2628 -0.5675 -0.3547
   52CHL1    C3 6255   1.601   5.772  10.208 -0.8822 -0.3114 -0.7698
   52CHL1    H3 6256   1.691   5.709  10.216 -1.3242 -0.8311  0.2823
   52CHL1    O3 6257   1.563   5.789  10.345 -0.1483 -0.3515  0.0228
   52CHL1   H3' 6258   1.471   5.816  10.337 -0.2004 -1.0000 -2.7816
   52CHL1    C4 6259   1.631   5.909  10.138  0.4589  0.0239 -0.1004
   52CHL1   H4A 6260   1.539   5.970  10.154  1.9950  2.1170  1.3325
   52CHL1   H4B 6261   1.709   5.946  10.208 -0.0620 -2.1354  1.7603
   52CHL1    C5 6262   1.667   5.881   9.996  1.1923  0.3102  0.1606
   52CHL1    C6 6263   1.780   5.914   9.941 -0.3693 -0.1543 -0.3408
   52CHL1    H6 6264   1.852   5.972  10.002  0.4265 -0.9353 -0.5114
   52CHL1    C7 6265   1.803   5.901   9.796  0.0872  0.1726  0.9535
   52CHL1   H7A 6266   1.849   5.992   9.752 -1.1479 -0.7825 -2.7487
   52CHL1   H7B 6267   1.883   5.825   9.783 -1.0991 -1.1642  1.2142
   52CHL1    C8 6268   1.678   5.869   9.711 -0.0981 -0.6236 -0.0868
   52CHL1    H8 6269   1.611   5.957   9.704 -0.9625 -1.2767 -0.1082
   52CHL1   C14 6270   1.731   5.825   9.569 -1.0969  0.5179  0.0901
   52CHL1   H14 6271   1.782   5.729   9.594  0.4928  0.7421 -1.9831
   52CHL1   C15 6272   1.827   5.909   9.487 -0.0715 -0.8156 -0.0075
   52CHL1  H15A 6273   1.793   6.014   9.491 -1.5311 -1.0046 -3.8742
   52CHL1  H15B 6274   1.927   5.890   9.531  0.5285  0.1356 -0.9512
   52CHL1   C16 6275   1.805   5.868   9.343  0.3623  0.2598  0.0665
   52CHL1  H16A 6276   1.784   5.960   9.284  1.2153  0.2526 -0.2737
   52CHL1  H16B 6277   1.901   5.822   9.311  0.9313  1.3354  0.1786
   52CHL1   C17 6278   1.690   5.763   9.339 -0.2266  0.0189 -0.2262
   52CHL1   H17 6279   1.735   5.662   9.344 -1.7599 -0.6313  1.2088
   52CHL1   C13 6280   1.620   5.785   9.469 -0.1382 -0.2836 -0.0949
   52CHL1   C18 6281   1.531   5.913   9.438  0.5337  0.2810  1.0501
   52CHL1  H18A 6282   1.458   5.888   9.358  1.3065 -0.2879  0.4961
   52CHL1  H18B 6283   1.479   5.952   9.528  0.6225  2.5451  0.1854
   52CHL1  H18C 6284   1.585   5.996   9.389 -1.3212 -0.0196 -1.7225
   52CHL1   C12 6285   1.540   5.672   9.538  0.3393 -0.2974  0.3065
   52CHL1  H12A 6286   1.451   5.659   9.473 -0.3339  1.9583  0.6768
   52CHL1  H12B 6287   1.591   5.575   9.555 -1.1087 -0.9726  0.9315
   52CHL1   C11 6288   1.481   5.720   9.674  0.6074 -0.6449 -0.6049
   52CHL1  H11A 6289   1.404   5.800   9.669  1.6570  0.3199 -2.7371
   52CHL1  H11B 6290   1.439   5.623   9.709  0.6927 -0.1414  0.9785
   52CHL1    C9 6291   1.592   5.766   9.775 -0.5656  0.0150  0.2866
   52CHL1    H9 6292   1.664   5.681   9.773 -3.4028 -2.6107 -3.4076
   52CHL1   C10 6293   1.557   5.799   9.922 -0.1829 -0.0693  0.3496
   52CHL1   C19 6294   1.424   5.888   9.913 -0.0219  0.1641  0.7838
   52CHL1  H19A 6295   1.345   5.829   9.861  1.5856 -1.6486  0.2867
   52CHL1  H19B 6296   1.381   5.926  10.008 -1.5795 -0.9302  0.5614
   52CHL1  H19C 6297   1.440   5.980   9.852 -1.6260 -0.3632 -0.5247
   52CHL1    C1 6298   1.530   5.670   9.994  0.2626  0.4249  0.1901
   52CHL1   H1A 6299   1.442   5.616   9.951  0.0742  0.0221  1.0576
   52CHL1   H1B 6300   1.628   5.620   9.982 -0.6035 -0.8196 -2.4410
   52CHL1    C2 6301   1.499   5.682  10.141  0.7867 -1.0045  0.5855
   52CHL1   H2A 6302   1.514   5.583  10.188  0.4428 -1.7487 -0.8216
   52CHL1   H2B 6303   1.396   5.720  10.156  0.7677  0.3765 -2.3634
   52CHL1   C20 6304   1.612   5.748   9.205 -0.1201 -0.0859  0.2942
   52CHL1   H20 6305   1.567   5.843   9.169 -0.9169 -1.6084 -3.1747
   52CHL1   C21 6306   1.481   5.667   9.210  0.5455  0.1067 -0.3334
   52CHL1  H21A 6307   1.452   5.636   9.108  1.6366 -4.4019  0.5071
   52CHL1  H21B 6308   1.400   5.717   9.267  0.8279 -1.3873  1.4872
   52CHL1  H21C 6309   1.498   5.568   9.257 -2.0847  0.6779  2.0864
   52CHL1   C22 6310   1.704   5.714   9.085 -0.5806 -0.4773  0.6689
   52CHL1  H22A 6311   1.807   5.755   9.091 -0.1644 -1.3701 -0.0869
   52CHL1  H22B 6312   1.697   5.603   9.087 -0.7392 -0.6483 -2.9332
   52CHL1   C23 6313   1.651   5.753   8.940  0.0143  0.3816 -0.2704
   52CHL1  H23A 6314   1.549   5.713   8.922 -0.0315  1.0783 -1.6772
   52CHL1  H23B 6315   1.640   5.863   8.932  1.8948  0.5693 -0.5489
   52CHL1   C24 6316   1.740   5.714   8.819  0.1863 -0.2571 -0.6425
   52CHL1  H24A 6317   1.842   5.749   8.846  0.5650 -2.1835  0.6587
   52CHL1  H24B 6318   1.731   5.603   8.814 -0.3403 -0.1953 -1.1492
   52CHL1   C25 6319   1.694   5.786   8.688  0.2171 -0.2968 -0.1816
   52CHL1   H25 6320   1.732   5.891   8.695 -0.0861 -0.1450 -0.7004
   52CHL1   C26 6321   1.787   5.730   8.574 -0.4076 -0.0883  0.2711
   52CHL1  H26A 6322   1.786   5.619   8.568 -0.3495 -0.0957  0.3855
   52CHL1  H26B 6323   1.753   5.783   8.483  0.4185  1.1473  0.6503
   52CHL1  H26C 6324   1.895   5.756   8.584 -0.2804  0.2146 -1.5668
   52CHL1   C27 6325   1.540   5.766   8.650 -1.0418  0.0541 -0.1661
   52CHL1  H27A 6326   1.468   5.785   8.733 -0.7432 -0.7610  0.2897
   52CHL1  H27B 6327   1.510   5.833   8.566 -0.2993  1.0111  0.3080
   52CHL1  H27C 6328   1.523   5.662   8.616 -2.1209  0.7561 -1.8880
   53CHL1    C3 6329   3.684   0.156  10.218  0.2468  0.0738  0.2588
   53CHL1    H3 6330   3.632   0.060  10.231 -0.8731  0.6066 -0.1433
   53CHL1    O3 6331   3.757   0.175  10.333  0.0357 -0.2682 -0.5849
   53CHL1   H3' 6332   3.755   0.089  10.376  0.8766 -0.2993 -0.6025
   53CHL1    C4 6333   3.774   0.149  10.087 -0.4741  0.0935 -0.5390
   53CHL1   H4A 6334   3.853   0.226  10.093 -1.4684  1.1025  0.0841
   53CHL1   H4B 6335   3.824   0.050  10.096  1.1188  0.8916 -0.2638
   53CHL1    C5 6336   3.707   0.166   9.950  0.8307 -0.3968 -0.1940
   53CHL1    C6 6337   3.727   0.084   9.845  0.7274 -0.2891 -0.2359
   53CHL1    H6 6338   3.797  -0.000   9.854  0.8703 -0.0872  0.6436
   53CHL1    C7 6339   3.656   0.110   9.713  0.0984 -0.8526  0.5138
   53CHL1   H7A 6340   3.714   0.080   9.624 -2.6891 -0.6444 -1.4954
   53CHL1   H7B 6341   3.572   0.037   9.717  0.2620 -1.0566  0.1686
   53CHL1    C8 6342   3.602   0.249   9.701  0.5419  0.2883 -0.1265
   53CHL1    H8 6343   3.690   0.313   9.678  1.4616 -0.1820  1.8884
   53CHL1   C14 6344   3.510   0.250   9.578 -0.3004 -0.2246  0.1244
   53CHL1   H14 6345   3.420   0.189   9.598 -1.0271 -0.1504 -2.5475
   53CHL1   C15 6346   3.568   0.208   9.448 -0.4632  0.0727  0.2848
   53CHL1  H15A 6347   3.667   0.258   9.443  0.1543 -1.1627 -0.2627
   53CHL1  H15B 6348   3.590   0.100   9.440 -0.8305 -0.0141  0.3944
   53CHL1   C16 6349   3.479   0.275   9.343  0.0947 -0.8211  0.7008
   53CHL1  H16A 6350   3.545   0.336   9.277  2.9510 -0.5084  3.5916
   53CHL1  H16B 6351   3.427   0.192   9.290 -2.1140  2.0165 -1.9681
   53CHL1   C17 6352   3.378   0.366   9.424  0.8714  0.2907 -0.1473
   53CHL1   H17 6353   3.289   0.308   9.455  1.8436 -0.0376  2.3140
   53CHL1   C13 6354   3.453   0.390   9.557 -0.6445 -0.1894  0.9696
   53CHL1   C18 6355   3.563   0.503   9.538 -0.3574  0.3626  0.6214
   53CHL1  H18A 6356   3.634   0.482   9.455  0.7613  1.2971  1.3151
   53CHL1  H18B 6357   3.509   0.598   9.517 -1.5431 -0.9045 -2.7825
   53CHL1  H18C 6358   3.636   0.512   9.621  0.9200  0.0282 -0.4406
   53CHL1   C12 6359   3.363   0.424   9.675  0.2323 -0.0480  0.2254
   53CHL1  H12A 6360   3.316   0.522   9.653  2.7764  1.5149  1.1737
   53CHL1  H12B 6361   3.287   0.345   9.662  0.7003 -0.4669 -0.0036
   53CHL1   C11 6362   3.439   0.429   9.802 -0.0172  0.2387  0.4882
   53CHL1  H11A 6363   3.501   0.521   9.810 -1.2180  0.9868  2.0608
   53CHL1  H11B 6364   3.375   0.438   9.893  0.6133 -1.6258  1.1651
   53CHL1    C9 6365   3.520   0.299   9.821 -0.3666 -0.0898 -0.7831
   53CHL1    H9 6366   3.442   0.221   9.830 -0.8550  0.4660 -0.1557
   53CHL1   C10 6367   3.607   0.291   9.949 -0.3617  0.0490  0.3081
   53CHL1   C19 6368   3.695   0.420   9.954  0.6783  0.5300  1.0379
   53CHL1  H19A 6369   3.744   0.427   9.854  1.5674 -1.6902  1.2486
   53CHL1  H19B 6370   3.630   0.509   9.971 -0.7749 -0.3499  0.3058
   53CHL1  H19C 6371   3.778   0.414  10.027  0.8162  0.9395  0.9172
   53CHL1    C1 6372   3.509   0.273  10.067  0.5647 -0.4052 -0.2874
   53CHL1   H1A 6373   3.439   0.359  10.072 -0.0351 -0.7185 -2.3868
   53CHL1   H1B 6374   3.446   0.186  10.041 -0.0094 -0.3719  0.9190
   53CHL1    C2 6375   3.577   0.263  10.207 -0.2131 -0.0494  0.3347
   53CHL1   H2A 6376   3.508   0.250  10.294 -1.9459 -1.0285 -1.1010
   53CHL1   H2B 6377   3.614   0.366  10.223 -0.4342 -0.1243  1.4486
   53CHL1   C20 6378   3.320   0.492   9.359  0.3493 -0.4349 -0.7324
   53CHL1   H20 6379   3.306   0.567   9.440  3.7907 -0.9379  0.5264
   53CHL1   C21 6380   3.185   0.446   9.295  0.7172 -0.3562  0.2929
   53CHL1  H21A 6381   3.136   0.534   9.248  0.7513 -0.1855  0.5754
   53CHL1  H21B 6382   3.120   0.413   9.379 -1.3611 -0.2847 -1.2008
   53CHL1  H21C 6383   3.205   0.371   9.216  0.6001  1.0217 -1.0842
   53CHL1   C22 6384   3.408   0.551   9.246 -0.1029 -0.5695  0.1873
   53CHL1  H22A 6385   3.512   0.563   9.283  0.4863  0.9943 -1.7874
   53CHL1  H22B 6386   3.407   0.484   9.156  0.5275  0.1383 -0.3568
   53CHL1   C23 6387   3.356   0.690   9.210 -0.9091  0.5057  0.4245
   53CHL1  H23A 6388   3.264   0.695   9.147 -0.4114  0.7409 -0.2892
   53CHL1  H23B 6389   3.324   0.741   9.304 -2.2161 -0.6278  0.6331
   53CHL1   C24 6390   3.464   0.782   9.144  0.1498  0.1929 -0.0023
   53CHL1  H24A 6391   3.544   0.797   9.219 -0.9115  0.6033  1.0838
   53CHL1  H24B 6392   3.524   0.743   9.059 -1.2074  0.5194 -1.1481
   53CHL1   C25 6393   3.417   0.925   9.114  0.1869 -0.0366  0.1965
   53CHL1   H25 6394   3.370   0.965   9.207 -0.2554  0.2406 -0.1397
   53CHL1   C26 6395   3.531   1.015   9.071 -0.2260  0.3040  0.0393
   53CHL1  H26A 6396   3.605   0.955   9.012 -1.4446 -3.6903  2.1636
   53CHL1  H26B 6397   3.496   1.103   9.014 -1.2640  0.2009  0.5104
   53CHL1  H26C 6398   3.583   1.053   9.161  0.8637  1.4658 -1.0359
   53CHL1   C27 6399   3.310   0.918   9.002 -0.4708  0.8234 -0.1387
   53CHL1  H27A 6400   3.304   1.022   8.961 -0.2199  1.4242  1.2883
   53CHL1  H27B 6401   3.350   0.865   8.913  0.5381  0.1149  0.7148
   53CHL1  H27C 6402   3.212   0.886   9.042 -0.7299  0.9104 -0.6923
   54CHL1    C3 6403   4.539   2.310  10.323  0.5627 -0.1463 -0.2510
   54CHL1    H3 6404   4.518   2.201  10.314 -1.7458  0.0631  1.5694
   54CHL1    O3 6405   4.543   2.353  10.459  0.3893 -0.5222 -1.0188
   54CHL1   H3' 6406   4.610   2.421  10.472 -0.5000  0.1425  0.2904
   54CHL1    C4 6407   4.673   2.336  10.267  0.1776  0.0438  0.7211
   54CHL1   H4A 6408   4.706   2.438  10.294 -3.1847  0.8857  2.1062
   54CHL1   H4B 6409   4.744   2.261  10.308 -0.8974  0.1729  2.9652
   54CHL1    C5 6410   4.678   2.315  10.113  0.5473 -0.4756 -0.0683
   54CHL1    C6 6411   4.765   2.231  10.051  0.2742 -0.5995 -0.0927
   54CHL1    H6 6412   4.847   2.181  10.105 -0.0503  0.1672  1.1540
   54CHL1    C7 6413   4.791   2.225   9.897 -0.1613  0.0660  0.0953
   54CHL1   H7A 6414   4.900   2.225   9.881  0.1411  0.1710  1.8844
   54CHL1   H7B 6415   4.758   2.125   9.861  1.1833 -0.4821  0.3303
   54CHL1    C8 6416   4.719   2.338   9.826 -0.2148 -0.5286  0.6333
   54CHL1    H8 6417   4.787   2.426   9.825 -1.8148  0.7532 -1.2876
   54CHL1   C14 6418   4.709   2.295   9.676 -0.2926  0.0350  0.0147
   54CHL1   H14 6419   4.638   2.210   9.670 -2.1282  1.6012 -2.4367
   54CHL1   C15 6420   4.835   2.243   9.608 -0.1920  0.1081 -0.1864
   54CHL1  H15A 6421   4.923   2.307   9.632 -0.0871  0.0187 -0.3294
   54CHL1  H15B 6422   4.867   2.139   9.632 -1.2531 -0.0789  0.4342
   54CHL1   C16 6423   4.802   2.245   9.460 -0.0076 -0.2274 -0.0626
   54CHL1  H16A 6424   4.882   2.302   9.407 -3.2067  1.2860 -3.7317
   54CHL1  H16B 6425   4.788   2.146   9.411 -1.1864 -1.1702  2.0348
   54CHL1   C17 6426   4.671   2.324   9.447  0.3964 -0.2844  0.7432
   54CHL1   H17 6427   4.592   2.248   9.430  1.9816 -1.6820 -0.7808
   54CHL1   C13 6428   4.654   2.400   9.582 -0.3109  0.2402 -0.3960
   54CHL1   C18 6429   4.743   2.520   9.578 -0.5305 -0.0306  0.9326
   54CHL1  H18A 6430   4.753   2.554   9.684 -0.6183 -0.2975  1.0272
   54CHL1  H18B 6431   4.847   2.502   9.542 -1.7485 -1.1536 -2.4158
   54CHL1  H18C 6432   4.697   2.606   9.527  0.8759 -0.5285 -1.3087
   54CHL1   C12 6433   4.508   2.431   9.637 -0.4048 -0.2640  0.2729
   54CHL1  H12A 6434   4.455   2.513   9.584 -1.9130 -3.0160 -2.8304
   54CHL1  H12B 6435   4.454   2.336   9.615 -0.8607 -0.2244  1.1831
   54CHL1   C11 6436   4.503   2.468   9.793 -0.0123 -0.2303  0.6778
   54CHL1  H11A 6437   4.553   2.567   9.803  0.6885 -0.6335  1.3418
   54CHL1  H11B 6438   4.397   2.474   9.825 -1.5833 -0.4339 -3.8278
   54CHL1    C9 6439   4.583   2.363   9.886  0.1713  0.2732  0.4258
   54CHL1    H9 6440   4.532   2.268   9.863  2.5323 -0.7358 -1.0560
   54CHL1   C10 6441   4.584   2.396  10.034  0.9011 -0.4135 -0.1552
   54CHL1   C19 6442   4.620   2.549  10.037  0.6442 -0.4074 -0.6009
   54CHL1  H19A 6443   4.639   2.583  10.141 -0.2754 -3.3525  0.6270
   54CHL1  H19B 6444   4.714   2.576   9.985 -0.4030  0.4044 -2.1848
   54CHL1  H19C 6445   4.537   2.615  10.001  0.7313 -1.0286 -1.9961
   54CHL1    C1 6446   4.444   2.375  10.096 -0.1385  0.1575  1.1153
   54CHL1   H1A 6447   4.373   2.441  10.042  1.2794 -0.1390 -1.2603
   54CHL1   H1B 6448   4.414   2.269  10.085 -0.7391  0.3549  0.8392
   54CHL1    C2 6449   4.436   2.399  10.246  0.0137  0.5563 -0.0347
   54CHL1   H2A 6450   4.333   2.391  10.285  1.0900 -2.1134  2.7308
   54CHL1   H2B 6451   4.461   2.504  10.272  0.0949  0.5519 -0.0956
   54CHL1   C20 6452   4.658   2.417   9.325 -0.5827 -0.3274  0.3158
   54CHL1   H20 6453   4.714   2.513   9.334 -0.5607 -0.1986 -1.0603
   54CHL1   C21 6454   4.516   2.456   9.297  0.0796 -0.4225 -0.8251
   54CHL1  H21A 6455   4.518   2.541   9.225 -1.6977  0.2603 -0.1049
   54CHL1  H21B 6456   4.466   2.484   9.391  0.9531 -2.1015  0.1923
   54CHL1  H21C 6457   4.466   2.364   9.260  0.1889 -1.8409  2.2559
   54CHL1   C22 6458   4.714   2.345   9.199 -0.3983  0.1901  0.6101
   54CHL1  H22A 6459   4.824   2.334   9.203 -0.4798 -1.3295 -0.5846
   54CHL1  H22B 6460   4.674   2.243   9.179  0.5629 -0.1221  0.2484
   54CHL1   C23 6461   4.697   2.427   9.070  0.1759 -0.8048 -0.2989
   54CHL1  H23A 6462   4.593   2.464   9.055  0.0674 -1.6578 -1.8520
   54CHL1  H23B 6463   4.745   2.525   9.089 -2.6229  0.5746  0.2045
   54CHL1   C24 6464   4.718   2.352   8.936 -0.3411 -0.3424 -0.3142
   54CHL1  H24A 6465   4.827   2.326   8.936  0.0644  1.2193  0.3095
   54CHL1  H24B 6466   4.657   2.260   8.938 -2.2012  0.8168 -1.4832
   54CHL1   C25 6467   4.677   2.419   8.806 -0.6581 -0.5850 -0.4868
   54CHL1   H25 6468   4.566   2.418   8.801 -0.7396 -1.8903  0.8032
   54CHL1   C26 6469   4.714   2.572   8.819  0.1741 -0.6610 -0.1679
   54CHL1  H26A 6470   4.659   2.622   8.902 -0.3103  0.4174 -1.1118
   54CHL1  H26B 6471   4.822   2.576   8.842  0.1192 -1.2481  0.2243
   54CHL1  H26C 6472   4.697   2.629   8.725 -0.0364  0.6078  0.6257
   54CHL1   C27 6473   4.748   2.359   8.682  0.2083 -0.1757 -0.2879
   54CHL1  H27A 6474   4.716   2.254   8.665  1.3300 -0.1755 -3.0723
   54CHL1  H27B 6475   4.736   2.422   8.591  0.8369 -1.0031 -0.9617
   54CHL1  H27C 6476   4.856   2.355   8.708  0.2066  0.1608 -0.2209
   55CHL1    C3 6477   3.365   5.880  10.218 -0.1088 -0.1211 -0.2891
   55CHL1    H3 6478   3.309   5.971  10.247  1.2033  0.8327 -0.6881
   55CHL1    O3 6479   3.412   5.809  10.334  0.1952 -0.0890  0.6777
   55CHL1   H3' 6480   3.436   5.877  10.398 -2.1137  1.4453  0.0418
   55CHL1    C4 6481   3.275   5.783  10.132 -0.4129 -0.0167 -0.2185
   55CHL1   H4A 6482   3.344   5.696  10.121 -0.5131 -0.0999 -0.1876
   55CHL1   H4B 6483   3.194   5.745  10.198 -0.7557  0.0312 -0.6091
   55CHL1    C5 6484   3.236   5.836   9.993  0.6242  0.2402 -0.2668
   55CHL1    C6 6485   3.107   5.840   9.965  0.5477 -0.2555  0.0213
   55CHL1    H6 6486   3.035   5.801  10.039  1.7530 -0.5864  1.0559
   55CHL1    C7 6487   3.059   5.899   9.835 -0.1672 -0.0670 -0.1283
   55CHL1   H7A 6488   2.977   5.834   9.796  1.0126 -2.2704  0.8883
   55CHL1   H7B 6489   3.007   5.996   9.846 -2.9581 -1.2867 -1.6231
   55CHL1    C8 6490   3.175   5.911   9.731 -0.7653  1.0504  0.1005
   55CHL1    H8 6491   3.200   5.812   9.688 -1.2342  1.1575 -0.4255
   55CHL1   C14 6492   3.115   5.984   9.611 -0.0404  0.6721 -0.1314
   55CHL1   H14 6493   3.069   6.077   9.652  0.0720  0.8025 -0.3028
   55CHL1   C15 6494   2.992   5.933   9.528 -0.0101  0.0722 -0.6041
   55CHL1  H15A 6495   2.995   5.823   9.516  0.8001  0.1286 -0.9996
   55CHL1  H15B 6496   2.905   5.951   9.594 -1.0994 -1.2206 -1.6427
   55CHL1   C16 6497   2.994   6.019   9.397 -0.0089 -0.1447 -0.3062
   55CHL1  H16A 6498   3.006   5.966   9.300  3.0950  0.2774 -0.2587
   55CHL1  H16B 6499   2.897   6.073   9.391  1.0684  1.7858 -3.6929
   55CHL1   C17 6500   3.126   6.117   9.410 -0.5876 -0.5190 -0.0640
   55CHL1   H17 6501   3.102   6.200   9.480 -0.1090  0.0279 -0.5390
   55CHL1   C13 6502   3.217   6.038   9.505 -0.8385 -0.0142  0.2817
   55CHL1   C18 6503   3.272   5.914   9.425  0.8105 -0.7272 -0.4141
   55CHL1  H18A 6504   3.347   5.959   9.356 -0.3862  0.0569 -1.2351
   55CHL1  H18B 6505   3.325   5.852   9.500 -1.6889 -1.0528  1.1720
   55CHL1  H18C 6506   3.192   5.860   9.371  0.5561 -0.2539 -0.5206
   55CHL1   C12 6507   3.338   6.112   9.573 -0.1780  0.5359  0.1913
   55CHL1  H12A 6508   3.418   6.140   9.501 -1.5293  1.0398 -1.1529
   55CHL1  H12B 6509   3.300   6.204   9.622 -2.5647  0.3278 -1.1111
   55CHL1   C11 6510   3.394   6.034   9.694 -1.1872  0.5825  0.8888
   55CHL1  H11A 6511   3.440   5.942   9.651 -0.2022  0.5973  1.8623
   55CHL1  H11B 6512   3.470   6.097   9.744 -2.1211  0.0718  3.0650
   55CHL1    C9 6513   3.288   5.988   9.797 -0.3488  0.4796  0.0397
   55CHL1    H9 6514   3.248   6.080   9.845  0.9071  1.9202 -1.5297
   55CHL1   C10 6515   3.351   5.903   9.917 -0.0949 -0.0686  0.7464
   55CHL1   C19 6516   3.440   5.793   9.862 -0.9776  0.1344  0.1998
   55CHL1  H19A 6517   3.387   5.729   9.788 -2.9087  0.4715  1.2317
   55CHL1  H19B 6518   3.531   5.834   9.813 -1.2019 -1.5082 -1.7253
   55CHL1  H19C 6519   3.483   5.723   9.937 -0.4850  1.2444  0.9820
   55CHL1    C1 6520   3.438   5.999  10.002 -0.4979 -0.2705  0.1357
   55CHL1   H1A 6521   3.527   6.025   9.942  0.1888  1.2961  1.7290
   55CHL1   H1B 6522   3.371   6.088  10.004 -0.7358 -0.4494  1.2024
   55CHL1    C2 6523   3.483   5.935  10.132 -0.0597  0.4105  0.3865
   55CHL1   H2A 6524   3.539   6.010  10.193  1.3691 -0.9366  0.8099
   55CHL1   H2B 6525   3.564   5.860  10.115  0.6263  1.1999  0.1217
   55CHL1   C20 6526   3.177   6.170   9.276 -0.5432  0.3813  0.1353
   55CHL1   H20 6527   3.241   6.091   9.233 -1.9577 -1.7408  1.7077
   55CHL1   C21 6528   3.253   6.303   9.298 -0.2314 -0.2798 -0.5025
   55CHL1  H21A 6529   3.338   6.276   9.364 -0.6874  1.0484  0.6886
   55CHL1  H21B 6530   3.188   6.375   9.352  1.0226 -0.4061  1.2383
   55CHL1  H21C 6531   3.292   6.351   9.205 -0.6141  1.0647 -0.0029
   55CHL1   C22 6532   3.065   6.202   9.176  0.3366  0.1332 -0.6372
   55CHL1  H22A 6533   2.987   6.124   9.171 -0.2832  0.7457 -0.6482
   55CHL1  H22B 6534   3.016   6.292   9.220 -1.1555 -1.1213  0.3555
   55CHL1   C23 6535   3.119   6.222   9.036 -0.3280  0.2525  0.1966
   55CHL1  H23A 6536   3.183   6.312   9.037 -0.4915  0.3664  1.1180
   55CHL1  H23B 6537   3.185   6.134   9.020 -0.1602  0.2670  0.8203
   55CHL1   C24 6538   3.001   6.232   8.929 -0.3926  0.1505 -0.9006
   55CHL1  H24A 6539   2.923   6.154   8.935 -0.3180 -0.0766 -2.4666
   55CHL1  H24B 6540   2.942   6.320   8.963  0.8344  1.0516 -1.0046
   55CHL1   C25 6541   3.057   6.231   8.786  0.5464 -0.5647 -0.2095
   55CHL1   H25 6542   3.103   6.130   8.782 -3.1750 -2.5338  1.0777
   55CHL1   C26 6543   2.954   6.230   8.675 -0.3879  0.4550  0.0663
   55CHL1  H26A 6544   2.919   6.334   8.663 -2.3141 -0.2778 -1.1090
   55CHL1  H26B 6545   2.990   6.195   8.576 -0.5043  0.2359  0.1013
   55CHL1  H26C 6546   2.861   6.175   8.699  0.2067 -0.1148  1.1403
   55CHL1   C27 6547   3.146   6.350   8.759 -0.4079  0.2328 -0.0892
   55CHL1  H27A 6548   3.237   6.350   8.821 -0.2676 -1.9712 -0.2054
   55CHL1  H27B 6549   3.179   6.361   8.653 -0.9361 -2.6475 -0.6330
   55CHL1  H27C 6550   3.093   6.441   8.795 -0.8104  0.0273 -0.1468
   56CHL1    C3 6551   2.792   2.315  10.189 -0.1608  0.2866  0.1889
   56CHL1    H3 6552   2.902   2.308  10.170  0.0989  2.2855  0.7694
   56CHL1    O3 6553   2.760   2.248  10.309  0.6092 -0.8461 -0.4098
   56CHL1   H3' 6554   2.670   2.272  10.333  1.0359 -0.3816  0.7932
   56CHL1    C4 6555   2.759   2.461  10.186 -0.0664 -0.0942  0.3988
   56CHL1   H4A 6556   2.653   2.480  10.213 -0.4489 -0.1764 -0.9781
   56CHL1   H4B 6557   2.803   2.516  10.273 -2.9478  2.8708  0.1599
   56CHL1    C5 6558   2.774   2.526  10.050 -0.4073  0.2590  0.1937
   56CHL1    C6 6559   2.865   2.618  10.037 -0.0188 -0.3756  0.4870
   56CHL1    H6 6560   2.922   2.641  10.129  1.9982 -0.6650 -0.6265
   56CHL1    C7 6561   2.893   2.695   9.907  0.3294 -0.4513  0.6231
   56CHL1   H7A 6562   2.898   2.799   9.945 -0.4391 -0.0444 -0.3336
   56CHL1   H7B 6563   2.991   2.675   9.857 -0.3767  0.4228 -1.2333
   56CHL1    C8 6564   2.780   2.677   9.801 -0.6317 -0.0474 -0.7046
   56CHL1    H8 6565   2.694   2.744   9.822 -1.7669 -0.6757 -3.0555
   56CHL1   C14 6566   2.834   2.717   9.668 -0.4922 -0.2403  0.6282
   56CHL1   H14 6567   2.917   2.645   9.656  0.3216  0.5538  1.3202
   56CHL1   C15 6568   2.899   2.862   9.650 -0.4339  0.1799 -0.6926
   56CHL1  H15A 6569   2.825   2.928   9.701 -0.1285  1.3593 -1.7415
   56CHL1  H15B 6570   2.999   2.875   9.695 -0.5292 -2.4190  0.4525
   56CHL1   C16 6571   2.879   2.884   9.495  0.2983 -0.8633  0.7010
   56CHL1  H16A 6572   2.816   2.973   9.473  2.4261  0.0328 -2.4997
   56CHL1  H16B 6573   2.983   2.907   9.463  0.3369 -1.6389  0.2537
   56CHL1   C17 6574   2.832   2.746   9.437 -0.7360 -0.0865 -0.5199
   56CHL1   H17 6575   2.922   2.681   9.442 -0.5425 -0.0095 -2.4226
   56CHL1   C13 6576   2.733   2.698   9.547 -0.2037  0.0254 -1.0717
   56CHL1   C18 6577   2.610   2.788   9.560  0.2432 -0.5744 -0.1646
   56CHL1  H18A 6578   2.548   2.768   9.470  1.5751 -0.4360 -1.1426
   56CHL1  H18B 6579   2.542   2.770   9.647  0.1574  1.5462  0.2732
   56CHL1  H18C 6580   2.628   2.898   9.570  1.1558 -0.7847  0.6446
   56CHL1   C12 6581   2.694   2.556   9.553 -0.0816 -0.3178 -0.6338
   56CHL1  H12A 6582   2.619   2.539   9.473 -0.8436  2.6917 -0.6804
   56CHL1  H12B 6583   2.786   2.498   9.531  1.5515  1.7138  0.5110
   56CHL1   C11 6584   2.627   2.508   9.682  0.9860  0.5489  0.6427
   56CHL1  H11A 6585   2.534   2.566   9.701  1.6316  1.1271  2.1794
   56CHL1  H11B 6586   2.599   2.401   9.678  0.8626  0.6099 -0.4179
   56CHL1    C9 6587   2.730   2.529   9.801 -0.3354  0.3361 -0.3581
   56CHL1    H9 6588   2.821   2.476   9.766 -0.2899 -0.7668  1.3133
   56CHL1   C10 6589   2.688   2.469   9.937 -0.2896  0.9237  0.5994
   56CHL1   C19 6590   2.538   2.497   9.947  0.7013 -0.7114  0.7655
   56CHL1  H19A 6591   2.487   2.429   9.875 -0.0975  1.2250 -0.6100
   56CHL1  H19B 6592   2.498   2.478  10.049  0.1690  0.4098  0.7879
   56CHL1  H19C 6593   2.531   2.604   9.918  3.1347 -0.7297 -0.1340
   56CHL1    C1 6594   2.725   2.314   9.945  0.6134 -0.0815  0.8616
   56CHL1   H1A 6595   2.657   2.254   9.880  1.5510  0.7308 -0.9522
   56CHL1   H1B 6596   2.826   2.298   9.900 -0.5815  1.2185 -2.6127
   56CHL1    C2 6597   2.719   2.242  10.077 -0.1315  0.5517 -0.6200
   56CHL1   H2A 6598   2.764   2.140  10.079 -1.3278  0.0027 -0.7874
   56CHL1   H2B 6599   2.614   2.236  10.115 -0.0791  1.5579 -0.2912
   56CHL1   C20 6600   2.772   2.747   9.296 -0.4708 -0.0485  0.8253
   56CHL1   H20 6601   2.663   2.728   9.297 -0.3076 -1.0873  1.5330
   56CHL1   C21 6602   2.852   2.645   9.221 -0.5813 -0.2191 -0.2359
   56CHL1  H21A 6603   2.960   2.664   9.239 -0.9112  0.2399  1.4628
   56CHL1  H21B 6604   2.843   2.646   9.110 -0.6405 -1.1810 -0.2545
   56CHL1  H21C 6605   2.830   2.541   9.254 -0.4403 -1.1665 -2.9201
   56CHL1   C22 6606   2.787   2.875   9.221 -0.0352 -0.6015  0.5547
   56CHL1  H22A 6607   2.745   2.962   9.275 -2.1619  0.9620 -3.2143
   56CHL1  H22B 6608   2.887   2.914   9.192 -2.3809  4.5147 -1.9992
   56CHL1   C23 6609   2.713   2.872   9.087  0.0977 -0.7059  0.2037
   56CHL1  H23A 6610   2.766   2.805   9.017 -0.2137 -0.6385 -0.0989
   56CHL1  H23B 6611   2.608   2.834   9.089  0.4190 -2.5295 -4.5414
   56CHL1   C24 6612   2.709   3.014   9.024 -0.7006 -0.1983  0.0559
   56CHL1  H24A 6613   2.676   3.086   9.102 -0.3937 -1.7856  1.7154
   56CHL1  H24B 6614   2.812   3.031   8.985 -1.0099  1.2391 -0.1839
   56CHL1   C25 6615   2.631   3.023   8.892  0.7957 -0.3186 -0.2862
   56CHL1   H25 6616   2.535   2.977   8.926  0.4216  0.5737 -0.1101
   56CHL1   C26 6617   2.606   3.171   8.854  0.3215  0.4613 -0.9572
   56CHL1  H26A 6618   2.528   3.187   8.776 -1.3236 -0.0475  0.4962
   56CHL1  H26B 6619   2.562   3.219   8.945  0.1534  1.0250 -1.3307
   56CHL1  H26C 6620   2.703   3.221   8.836  1.0200 -1.0300 -1.4115
   56CHL1   C27 6621   2.685   2.934   8.782  0.2220 -0.2186 -0.3463
   56CHL1  H27A 6622   2.681   2.825   8.801  0.1999  0.0476  1.3916
   56CHL1  H27B 6623   2.618   2.944   8.695 -1.3871 -0.6927  0.7847
   56CHL1  H27C 6624   2.789   2.967   8.762 -0.6048  3.0994  0.2402
   57CHL1    C3 6625   4.374   5.736  10.412 -0.1604 -0.4120  0.2093
   57CHL1    H3 6626   4.326   5.827  10.372 -0.0045  0.0020  0.9392
   57CHL1    O3 6627   4.362   5.729  10.554 -0.4729  0.1091 -0.4977
   57CHL1   H3' 6628   4.387   5.639  10.576 -1.2373  0.5010  2.4423
   57CHL1    C4 6629   4.301   5.614  10.358  0.0647  0.9654  0.0517
   57CHL1   H4A 6630   4.348   5.519  10.392 -0.3816  0.5964 -0.3388
   57CHL1   H4B 6631   4.194   5.617  10.389 -0.7548  0.1737 -2.4391
   57CHL1    C5 6632   4.307   5.616  10.210  0.2038 -0.4010  0.9821
   57CHL1    C6 6633   4.193   5.604  10.138  0.2321  0.3986 -0.4504
   57CHL1    H6 6634   4.103   5.600  10.201  1.4960  2.0184  1.5857
   57CHL1    C7 6635   4.178   5.590   9.991 -0.4264  0.6075  0.0785
   57CHL1   H7A 6636   4.129   5.492   9.972  2.9133 -1.5358  1.6088
   57CHL1   H7B 6637   4.120   5.676   9.952 -2.2970 -0.4976  0.2572
   57CHL1    C8 6638   4.325   5.575   9.928  1.0867 -0.5141 -0.1300
   57CHL1    H8 6639   4.357   5.469   9.930  1.2479 -0.5239 -1.6830
   57CHL1   C14 6640   4.320   5.612   9.779 -0.4413  0.6708 -0.3647
   57CHL1   H14 6641   4.282   5.717   9.780  1.5359  1.4326  1.2542
   57CHL1   C15 6642   4.229   5.533   9.687 -0.3776  0.3552  0.4473
   57CHL1  H15A 6643   4.264   5.427   9.694  1.4962  0.7741 -1.4109
   57CHL1  H15B 6644   4.125   5.530   9.724  0.0075 -2.2542  1.5447
   57CHL1   C16 6645   4.260   5.579   9.545  0.0207 -0.0828 -0.1322
   57CHL1  H16A 6646   4.264   5.484   9.487  0.5730 -1.7829  2.4791
   57CHL1  H16B 6647   4.186   5.651   9.505  1.1090  0.6083 -0.9261
   57CHL1   C17 6648   4.399   5.659   9.556  0.9511 -0.7400 -0.4824
   57CHL1   H17 6649   4.377   5.765   9.581 -0.4443 -1.4616  1.6934
   57CHL1   C13 6650   4.455   5.622   9.707 -0.8516  0.3796 -0.5066
   57CHL1   C18 6651   4.521   5.486   9.685  0.4893  0.1055 -1.1950
   57CHL1  H18A 6652   4.613   5.496   9.623  1.3818  0.6083  0.1519
   57CHL1  H18B 6653   4.556   5.453   9.785  2.6774 -0.2749 -2.0127
   57CHL1  H18C 6654   4.454   5.406   9.648 -0.5991 -0.9112  2.5550
   57CHL1   C12 6655   4.543   5.732   9.779  0.6473  0.5303 -0.0207
   57CHL1  H12A 6656   4.642   5.741   9.728  0.7434 -1.6537 -0.2919
   57CHL1  H12B 6657   4.489   5.829   9.770 -2.3047 -0.9758  0.4033
   57CHL1   C11 6658   4.554   5.703   9.922  0.6764 -0.9443  0.1140
   57CHL1  H11A 6659   4.607   5.605   9.924  1.1618 -0.6776  2.0331
   57CHL1  H11B 6660   4.614   5.784   9.968  0.4935  0.8828 -2.5706
   57CHL1    C9 6661   4.421   5.669   9.998 -0.0193 -0.5940 -0.6314
   57CHL1    H9 6662   4.375   5.770  10.002 -2.6100 -1.7217 -0.2188
   57CHL1   C10 6663   4.442   5.625  10.148  0.0513  0.8565 -0.3930
   57CHL1   C19 6664   4.520   5.492  10.155  0.0165 -0.0638  0.6016
   57CHL1  H19A 6665   4.538   5.466  10.261 -0.2190  0.2524  0.7198
   57CHL1  H19B 6666   4.469   5.403  10.112  1.5498 -1.0226  0.6552
   57CHL1  H19C 6667   4.618   5.490  10.101 -0.1750  1.1639  0.1915
   57CHL1    C1 6668   4.526   5.737  10.216 -0.7184 -0.1475 -0.0844
   57CHL1   H1A 6669   4.628   5.719  10.177 -0.2166 -0.9893  1.5761
   57CHL1   H1B 6670   4.499   5.840  10.184  0.7479  0.4805  0.5987
   57CHL1    C2 6671   4.520   5.733  10.366 -0.0755  0.0352 -0.1307
   57CHL1   H2A 6672   4.572   5.813  10.423 -1.2838  0.7536 -0.0207
   57CHL1   H2B 6673   4.551   5.634  10.407 -0.9504 -0.1240  0.1787
   57CHL1   C20 6674   4.490   5.653   9.429 -0.3981 -0.7065 -0.0763
   57CHL1   H20 6675   4.567   5.573   9.442  1.3219  0.3754 -2.8204
   57CHL1   C21 6676   4.557   5.787   9.430 -0.1455 -0.1377 -0.1361
   57CHL1  H21A 6677   4.652   5.796   9.374 -0.3304  1.9380 -0.1868
   57CHL1  H21B 6678   4.570   5.826   9.533  0.5848 -1.9135  0.4915
   57CHL1  H21C 6679   4.489   5.848   9.367 -0.1243 -0.8004 -0.8282
   57CHL1   C22 6680   4.414   5.633   9.298  0.5377  0.0733  0.3950
   57CHL1  H22A 6681   4.369   5.531   9.305 -4.2422  1.8572 -0.3919
   57CHL1  H22B 6682   4.324   5.697   9.289 -1.2464 -2.1929  1.1187
   57CHL1   C23 6683   4.492   5.642   9.163  0.2468 -0.1373 -0.1560
   57CHL1  H23A 6684   4.500   5.751   9.144  0.0164 -0.1402 -0.2817
   57CHL1  H23B 6685   4.589   5.592   9.182  0.2587  0.2257  0.8094
   57CHL1   C24 6686   4.430   5.560   9.045  0.5200  0.6909 -0.4015
   57CHL1  H24A 6687   4.451   5.453   9.068  0.7205  0.6857 -0.6122
   57CHL1  H24B 6688   4.319   5.566   9.050  0.6233  2.2478  0.6052
   57CHL1   C25 6689   4.487   5.600   8.913 -1.2694  0.7395  0.5399
   57CHL1   H25 6690   4.467   5.518   8.841 -0.2679  0.9820 -0.0473
   57CHL1   C26 6691   4.427   5.731   8.857 -0.1646  0.4379 -0.3681
   57CHL1  H26A 6692   4.445   5.819   8.922 -0.4668  1.9566 -2.2678
   57CHL1  H26B 6693   4.456   5.759   8.754 -2.8735  0.8406 -1.1095
   57CHL1  H26C 6694   4.316   5.726   8.867 -0.3592  1.1921 -1.9912
   57CHL1   C27 6695   4.647   5.603   8.909  0.2314  0.4019 -0.0489
   57CHL1  H27A 6696   4.676   5.683   8.981  3.2437  0.1008 -0.8037
   57CHL1  H27B 6697   4.674   5.499   8.939 -2.6733 -0.2863  0.4713
   57CHL1  H27C 6698   4.690   5.638   8.813  2.5605 -2.3369 -0.1310
   58CHL1    C3 6699   1.860   2.464  10.039 -0.5412  0.7341  0.5893
   58CHL1    H3 6700   1.959   2.508  10.018 -0.0066 -1.5941 -2.4973
   58CHL1    O3 6701   1.838   2.455  10.180 -0.1383  0.1399  0.2457
   58CHL1   H3' 6702   1.745   2.433  10.193 -0.3276 -0.9656 -2.3552
   58CHL1    C4 6703   1.757   2.557   9.979 -0.0357 -0.0718  0.2238
   58CHL1   H4A 6704   1.652   2.543  10.011  0.0026 -0.8636  0.0206
   58CHL1   H4B 6705   1.769   2.660  10.019 -0.7534  0.1522 -0.1205
   58CHL1    C5 6706   1.776   2.570   9.826 -0.5528  0.6222  0.6808
   58CHL1    C6 6707   1.778   2.693   9.772 -0.6714 -0.5224 -0.0591
   58CHL1    H6 6708   1.771   2.778   9.842  0.6264 -0.7486  0.3747
   58CHL1    C7 6709   1.778   2.716   9.628  0.3108 -0.4816  0.0670
   58CHL1   H7A 6710   1.701   2.794   9.609 -0.7610 -0.9572  2.1566
   58CHL1   H7B 6711   1.877   2.744   9.586 -0.4580 -0.6282 -1.9555
   58CHL1    C8 6712   1.731   2.592   9.546 -0.2561  0.4124 -0.3852
   58CHL1    H8 6713   1.621   2.583   9.550 -0.2155 -1.0653 -1.6045
   58CHL1   C14 6714   1.767   2.609   9.397  0.3152  0.3210  0.3263
   58CHL1   H14 6715   1.877   2.627   9.394  0.4068 -0.2953 -0.9987
   58CHL1   C15 6716   1.714   2.739   9.330 -0.7043  0.6064  0.2073
   58CHL1  H15A 6717   1.607   2.749   9.360 -0.9688 -0.6743 -0.2395
   58CHL1  H15B 6718   1.784   2.822   9.352 -1.3262  0.8095  1.5021
   58CHL1   C16 6719   1.723   2.702   9.178  0.1726 -0.1017 -0.0462
   58CHL1  H16A 6720   1.622   2.711   9.133 -0.0413  0.7778  0.5866
   58CHL1  H16B 6721   1.776   2.779   9.117 -1.4728  0.2246 -1.1309
   58CHL1   C17 6722   1.777   2.556   9.172 -0.5683 -0.0023 -0.1049
   58CHL1   H17 6723   1.887   2.562   9.188 -0.9101  1.1938  2.2880
   58CHL1   C13 6724   1.741   2.492   9.306  0.2618  0.1856 -0.3019
   58CHL1   C18 6725   1.587   2.453   9.303  0.0901 -0.1237 -0.1201
   58CHL1  H18A 6726   1.571   2.355   9.253  0.4904  0.2567 -1.0125
   58CHL1  H18B 6727   1.535   2.453   9.401 -0.9978 -2.0196 -0.6461
   58CHL1  H18C 6728   1.530   2.538   9.258  0.5652 -0.6674 -1.8037
   58CHL1   C12 6729   1.822   2.372   9.361 -0.4880  0.1445 -0.3373
   58CHL1  H12A 6730   1.793   2.274   9.317 -1.5121 -0.9154  2.4291
   58CHL1  H12B 6731   1.933   2.384   9.368  0.0149 -3.3131 -0.6029
   58CHL1   C11 6732   1.780   2.345   9.505 -0.6810  1.4783 -0.1182
   58CHL1  H11A 6733   1.680   2.299   9.519  1.3202 -3.1248  1.0146
   58CHL1  H11B 6734   1.844   2.260   9.538  0.7547  2.3208 -0.6244
   58CHL1    C9 6735   1.796   2.461   9.603 -0.2525 -0.4000  0.2269
   58CHL1    H9 6736   1.903   2.489   9.606 -0.5976  1.3388 -1.1956
   58CHL1   C10 6737   1.769   2.432   9.753  0.5034  0.1098 -0.5111
   58CHL1   C19 6738   1.619   2.389   9.761 -0.4255  0.0787  0.5278
   58CHL1  H19A 6739   1.550   2.455   9.704 -0.7781  0.2206  1.1055
   58CHL1  H19B 6740   1.613   2.285   9.722 -0.7322  0.2107  0.2243
   58CHL1  H19C 6741   1.580   2.381   9.865  3.4244  0.9848  2.2429
   58CHL1    C1 6742   1.863   2.323   9.819 -0.3811  1.4266  0.3871
   58CHL1   H1A 6743   1.847   2.224   9.770  0.1023  1.2922  0.4923
   58CHL1   H1B 6744   1.968   2.346   9.790 -0.3548  3.4279  1.8457
   58CHL1    C2 6745   1.859   2.323   9.975 -0.0342  1.0008  0.0675
   58CHL1   H2A 6746   1.944   2.262  10.010 -0.9006 -0.5488 -0.4173
   58CHL1   H2B 6747   1.759   2.283  10.004 -1.1000  2.6863 -1.0347
   58CHL1   C20 6748   1.747   2.475   9.036 -0.0764 -0.2309  0.1532
   58CHL1   H20 6749   1.638   2.477   9.018  0.0523 -0.9348 -0.8403
   58CHL1   C21 6750   1.789   2.327   9.033 -0.0226  0.4302  0.1416
   58CHL1  H21A 6751   1.728   2.264   9.101 -1.6014 -2.0527 -3.3101
   58CHL1  H21B 6752   1.893   2.323   9.072 -0.0195  0.0345  0.0987
   58CHL1  H21C 6753   1.791   2.271   8.937  1.1701  1.0246 -0.2085
   58CHL1   C22 6754   1.808   2.546   8.908 -0.2241 -0.0211 -1.1848
   58CHL1  H22A 6755   1.799   2.656   8.921  0.6348  0.0297 -0.9648
   58CHL1  H22B 6756   1.919   2.532   8.908 -0.3754 -1.4831 -2.3505
   58CHL1   C23 6757   1.755   2.517   8.770 -0.8071  0.6492  0.1211
   58CHL1  H23A 6758   1.780   2.416   8.732 -0.3334  0.9293 -0.3189
   58CHL1  H23B 6759   1.645   2.509   8.787 -0.7695  2.2309  1.2991
   58CHL1   C24 6760   1.796   2.631   8.678 -0.2230  0.4366 -0.7344
   58CHL1  H24A 6761   1.767   2.727   8.726  0.9139  1.0288 -1.1742
   58CHL1  H24B 6762   1.903   2.644   8.651 -0.6839 -0.1450 -3.0610
   58CHL1   C25 6763   1.736   2.631   8.537 -1.2298  0.4234  0.1301
   58CHL1   H25 6764   1.777   2.720   8.484  0.6263 -0.9858 -0.8900
   58CHL1   C26 6765   1.786   2.509   8.445 -0.0495 -0.1478 -0.1764
   58CHL1  H26A 6766   1.750   2.529   8.342  2.9225  2.7718 -0.7740
   58CHL1  H26B 6767   1.893   2.484   8.431  0.4083  0.7650  1.4949
   58CHL1  H26C 6768   1.739   2.418   8.490 -1.0979  0.9760  1.0667
   58CHL1   C27 6769   1.590   2.644   8.544  0.9303  0.2132  0.5697
   58CHL1  H27A 6770   1.551   2.728   8.605  0.1427  0.8573 -0.7738
   58CHL1  H27B 6771   1.539   2.672   8.449  3.3373  1.5112 -0.4332
   58CHL1  H27C 6772   1.548   2.550   8.585 -0.2810  0.8740  0.8914
   59CHL1    C3 6773   6.229   1.998  10.267 -0.3076 -0.5325  0.0322
   59CHL1    H3 6774   6.321   1.990  10.204  0.0939  1.1263  0.3493
   59CHL1    O3 6775   6.271   1.996  10.402  0.3573 -0.6824 -0.6911
   59CHL1   H3' 6776   6.314   2.080  10.416  1.5427 -1.4918  0.9370
   59CHL1    C4 6777   6.173   2.133  10.238  0.1898 -0.1158  0.2073
   59CHL1   H4A 6778   6.097   2.171  10.309  0.7032  1.6479 -0.1477
   59CHL1   H4B 6779   6.262   2.199  10.250 -0.4508  0.5765  1.2516
   59CHL1    C5 6780   6.127   2.144  10.093  0.3185  0.2102 -0.4198
   59CHL1    C6 6781   6.180   2.232  10.010 -0.1808  0.2748  0.9874
   59CHL1    H6 6782   6.251   2.309  10.044 -1.1816  1.1766  1.1049
   59CHL1    C7 6783   6.138   2.243   9.869 -0.4056 -0.1134  0.7506
   59CHL1   H7A 6784   6.123   2.348   9.834  0.5745 -0.7428 -1.7168
   59CHL1   H7B 6785   6.214   2.211   9.795 -0.5047 -2.2099  1.5134
   59CHL1    C8 6786   6.013   2.160   9.834  0.2100 -0.8084 -0.5616
   59CHL1    H8 6787   5.929   2.227   9.862  1.4139 -0.3687  2.2777
   59CHL1   C14 6788   5.989   2.141   9.683 -0.4658 -0.2030 -0.4534
   59CHL1   H14 6789   6.074   2.076   9.654 -0.9253 -0.9603 -0.1439
   59CHL1   C15 6790   6.004   2.271   9.596  0.6963 -0.3353 -0.4759
   59CHL1  H15A 6791   5.936   2.349   9.638  1.0012 -0.0204 -0.5560
   59CHL1  H15B 6792   6.105   2.316   9.602  0.1752  0.7639  1.0310
   59CHL1   C16 6793   5.941   2.217   9.460 -0.7738 -0.9406 -0.4233
   59CHL1  H16A 6794   5.876   2.296   9.418  0.8360  0.3128 -0.6943
   59CHL1  H16B 6795   6.024   2.214   9.386  1.2371  0.8317  1.5634
   59CHL1   C17 6796   5.880   2.083   9.495  0.0066  0.1066  0.0239
   59CHL1   H17 6797   5.957   2.006   9.469 -1.3406 -1.4414  0.4304
   59CHL1   C13 6798   5.864   2.070   9.647 -0.6163 -0.1538  0.1816
   59CHL1   C18 6799   5.744   2.144   9.705 -0.7114  0.2791 -0.3796
   59CHL1  H18A 6800   5.647   2.095   9.683 -1.3145  0.6171  1.4270
   59CHL1  H18B 6801   5.736   2.152   9.815  0.0488  1.6812 -0.4057
   59CHL1  H18C 6802   5.746   2.248   9.665 -3.1286  0.6985  0.4090
   59CHL1   C12 6803   5.875   1.927   9.703 -0.0329 -0.6714 -0.8236
   59CHL1  H12A 6804   5.783   1.867   9.683  0.7460 -1.7588 -1.2397
   59CHL1  H12B 6805   5.961   1.872   9.659  0.2759  0.1674 -1.2829
   59CHL1   C11 6806   5.894   1.926   9.856  0.2134 -0.5451  0.0609
   59CHL1  H11A 6807   5.799   1.959   9.903  0.4363 -2.3767  1.9499
   59CHL1  H11B 6808   5.908   1.819   9.884 -1.6447 -1.1898 -1.2368
   59CHL1    C9 6809   6.010   2.022   9.896  0.6660 -0.1198  0.0396
   59CHL1    H9 6810   6.106   1.983   9.855  1.7586  1.0367  1.3694
   59CHL1   C10 6811   6.029   2.027  10.054  0.4257 -0.1791 -0.2362
   59CHL1   C19 6812   5.888   2.063  10.114  0.0470 -0.3622 -0.1768
   59CHL1  H19A 6813   5.829   2.144  10.067 -1.2603 -0.9008  0.5041
   59CHL1  H19B 6814   5.822   1.975  10.106 -0.5725  0.1751 -1.0866
   59CHL1  H19C 6815   5.898   2.095  10.220 -0.7318  0.0784 -0.2305
   59CHL1    C1 6816   6.074   1.892  10.105  0.6180  0.2854  0.4056
   59CHL1   H1A 6817   5.992   1.819  10.088  1.4637 -0.0821 -2.5556
   59CHL1   H1B 6818   6.159   1.871  10.037  0.6848  3.0376 -0.4617
   59CHL1    C2 6819   6.113   1.897  10.252 -0.7236 -0.2162  0.5971
   59CHL1   H2A 6820   6.138   1.794  10.285  0.7771 -0.0111  0.2142
   59CHL1   H2B 6821   6.025   1.922  10.315  0.3676  0.0100  2.0930
   59CHL1   C20 6822   5.766   2.035   9.412  0.3591 -1.3072 -0.3930
   59CHL1   H20 6823   5.708   1.964   9.476 -0.6375  1.0617  1.5372
   59CHL1   C21 6824   5.823   1.968   9.293  0.1238  0.3496 -0.2382
   59CHL1  H21A 6825   5.879   2.028   9.218  0.4100 -0.9439 -1.0899
   59CHL1  H21B 6826   5.741   1.928   9.229  1.4042  1.3992 -2.6407
   59CHL1  H21C 6827   5.878   1.879   9.330 -2.1731 -1.1242 -0.1263
   59CHL1   C22 6828   5.680   2.142   9.363  0.7772 -0.4751 -0.2315
   59CHL1  H22A 6829   5.649   2.214   9.442 -0.9899 -0.7071 -0.6602
   59CHL1  H22B 6830   5.740   2.197   9.288  0.8462 -1.0428 -0.5970
   59CHL1   C23 6831   5.545   2.103   9.284  0.3441  0.2995  0.0854
   59CHL1  H23A 6832   5.583   2.097   9.180  2.1464  2.7603  0.5221
   59CHL1  H23B 6833   5.505   2.011   9.333  1.2733  0.9626  2.2027
   59CHL1   C24 6834   5.432   2.214   9.277 -0.7377  0.5230 -0.6800
   59CHL1  H24A 6835   5.400   2.265   9.371 -1.2795 -0.7650 -0.1430
   59CHL1  H24B 6836   5.464   2.292   9.204  0.5947  0.9292  0.2848
   59CHL1   C25 6837   5.296   2.151   9.241  0.2905 -0.3602  0.0267
   59CHL1   H25 6838   5.274   2.077   9.320 -0.0910 -1.0392 -0.6942
   59CHL1   C26 6839   5.178   2.247   9.243  0.0166  0.4320  0.7017
   59CHL1  H26A 6840   5.083   2.193   9.223  0.5364 -0.1345 -0.3548
   59CHL1  H26B 6841   5.169   2.306   9.337  2.8371  1.5628  0.3547
   59CHL1  H26C 6842   5.176   2.311   9.153 -2.8257  0.4065  0.6366
   59CHL1   C27 6843   5.294   2.060   9.119  0.5031  0.3807  0.4998
   59CHL1  H27A 6844   5.297   2.112   9.021  0.7913 -3.5691 -1.7925
   59CHL1  H27B 6845   5.385   1.996   9.116  1.4618  1.6605  1.1537
   59CHL1  H27C 6846   5.199   2.003   9.112  0.1790  0.8732  0.8522
   60CHL1    C3 6847   5.911   0.435  10.301  0.3221 -0.0555  0.1772
   60CHL1    H3 6848   5.853   0.343  10.324 -1.3790  1.4406  2.2549
   60CHL1    O3 6849   5.941   0.478  10.432  0.7900 -0.4642  0.2822
   60CHL1   H3' 6850   5.907   0.567  10.443  0.4766 -0.3267 -1.4706
   60CHL1    C4 6851   6.037   0.411  10.214  0.1652 -0.4092 -0.2574
   60CHL1   H4A 6852   6.097   0.504  10.211 -0.7155  0.3528  2.6749
   60CHL1   H4B 6853   6.088   0.321  10.256 -0.5505 -1.4864 -1.6289
   60CHL1    C5 6854   6.002   0.370  10.073 -0.1706  0.1709  0.3740
   60CHL1    C6 6855   6.043   0.257  10.019  0.6305  0.1243 -0.5146
   60CHL1    H6 6856   6.082   0.180  10.088 -1.6782 -0.8475 -0.2053
   60CHL1    C7 6857   6.001   0.225   9.878 -0.6546  0.3126 -0.1763
   60CHL1   H7A 6858   6.082   0.168   9.829 -0.6447 -0.0964  0.3076
   60CHL1   H7B 6859   5.918   0.152   9.877 -0.3411 -0.1072  1.4240
   60CHL1    C8 6860   5.957   0.349   9.790  0.3422  0.0692 -0.1647
   60CHL1    H8 6861   6.054   0.398   9.767  1.9470 -2.1376  1.3781
   60CHL1   C14 6862   5.907   0.311   9.660  0.7686 -0.2413  0.7283
   60CHL1   H14 6863   5.824   0.238   9.674  1.3117 -0.7889  1.1618
   60CHL1   C15 6864   5.996   0.229   9.564 -0.1462 -0.1353  0.7068
   60CHL1  H15A 6865   6.096   0.278   9.560 -0.5048  0.5657  0.0886
   60CHL1  H15B 6866   6.026   0.127   9.595  3.6311  0.7384  0.4001
   60CHL1   C16 6867   5.909   0.241   9.435  0.1631 -0.6510 -0.0922
   60CHL1  H16A 6868   5.977   0.246   9.348  0.5055  1.5546  0.2538
   60CHL1  H16B 6869   5.850   0.147   9.423  1.4227 -1.2242 -2.4283
   60CHL1   C17 6870   5.802   0.355   9.452 -0.0990 -0.6719  0.3738
   60CHL1   H17 6871   5.700   0.315   9.466 -0.5187  0.7900  1.8453
   60CHL1   C13 6872   5.843   0.431   9.575  0.8949 -0.1907  0.1628
   60CHL1   C18 6873   5.950   0.536   9.536  0.4379  0.1746 -0.0322
   60CHL1  H18A 6874   6.020   0.565   9.617  0.8152  2.4696 -1.1121
   60CHL1  H18B 6875   6.008   0.489   9.454 -3.4430 -1.9872 -1.8231
   60CHL1  H18C 6876   5.899   0.632   9.513 -0.5870 -0.7240 -1.6567
   60CHL1   C12 6877   5.725   0.479   9.662 -0.1193  0.1495  0.3238
   60CHL1  H12A 6878   5.667   0.553   9.603 -0.1934 -1.0380 -1.1918
   60CHL1  H12B 6879   5.655   0.395   9.682  1.0485 -0.9013  0.1308
   60CHL1   C11 6880   5.779   0.542   9.795  0.4227 -0.3935  0.4406
   60CHL1  H11A 6881   5.839   0.628   9.757 -2.7602  1.0205 -1.8423
   60CHL1  H11B 6882   5.691   0.579   9.853 -0.8773  0.0791 -1.6896
   60CHL1    C9 6883   5.852   0.429   9.870  0.2251  0.1008 -0.0281
   60CHL1    H9 6884   5.772   0.357   9.899 -0.2755  0.4771 -0.4640
   60CHL1   C10 6885   5.909   0.479  10.003 -0.4024 -0.6266  0.5668
   60CHL1   C19 6886   5.990   0.615   9.974 -0.1269  0.4294  0.2626
   60CHL1  H19A 6887   6.066   0.644  10.051 -1.0266 -0.7012  1.6464
   60CHL1  H19B 6888   6.044   0.602   9.878 -0.2207  0.3579  0.2191
   60CHL1  H19C 6889   5.920   0.701   9.974 -0.3656  0.2813  1.8169
   60CHL1    C1 6890   5.788   0.522  10.089 -0.5466 -0.1133 -1.0767
   60CHL1   H1A 6891   5.753   0.619  10.046  1.2025  1.1385  0.1826
   60CHL1   H1B 6892   5.712   0.442  10.093 -2.6443  1.8033  1.8578
   60CHL1    C2 6893   5.822   0.550  10.237 -0.2701  0.3920  0.0180
   60CHL1   H2A 6894   5.729   0.548  10.298  1.2707 -0.3064  2.4818
   60CHL1   H2B 6895   5.882   0.644  10.245  2.1339 -0.9209 -1.3238
   60CHL1   C20 6896   5.772   0.430   9.320 -0.2784  0.0391  0.2122
   60CHL1   H20 6897   5.860   0.487   9.284  0.6344 -2.9095 -2.6909
   60CHL1   C21 6898   5.650   0.523   9.333 -0.4067 -0.2639 -0.1707
   60CHL1  H21A 6899   5.666   0.600   9.412  0.9103 -1.5668  0.9032
   60CHL1  H21B 6900   5.556   0.468   9.353 -0.4765  0.4680  1.6800
   60CHL1  H21C 6901   5.644   0.575   9.235 -0.6865 -1.2018 -0.6704
   60CHL1   C22 6902   5.748   0.330   9.207  0.3780 -0.1235 -0.2476
   60CHL1  H22A 6903   5.830   0.256   9.195 -0.1580 -0.5256 -1.7322
   60CHL1  H22B 6904   5.654   0.273   9.225  0.2573  0.9413  3.0296
   60CHL1   C23 6905   5.719   0.399   9.066 -0.0404 -0.0497 -0.0577
   60CHL1  H23A 6906   5.625   0.457   9.074  1.2223  2.0208  0.7113
   60CHL1  H23B 6907   5.810   0.458   9.041  1.9029 -2.0623  1.7216
   60CHL1   C24 6908   5.700   0.290   8.954  0.4806  1.5982 -0.7195
   60CHL1  H24A 6909   5.790   0.226   8.949 -0.5710  0.1572 -2.0943
   60CHL1  H24B 6910   5.630   0.209   8.984  3.0317 -0.6753 -0.4651
   60CHL1   C25 6911   5.671   0.355   8.818 -0.0131  0.1783 -0.2195
   60CHL1   H25 6912   5.743   0.438   8.804  0.4250 -0.0826  0.4447
   60CHL1   C26 6913   5.696   0.253   8.703 -0.1911  1.0020  0.5167
   60CHL1  H26A 6914   5.612   0.182   8.716  2.6140 -2.3841  1.8137
   60CHL1  H26B 6915   5.688   0.302   8.604 -0.0812  1.0461  0.5301
   60CHL1  H26C 6916   5.797   0.207   8.702  0.3033  2.0615  0.4895
   60CHL1   C27 6917   5.529   0.409   8.809 -0.1305 -0.1199 -0.5373
   60CHL1  H27A 6918   5.512   0.495   8.877 -4.4526 -0.2110 -1.2453
   60CHL1  H27B 6919   5.507   0.442   8.705  2.3231 -0.3270 -1.1991
   60CHL1  H27C 6920   5.454   0.336   8.845 -0.5690 -0.1813 -1.5542
   61CHL1    C3 6921   3.429   2.780  10.458 -0.1350  0.4061  0.6250
   61CHL1    H3 6922   3.331   2.832  10.456 -0.2646  0.2423  1.9006
   61CHL1    O3 6923   3.454   2.754  10.592  0.3988 -0.0954 -0.7272
   61CHL1   H3' 6924   3.548   2.751  10.609  0.3256 -1.0420 -0.4540
   61CHL1    C4 6925   3.422   2.648  10.368  0.2940  0.6063  0.2340
   61CHL1   H4A 6926   3.523   2.604  10.377  0.0830  0.0049 -0.2767
   61CHL1   H4B 6927   3.345   2.590  10.424  0.2873  0.1343 -0.2619
   61CHL1    C5 6928   3.394   2.688  10.221  0.3433  0.2465 -0.9294
   61CHL1    C6 6929   3.289   2.630  10.163 -0.6574 -0.0987  0.0258
   61CHL1    H6 6930   3.236   2.553  10.221  0.9799 -0.6378  0.8808
   61CHL1    C7 6931   3.246   2.654  10.019 -0.9668 -0.9915  0.2353
   61CHL1   H7A 6932   3.248   2.556   9.967  0.5035 -1.4203  1.0485
   61CHL1   H7B 6933   3.145   2.699  10.026 -0.1408  0.6925  2.5659
   61CHL1    C8 6934   3.359   2.735   9.950  0.4249 -0.2724 -0.5560
   61CHL1    H8 6935   3.444   2.669   9.922  0.1875 -0.2472 -1.3704
   61CHL1   C14 6936   3.314   2.789   9.813 -0.6488  1.1128  0.2314
   61CHL1   H14 6937   3.235   2.862   9.842 -0.5364  1.5552 -0.5438
   61CHL1   C15 6938   3.251   2.688   9.717  0.5206 -0.0961  0.1534
   61CHL1  H15A 6939   3.311   2.595   9.720  0.1979 -0.2855  1.3904
   61CHL1  H15B 6940   3.145   2.659   9.729  0.9839 -1.3356  1.5078
   61CHL1   C16 6941   3.256   2.755   9.581  0.3386 -0.1676 -0.0999
   61CHL1  H16A 6942   3.301   2.683   9.509  1.0701 -0.0476  0.2335
   61CHL1  H16B 6943   3.155   2.784   9.545  0.8604  3.0578  0.7086
   61CHL1   C17 6944   3.353   2.877   9.599 -0.8865  0.9081  0.0149
   61CHL1   H17 6945   3.286   2.961   9.626 -0.2208  0.4299  3.5798
   61CHL1   C13 6946   3.426   2.857   9.732 -0.0416 -0.2798 -0.6675
   61CHL1   C18 6947   3.547   2.771   9.700  0.8651  0.2140 -0.3796
   61CHL1  H18A 6948   3.595   2.734   9.793 -1.0082  1.1345  1.0372
   61CHL1  H18B 6949   3.522   2.682   9.639 -0.1896  0.9937 -1.1363
   61CHL1  H18C 6950   3.622   2.838   9.652  0.2691  0.8102 -0.5067
   61CHL1   C12 6951   3.461   2.985   9.807  0.2008  0.6426  0.6626
   61CHL1  H12A 6952   3.540   3.042   9.754  0.9312 -0.5879  0.3756
   61CHL1  H12B 6953   3.374   3.053   9.797 -0.1951 -0.1155 -2.0836
   61CHL1   C11 6954   3.505   2.954   9.950  1.0167 -0.0676 -0.1958
   61CHL1  H11A 6955   3.608   2.913   9.941  0.9707 -0.6830  1.6351
   61CHL1  H11B 6956   3.514   3.044  10.013  0.8100 -0.7224  0.7949
   61CHL1    C9 6957   3.417   2.853  10.033 -0.0547 -0.4475  0.9091
   61CHL1    H9 6958   3.331   2.909  10.073 -1.2186 -0.7363 -1.0336
   61CHL1   C10 6959   3.484   2.802  10.161 -1.0072 -0.7011  0.8441
   61CHL1   C19 6960   3.630   2.740  10.141 -0.1432  0.1825  0.1378
   61CHL1  H19A 6961   3.698   2.827  10.135 -0.9421  0.7274 -1.8973
   61CHL1  H19B 6962   3.649   2.680  10.233  0.5219  1.2945  0.7539
   61CHL1  H19C 6963   3.633   2.682  10.047  0.5773 -1.7424  1.2924
   61CHL1    C1 6964   3.495   2.915  10.264 -0.1726 -0.3005  0.0638
   61CHL1   H1A 6965   3.562   2.996  10.229 -1.1353  0.6746  0.4102
   61CHL1   H1B 6966   3.398   2.970  10.261 -1.0806 -1.7974  0.9901
   61CHL1    C2 6967   3.527   2.879  10.404  0.0900 -0.3709  0.3559
   61CHL1   H2A 6968   3.516   2.970  10.467 -0.3871 -0.4628  0.4138
   61CHL1   H2B 6969   3.630   2.850  10.433  0.5224  1.7570  1.1659
   61CHL1   C20 6970   3.429   2.923   9.472 -0.6197  0.1839 -0.3741
   61CHL1   H20 6971   3.504   2.842   9.456  0.1052  0.3866  1.6868
   61CHL1   C21 6972   3.510   3.056   9.491 -0.7028  0.2784 -0.0355
   61CHL1  H21A 6973   3.450   3.137   9.538 -0.6956 -0.3654  1.1132
   61CHL1  H21B 6974   3.543   3.095   9.393 -1.5797  1.3164  0.0699
   61CHL1  H21C 6975   3.596   3.035   9.558 -0.6010  2.4508  0.5817
   61CHL1   C22 6976   3.343   2.921   9.343  0.3157 -0.1023 -0.0829
   61CHL1  H22A 6977   3.410   2.926   9.254 -1.5447  1.5323 -1.4820
   61CHL1  H22B 6978   3.282   2.828   9.341 -0.8166  0.6059  0.4823
   61CHL1   C23 6979   3.247   3.036   9.336  0.3953  0.0343  0.1956
   61CHL1  H23A 6980   3.173   3.020   9.418 -0.4032  0.9804 -0.3264
   61CHL1  H23B 6981   3.284   3.138   9.359  2.6302 -0.4249 -1.1003
   61CHL1   C24 6982   3.159   3.029   9.211  0.0455 -0.3978 -0.6472
   61CHL1  H24A 6983   3.108   2.931   9.196 -0.2414 -0.5902  1.3077
   61CHL1  H24B 6984   3.081   3.106   9.227  1.0044  0.3423  0.7331
   61CHL1   C25 6985   3.235   3.052   9.074 -0.7618  0.3537 -0.4728
   61CHL1   H25 6986   3.298   2.961   9.066  1.7326  2.1025 -2.4781
   61CHL1   C26 6987   3.144   3.066   8.952 -0.0390 -0.0723  0.1518
   61CHL1  H26A 6988   3.191   3.044   8.854 -2.2018  0.3560 -1.0430
   61CHL1  H26B 6989   3.052   3.005   8.960 -0.6331  0.5923 -1.2924
   61CHL1  H26C 6990   3.118   3.174   8.950 -0.5863 -0.1424  1.8415
   61CHL1   C27 6991   3.327   3.181   9.079  0.0536  0.8364 -0.2995
   61CHL1  H27A 6992   3.406   3.170   9.156  0.2262 -3.0374 -0.8534
   61CHL1  H27B 6993   3.374   3.206   8.981  1.5423  0.2605  0.2384
   61CHL1  H27C 6994   3.255   3.259   9.110 -0.9899  0.2429 -1.1569
   62CHL1    C3 6995   4.328   0.616  10.115 -0.0080  0.3576 -0.0347
   62CHL1    H3 6996   4.228   0.597  10.070 -0.3979  3.1962 -0.5576
   62CHL1    O3 6997   4.333   0.568  10.249 -0.1163 -0.0096 -0.2274
   62CHL1   H3' 6998   4.411   0.606  10.289 -1.2447 -0.1039  2.2467
   62CHL1    C4 6999   4.424   0.543  10.030  0.0121  0.1975  0.4396
   62CHL1   H4A 7000   4.522   0.549  10.083 -0.6400 -1.1354  1.8879
   62CHL1   H4B 7001   4.390   0.437  10.029 -1.3247  0.5823  1.9106
   62CHL1    C5 7002   4.438   0.588   9.880 -0.2451 -0.3403  0.8894
   62CHL1    C6 7003   4.419   0.506   9.776  0.6043 -0.0627  0.5531
   62CHL1    H6 7004   4.402   0.399   9.793 -1.2407  0.1002  0.0180
   62CHL1    C7 7005   4.430   0.556   9.633 -0.2861  0.1182 -0.0282
   62CHL1   H7A 7006   4.493   0.488   9.572 -1.3747 -2.7283  1.8146
   62CHL1   H7B 7007   4.326   0.554   9.594 -0.2478  1.2567 -0.2137
   62CHL1    C8 7008   4.492   0.695   9.618  0.0196  0.4398 -0.1262
   62CHL1    H8 7009   4.601   0.673   9.622 -0.2387 -0.7396  2.1966
   62CHL1   C14 7010   4.462   0.746   9.467  1.1813  0.8659 -0.6936
   62CHL1   H14 7011   4.352   0.760   9.472  1.4123  2.5570  3.4392
   62CHL1   C15 7012   4.493   0.662   9.344  0.0682 -1.1768 -0.1436
   62CHL1  H15A 7013   4.594   0.617   9.342  0.3288 -0.7817  1.9373
   62CHL1  H15B 7014   4.426   0.573   9.338  0.9029 -1.7051 -3.1053
   62CHL1   C16 7015   4.483   0.761   9.226  0.4097 -0.2966 -0.1715
   62CHL1  H16A 7016   4.575   0.756   9.164 -0.5358  1.3923 -1.8344
   62CHL1  H16B 7017   4.395   0.745   9.160  0.2350  0.1128 -0.0455
   62CHL1   C17 7018   4.472   0.906   9.297 -0.5539  1.6401 -0.2345
   62CHL1   H17 7019   4.362   0.919   9.287 -1.1866 -2.6524 -1.0448
   62CHL1   C13 7020   4.510   0.883   9.443  0.2490  0.3481  0.1248
   62CHL1   C18 7021   4.668   0.885   9.445  0.0300 -0.7826 -0.8951
   62CHL1  H18A 7022   4.706   0.989   9.442 -0.7410 -0.4576 -0.0515
   62CHL1  H18B 7023   4.705   0.840   9.540 -2.0852 -0.1806  0.2894
   62CHL1  H18C 7024   4.726   0.837   9.364  1.9812 -0.9442  0.5114
   62CHL1   C12 7025   4.453   0.975   9.548 -0.6242  0.1085 -0.7330
   62CHL1  H12A 7026   4.496   1.072   9.517 -0.7177  0.0936 -0.9119
   62CHL1  H12B 7027   4.343   0.969   9.534 -0.5749 -1.8488 -0.6168
   62CHL1   C11 7028   4.491   0.934   9.694 -0.4762 -0.5182  0.5333
   62CHL1  H11A 7029   4.601   0.943   9.700 -0.3481 -0.9698 -0.8486
   62CHL1  H11B 7030   4.445   1.005   9.766  3.3704  1.9997  0.8071
   62CHL1    C9 7031   4.441   0.787   9.724  0.0060 -0.9829 -0.3415
   62CHL1    H9 7032   4.330   0.793   9.714 -0.1061  1.4669  1.3871
   62CHL1   C10 7033   4.466   0.740   9.871 -0.3345  0.7582 -0.2835
   62CHL1   C19 7034   4.614   0.772   9.911 -0.5045 -0.4194 -0.0690
   62CHL1  H19A 7035   4.676   0.737   9.826  0.8380  0.2958  0.5800
   62CHL1  H19B 7036   4.617   0.883   9.918 -4.6076 -0.0011 -2.1494
   62CHL1  H19C 7037   4.633   0.718  10.006 -2.6968 -2.3004 -0.6377
   62CHL1    C1 7038   4.375   0.816   9.961 -0.1242  0.3233  0.0033
   62CHL1   H1A 7039   4.405   0.922   9.966 -1.9999  0.9031 -0.3285
   62CHL1   H1B 7040   4.273   0.818   9.917  0.7026  2.2702 -2.0082
   62CHL1    C2 7041   4.364   0.768  10.106  1.1284 -0.8846  0.2002
   62CHL1   H2A 7042   4.287   0.830  10.158  0.3793 -1.3998 -0.2712
   62CHL1   H2B 7043   4.466   0.784  10.147  1.2088  1.8987 -0.9096
   62CHL1   C20 7044   4.533   1.019   9.213 -0.1914 -0.6799 -0.0037
   62CHL1   H20 7045   4.640   1.013   9.242 -0.3613  0.1718  0.8540
   62CHL1   C21 7046   4.484   1.155   9.268 -0.0475 -0.1004 -0.0442
   62CHL1  H21A 7047   4.538   1.185   9.361 -2.6213 -0.0427  1.5278
   62CHL1  H21B 7048   4.373   1.158   9.277 -0.3114 -4.0409 -0.5915
   62CHL1  H21C 7049   4.511   1.237   9.198 -0.1117  0.8093  0.9629
   62CHL1   C22 7050   4.517   1.012   9.063 -0.1330  0.5535  0.1286
   62CHL1  H22A 7051   4.576   1.097   9.022 -1.3050  0.3791 -2.0578
   62CHL1  H22B 7052   4.573   0.923   9.028 -0.8909  0.8110 -1.8716
   62CHL1   C23 7053   4.367   1.003   9.017  0.5803  0.4556  0.1951
   62CHL1  H23A 7054   4.317   0.910   9.050 -0.0387  0.0953 -1.6359
   62CHL1  H23B 7055   4.313   1.085   9.069 -1.7306 -0.1570 -1.1017
   62CHL1   C24 7056   4.337   1.015   8.865  0.3115 -0.2635  0.2973
   62CHL1  H24A 7057   4.356   1.118   8.828  0.0187 -1.0767 -2.2959
   62CHL1  H24B 7058   4.405   0.941   8.818  2.6662  1.5124  0.7263
   62CHL1   C25 7059   4.200   0.997   8.814  0.7594  0.1338 -0.0221
   62CHL1   H25 7060   4.200   1.002   8.703 -1.4205 -0.0298 -0.0735
   62CHL1   C26 7061   4.139   0.860   8.852 -0.2159  0.6997  0.4344
   62CHL1  H26A 7062   4.187   0.799   8.932 -0.3364  0.1229  0.0711
   62CHL1  H26B 7063   4.029   0.865   8.860 -0.4411  0.2971 -1.8231
   62CHL1  H26C 7064   4.160   0.794   8.765 -0.3378 -1.7195  2.1557
   62CHL1   C27 7065   4.097   1.104   8.860 -0.3864 -0.2270 -0.5538
   62CHL1  H27A 7066   4.125   1.203   8.818  0.2456 -0.5950 -1.0248
   62CHL1  H27B 7067   3.997   1.076   8.820 -0.6256  0.7857 -0.7090
   62CHL1  H27C 7068   4.096   1.105   8.971  0.6931 -0.7884 -0.5246
   63CHL1    C3 7069   5.103   5.731  10.527  0.2673 -0.0890  0.5898
   63CHL1    H3 7070   5.110   5.633  10.474  3.0866  0.7866 -0.8564
   63CHL1    O3 7071   5.134   5.702  10.664 -0.3435 -0.3156 -0.2245
   63CHL1   H3' 7072   5.166   5.789  10.689  0.9996 -1.1716  1.2282
   63CHL1    C4 7073   5.209   5.820  10.470  0.0421  0.0415 -0.1119
   63CHL1   H4A 7074   5.216   5.907  10.538 -0.6491  0.5582 -0.6889
   63CHL1   H4B 7075   5.311   5.777  10.484 -0.3970 -1.0157 -0.0502
   63CHL1    C5 7076   5.174   5.886  10.338 -0.1775  0.9110  0.0970
   63CHL1    C6 7077   5.270   5.887  10.242 -0.7875  0.3137 -0.5319
   63CHL1    H6 7078   5.364   5.831  10.256 -0.4465  0.3569 -2.4513
   63CHL1    C7 7079   5.246   5.941  10.109 -0.6563  0.1879 -0.4867
   63CHL1   H7A 7080   5.334   6.001  10.076  0.2516 -0.7302  0.1885
   63CHL1   H7B 7081   5.234   5.846  10.052  0.7223 -0.1987 -0.1866
   63CHL1    C8 7082   5.117   6.021  10.083  0.0013 -0.0553 -0.3147
   63CHL1    H8 7083   5.132   6.124  10.121 -1.5848 -0.3273  1.2000
   63CHL1   C14 7084   5.075   6.013   9.938  0.3878 -0.4799  0.8218
   63CHL1   H14 7085   5.053   5.906   9.915  2.4975 -1.1419  1.6443
   63CHL1   C15 7086   5.181   6.071   9.842 -0.0937  0.2823  0.8667
   63CHL1  H15A 7087   5.214   6.159   9.901 -0.9390  1.3367 -0.1869
   63CHL1  H15B 7088   5.264   5.998   9.826 -0.3945 -0.1475  1.2199
   63CHL1   C16 7089   5.102   6.114   9.717 -0.5664  0.1998  0.5323
   63CHL1  H16A 7090   5.122   6.221   9.695 -0.2349  0.3403  1.4616
   63CHL1  H16B 7091   5.131   6.047   9.634 -0.5525 -0.3342  0.9621
   63CHL1   C17 7092   4.953   6.094   9.756  0.4528  0.2511 -0.1134
   63CHL1   H17 7093   4.931   5.989   9.727 -2.1652  1.3101 -2.3821
   63CHL1   C13 7094   4.951   6.098   9.905  0.6734 -0.2301  0.4832
   63CHL1   C18 7095   4.962   6.246   9.957  0.2184 -0.3648  0.5060
   63CHL1  H18A 7096   4.884   6.311   9.913  0.5017 -1.2266 -1.3863
   63CHL1  H18B 7097   4.966   6.250  10.068  3.7490  0.2705  0.4899
   63CHL1  H18C 7098   5.052   6.304   9.927 -2.0524  2.1306 -2.0214
   63CHL1   C12 7099   4.834   6.042   9.978  0.1974  0.0624 -0.0405
   63CHL1  H12A 7100   4.745   6.109   9.979 -0.9180 -1.2601  3.3260
   63CHL1  H12B 7101   4.811   5.938   9.949 -0.0588  0.0508  0.1990
   63CHL1   C11 7102   4.859   6.026  10.137 -0.0724  0.2914  0.5707
   63CHL1  H11A 7103   4.850   6.122  10.190 -1.1395 -0.1357  1.1976
   63CHL1  H11B 7104   4.776   5.959  10.171 -0.9795  1.0426 -0.0937
   63CHL1    C9 7105   5.001   5.960  10.166  0.3382  0.0961  0.3856
   63CHL1    H9 7106   4.995   5.859  10.121 -0.8916 -1.5286  3.8982
   63CHL1   C10 7107   5.029   5.939  10.316 -0.2921  0.2971 -0.5269
   63CHL1   C19 7108   5.022   6.073  10.392 -0.7094 -0.3931 -0.1031
   63CHL1  H19A 7109   5.087   6.143  10.335 -0.6638 -0.2804  0.0860
   63CHL1  H19B 7110   4.917   6.108  10.384 -0.1127  2.4118  2.2486
   63CHL1  H19C 7111   5.061   6.076  10.496  1.4331  0.1384 -0.8741
   63CHL1    C1 7112   4.935   5.829  10.375  0.4210 -0.3115 -0.1011
   63CHL1   H1A 7113   4.832   5.870  10.372  0.2432 -0.5204  1.7300
   63CHL1   H1B 7114   4.932   5.743  10.305  1.3425 -0.3176 -0.1436
   63CHL1    C2 7115   4.965   5.785  10.514  0.9358 -0.4575 -0.4448
   63CHL1   H2A 7116   4.886   5.713  10.546  2.5718 -1.6816  1.0424
   63CHL1   H2B 7117   4.969   5.864  10.593  0.1290 -0.3941 -0.4636
   63CHL1   C20 7118   4.852   6.178   9.676 -0.4302  0.6430  0.5680
   63CHL1   H20 7119   4.847   6.284   9.710  1.8452  0.4599  1.6251
   63CHL1   C21 7120   4.712   6.122   9.697  0.4865  0.2212 -0.2689
   63CHL1  H21A 7121   4.646   6.165   9.619 -0.7990  0.6264  0.9973
   63CHL1  H21B 7122   4.664   6.152   9.793 -1.7256 -0.2015 -1.1808
   63CHL1  H21C 7123   4.701   6.013   9.677  1.8972 -0.1991  1.0125
   63CHL1   C22 7124   4.874   6.193   9.520 -0.1085 -0.2600 -0.1183
   63CHL1  H22A 7125   4.807   6.273   9.482 -0.4361 -0.2587  0.4521
   63CHL1  H22B 7126   4.978   6.212   9.486  0.1816  0.1550  0.9729
   63CHL1   C23 7127   4.837   6.069   9.434  0.4744  0.4898  0.0342
   63CHL1  H23A 7128   4.865   5.980   9.494 -1.9159 -0.6618 -0.4352
   63CHL1  H23B 7129   4.731   6.046   9.411  0.7184  1.0355 -1.8194
   63CHL1   C24 7130   4.917   6.055   9.310 -0.2726  0.2041  0.4336
   63CHL1  H24A 7131   4.914   6.151   9.254  0.3510  0.2332  0.4396
   63CHL1  H24B 7132   5.024   6.028   9.322 -0.6938 -2.8497 -1.7612
   63CHL1   C25 7133   4.852   5.950   9.208 -0.8725 -0.7624 -0.7925
   63CHL1   H25 7134   4.837   5.856   9.266 -2.2506 -0.4874 -0.6827
   63CHL1   C26 7135   4.730   5.995   9.150  0.0118 -0.5567  0.4144
   63CHL1  H26A 7136   4.746   6.080   9.081  0.0505 -0.1732  0.8866
   63CHL1  H26B 7137   4.685   5.909   9.095 -1.2173  1.0391 -1.1937
   63CHL1  H26C 7138   4.652   6.037   9.217  0.3295  0.9712 -0.1541
   63CHL1   C27 7139   4.962   5.914   9.101  0.1879  0.1351  0.3315
   63CHL1  H27A 7140   4.917   5.842   9.030 -1.4030  1.2058  0.1884
   63CHL1  H27B 7141   4.991   6.008   9.049 -1.2767  0.4479  0.0448
   63CHL1  H27C 7142   5.046   5.868   9.157 -0.6434 -0.0412  1.4675
   64CHL1    C3 7143   4.844   0.359  10.174  0.0748 -0.5178  0.1898
   64CHL1    H3 7144   4.740   0.391  10.195  0.4746  0.7234  0.3094
   64CHL1    O3 7145   4.906   0.324  10.293 -0.1670  0.7396  0.1973
   64CHL1   H3' 7146   4.968   0.254  10.270 -2.0908 -1.1123  0.2977
   64CHL1    C4 7147   4.829   0.223  10.103  0.0193  0.5748 -0.1091
   64CHL1   H4A 7148   4.928   0.173  10.097  0.7111  2.0087 -1.5864
   64CHL1   H4B 7149   4.749   0.168  10.158 -0.7348  1.2435 -0.5069
   64CHL1    C5 7150   4.784   0.235   9.962 -0.3439  0.3916 -0.1363
   64CHL1    C6 7151   4.683   0.161   9.911  0.2923 -0.5412 -0.4191
   64CHL1    H6 7152   4.624   0.098   9.980 -0.1268 -0.9407 -1.1214
   64CHL1    C7 7153   4.636   0.149   9.769  0.1090 -0.3239 -0.0662
   64CHL1   H7A 7154   4.617   0.041   9.750 -0.4912  0.0972 -2.1870
   64CHL1   H7B 7155   4.538   0.200   9.750  1.1574  1.4242 -1.1099
   64CHL1    C8 7156   4.744   0.219   9.679 -0.8195 -0.0560 -0.7411
   64CHL1    H8 7157   4.828   0.148   9.679 -1.5441 -0.9390  0.0219
   64CHL1   C14 7158   4.682   0.241   9.544  0.4357  0.4465  0.2347
   64CHL1   H14 7159   4.586   0.296   9.539 -1.0079 -1.9877 -3.2148
   64CHL1   C15 7160   4.639   0.114   9.464  0.1185  0.4829  0.0930
   64CHL1  H15A 7161   4.710   0.029   9.458  0.1248  0.5028 -0.0970
   64CHL1  H15B 7162   4.544   0.075   9.507 -1.5222  2.3212 -1.7046
   64CHL1   C16 7163   4.630   0.161   9.317 -0.0359  0.1234  0.3012
   64CHL1  H16A 7164   4.701   0.096   9.262  0.3064  1.1685 -0.5298
   64CHL1  H16B 7165   4.525   0.157   9.280 -0.5152 -0.6167  1.6665
   64CHL1   C17 7166   4.690   0.308   9.312 -0.1895  0.4263 -0.8502
   64CHL1   H17 7167   4.600   0.372   9.325  0.3380  1.2413 -1.1382
   64CHL1   C13 7168   4.775   0.314   9.448  0.0238 -0.1550 -0.1428
   64CHL1   C18 7169   4.909   0.236   9.427  0.1781 -0.5003  0.4225
   64CHL1  H18A 7170   4.983   0.287   9.362  0.9633 -0.8050  1.0577
   64CHL1  H18B 7171   4.970   0.229   9.520  2.0806 -1.5536 -0.8626
   64CHL1  H18C 7172   4.894   0.136   9.382 -1.8882 -0.7390  1.4761
   64CHL1   C12 7173   4.811   0.457   9.500 -0.3433 -0.0024  0.5465
   64CHL1  H12A 7174   4.885   0.495   9.427  0.5543 -1.6821  0.5416
   64CHL1  H12B 7175   4.723   0.523   9.481 -0.8369 -1.0073 -0.8023
   64CHL1   C11 7176   4.867   0.446   9.644  0.4286 -0.3217 -0.7909
   64CHL1  H11A 7177   4.974   0.415   9.641  0.1531 -1.4301  0.2611
   64CHL1  H11B 7178   4.863   0.551   9.680 -0.7120 -0.2961 -0.9806
   64CHL1    C9 7179   4.788   0.350   9.744 -0.5080  0.1847  0.2225
   64CHL1    H9 7180   4.698   0.410   9.769 -2.3286 -1.8851 -1.0588
   64CHL1   C10 7181   4.860   0.337   9.877  0.2267  0.0018  0.0127
   64CHL1   C19 7182   5.001   0.281   9.873  0.2483 -0.1416  0.1417
   64CHL1  H19A 7183   5.048   0.245   9.967  1.0812  0.3429 -0.0735
   64CHL1  H19B 7184   5.010   0.199   9.799 -0.8891  0.4770 -0.7055
   64CHL1  H19C 7185   5.063   0.365   9.835 -0.2566 -0.0119 -0.4060
   64CHL1    C1 7186   4.860   0.476   9.954 -0.3040 -0.3522  0.1515
   64CHL1   H1A 7187   4.919   0.552   9.898 -0.0498 -0.1443  0.7051
   64CHL1   H1B 7188   4.756   0.516   9.956 -0.2983 -0.3594  0.6559
   64CHL1    C2 7189   4.914   0.461  10.093 -0.2633 -0.8516 -0.7857
   64CHL1   H2A 7190   4.912   0.560  10.144  2.3364 -0.4642 -1.3048
   64CHL1   H2B 7191   5.021   0.432  10.096 -0.4949 -1.7019 -0.6141
   64CHL1   C20 7192   4.758   0.324   9.170  0.7485  0.3140 -0.5742
   64CHL1   H20 7193   4.844   0.254   9.158  0.8562  0.1619  0.8983
   64CHL1   C21 7194   4.812   0.468   9.157  0.7608 -0.0111 -0.4208
   64CHL1  H21A 7195   4.857   0.468   9.055  2.7758 -1.0518  0.3967
   64CHL1  H21B 7196   4.891   0.485   9.234 -0.4511 -0.2926  0.9229
   64CHL1  H21C 7197   4.745   0.555   9.170  1.0168  0.4778 -2.1437
   64CHL1   C22 7198   4.668   0.292   9.056  0.2380 -0.6423 -0.3965
   64CHL1  H22A 7199   4.721   0.328   8.965  0.2456 -0.7290 -0.4259
   64CHL1  H22B 7200   4.671   0.181   9.045  0.4484 -0.5292 -1.6173
   64CHL1   C23 7201   4.522   0.349   9.050  0.0529  0.0364 -0.4060
   64CHL1  H23A 7202   4.467   0.294   9.129  2.0519 -2.3348 -0.5472
   64CHL1  H23B 7203   4.517   0.458   9.071 -2.0483  0.4726 -2.6743
   64CHL1   C24 7204   4.461   0.315   8.919 -0.6399  0.2641  0.6424
   64CHL1  H24A 7205   4.536   0.341   8.841 -1.4835 -1.6384 -0.8920
   64CHL1  H24B 7206   4.466   0.206   8.902 -2.9902 -0.1604  2.2335
   64CHL1   C25 7207   4.323   0.365   8.886  0.6131 -0.7942 -0.1480
   64CHL1   H25 7208   4.311   0.323   8.784 -2.1350 -2.5275  0.7748
   64CHL1   C26 7209   4.220   0.299   8.987 -0.4927 -0.6154 -0.5192
   64CHL1  H26A 7210   4.236   0.348   9.085 -0.1669  0.2336 -0.9833
   64CHL1  H26B 7211   4.115   0.320   8.957 -0.1979 -1.2559 -2.1270
   64CHL1  H26C 7212   4.237   0.190   8.981 -0.1081 -0.5425 -0.7946
   64CHL1   C27 7213   4.319   0.519   8.881 -0.3960  1.0284 -0.3301
   64CHL1  H27A 7214   4.216   0.557   8.864 -1.3549 -0.7601  1.1454
   64CHL1  H27B 7215   4.354   0.567   8.975 -0.9346  1.1559 -0.1922
   64CHL1  H27C 7216   4.390   0.549   8.801  1.3174 -0.5677  0.5287
   65CHL1    C3 7217   1.336   2.835  10.345 -0.3623 -0.4605 -0.3511
   65CHL1    H3 7218   1.244   2.773  10.347  0.1733 -1.3601 -1.8321
   65CHL1    O3 7219   1.376   2.850  10.477  0.2532 -0.1298  0.0337
   65CHL1   H3' 7220   1.431   2.777  10.505  0.5280  0.5949  1.5079
   65CHL1    C4 7221   1.448   2.756  10.265  0.6087 -0.5691 -0.1540
   65CHL1   H4A 7222   1.542   2.814  10.271  1.1159 -1.3876 -0.0282
   65CHL1   H4B 7223   1.456   2.656  10.313 -1.2373 -0.8100 -0.2724
   65CHL1    C5 7224   1.385   2.734  10.126  0.0139 -0.1356 -0.0509
   65CHL1    C6 7225   1.354   2.616  10.069 -0.2675 -0.6363 -0.0429
   65CHL1    H6 7226   1.356   2.519  10.121  0.2704 -1.9357 -2.3684
   65CHL1    C7 7227   1.300   2.590   9.925  0.0873 -0.5311 -0.7568
   65CHL1   H7A 7228   1.351   2.501   9.882 -1.8632 -1.8335 -0.5168
   65CHL1   H7B 7229   1.191   2.569   9.927 -0.1471  0.1293  3.7803
   65CHL1    C8 7230   1.322   2.714   9.838  0.1368 -0.4301  0.1933
   65CHL1    H8 7231   1.433   2.715   9.831  0.0535  0.3515 -2.3641
   65CHL1   C14 7232   1.257   2.700   9.702 -0.7868 -0.0042 -0.2350
   65CHL1   H14 7233   1.148   2.715   9.716 -0.6337  1.5343 -0.4222
   65CHL1   C15 7234   1.271   2.575   9.616 -0.0257 -0.6972  0.0156
   65CHL1  H15A 7235   1.380   2.553   9.619 -0.3906 -2.8080  3.4274
   65CHL1  H15B 7236   1.232   2.478   9.653 -1.6283  0.0246  0.2650
   65CHL1   C16 7237   1.226   2.611   9.470  0.2867  0.0207  0.0919
   65CHL1  H16A 7238   1.306   2.582   9.399 -0.5721  0.7887 -1.2065
   65CHL1  H16B 7239   1.129   2.566   9.439  0.5392 -0.3368 -0.1872
   65CHL1   C17 7240   1.207   2.764   9.486  0.2354 -0.5287 -0.1785
   65CHL1   H17 7241   1.100   2.792   9.495  0.2251 -0.5268 -0.3061
   65CHL1   C13 7242   1.281   2.818   9.617 -0.3495  0.0493 -0.2795
   65CHL1   C18 7243   1.434   2.837   9.580 -0.1286  0.4106 -0.3199
   65CHL1  H18A 7244   1.496   2.860   9.670  0.3339 -0.7803 -0.3220
   65CHL1  H18B 7245   1.471   2.738   9.547  3.0468  0.7111  1.8120
   65CHL1  H18C 7246   1.453   2.911   9.499  1.3519 -3.4288 -3.7841
   65CHL1   C12 7247   1.233   2.949   9.688  0.1709  0.1199 -0.3940
   65CHL1  H12A 7248   1.254   3.031   9.616 -2.8428  0.6215 -0.8212
   65CHL1  H12B 7249   1.122   2.939   9.695 -0.1718  3.6467  1.1591
   65CHL1   C11 7250   1.291   2.970   9.826 -0.7774  0.3046  0.4683
   65CHL1  H11A 7251   1.397   2.991   9.800 -0.6775 -1.5259 -0.8278
   65CHL1  H11B 7252   1.236   3.050   9.879 -1.2865 -0.3189  0.8882
   65CHL1    C9 7253   1.279   2.841   9.919 -0.3784 -1.0997  0.3280
   65CHL1    H9 7254   1.173   2.815   9.940  0.1073 -1.6232  2.3622
   65CHL1   C10 7255   1.357   2.865  10.051 -1.2225  0.5179 -1.0650
   65CHL1   C19 7256   1.499   2.928  10.027 -0.2597 -0.0820 -0.0325
   65CHL1  H19A 7257   1.564   2.855   9.974 -2.6801 -2.2905 -0.1472
   65CHL1  H19B 7258   1.492   3.022   9.968 -2.4021 -0.9633 -1.3049
   65CHL1  H19C 7259   1.556   2.954  10.119 -0.7612 -0.0728  0.2775
   65CHL1    C1 7260   1.268   2.960  10.132  0.1530 -0.6499 -0.0520
   65CHL1   H1A 7261   1.279   3.060  10.084  0.2380 -0.5478  0.1784
   65CHL1   H1B 7262   1.164   2.921  10.134  0.4952 -1.6823 -1.4484
   65CHL1    C2 7263   1.309   2.970  10.278 -0.5955  0.5990  0.3862
   65CHL1   H2A 7264   1.228   3.026  10.330 -2.0702  0.1255 -1.2867
   65CHL1   H2B 7265   1.397   3.037  10.279  0.7241 -1.0816  0.6911
   65CHL1   C20 7266   1.243   2.828   9.344 -0.2515  0.2997  0.0372
   65CHL1   H20 7267   1.348   2.796   9.329 -0.7296 -0.8639 -0.9686
   65CHL1   C21 7268   1.235   2.983   9.345  0.3618 -0.0526 -0.1903
   65CHL1  H21A 7269   1.247   3.015   9.239 -0.5963  2.1202  0.3215
   65CHL1  H21B 7270   1.309   3.034   9.410  0.7343 -0.1583 -0.5233
   65CHL1  H21C 7271   1.132   3.016   9.371  1.2425  0.4306  3.0902
   65CHL1   C22 7272   1.157   2.774   9.239  0.5095  0.3919 -0.2705
   65CHL1  H22A 7273   1.149   2.664   9.239 -0.3564  0.4336  0.9506
   65CHL1  H22B 7274   1.052   2.810   9.246  0.6596  0.7536  0.1912
   65CHL1   C23 7275   1.213   2.788   9.092  0.0025 -0.5642 -0.3795
   65CHL1  H23A 7276   1.141   2.737   9.023 -1.1714  0.5061  0.0060
   65CHL1  H23B 7277   1.227   2.897   9.074  1.7673 -1.0391 -2.1837
   65CHL1   C24 7278   1.349   2.730   9.068 -0.1280 -0.4579 -0.7616
   65CHL1  H24A 7279   1.424   2.786   9.128  0.8922 -2.0580 -0.4945
   65CHL1  H24B 7280   1.343   2.624   9.102  0.1484  0.1190  1.2234
   65CHL1   C25 7281   1.388   2.732   8.921 -0.2731  0.5799  0.2887
   65CHL1   H25 7282   1.495   2.702   8.919 -0.7168 -1.1490 -2.1379
   65CHL1   C26 7283   1.307   2.628   8.823 -0.5075 -0.2531  0.1279
   65CHL1  H26A 7284   1.337   2.662   8.722 -3.7593 -2.0493 -1.5983
   65CHL1  H26B 7285   1.345   2.526   8.845  0.0766 -0.9767 -3.6085
   65CHL1  H26C 7286   1.200   2.652   8.844 -0.1705 -0.0426  1.7579
   65CHL1   C27 7287   1.407   2.883   8.872 -0.3810 -0.6056  0.0668
   65CHL1  H27A 7288   1.311   2.936   8.857  0.6475  0.9658 -1.2084
   65CHL1  H27B 7289   1.458   2.940   8.952 -0.2927  0.8133 -0.9699
   65CHL1  H27C 7290   1.483   2.901   8.794  0.7857  0.5586  1.4248
   66CHL1    C3 7291   4.925   3.579  10.683 -0.4147  0.6940 -0.1974
   66CHL1    H3 7292   4.842   3.536  10.623  0.2470 -0.2422 -0.4712
   66CHL1    O3 7293   4.911   3.558  10.824  0.2764 -0.3978  0.1637
   66CHL1   H3' 7294   4.986   3.611  10.853  0.9570 -2.0338  1.5565
   66CHL1    C4 7295   5.061   3.519  10.634 -0.0163  0.2649 -0.3770
   66CHL1   H4A 7296   5.139   3.573  10.692 -0.8378  0.2213  0.7953
   66CHL1   H4B 7297   5.063   3.411  10.661 -0.3078  0.4035  0.2066
   66CHL1    C5 7298   5.070   3.550  10.490 -0.2690 -0.6961  0.9923
   66CHL1    C6 7299   5.085   3.456  10.398  0.3715  0.0282  0.0422
   66CHL1    H6 7300   5.089   3.354  10.440 -1.7009 -0.4512 -0.7958
   66CHL1    C7 7301   5.111   3.480  10.254  0.3825  0.0358  0.5526
   66CHL1   H7A 7302   5.195   3.413  10.225  1.5979  1.2675  1.0826
   66CHL1   H7B 7303   5.024   3.438  10.201  0.7004 -1.5937  1.2699
   66CHL1    C8 7304   5.133   3.625  10.215  0.2583  0.1246 -0.0618
   66CHL1    H8 7305   5.238   3.648  10.245  0.3523 -0.3626 -0.0071
   66CHL1   C14 7306   5.098   3.644  10.064 -0.2320  0.1136 -0.6503
   66CHL1   H14 7307   4.991   3.614  10.062  0.1839 -1.8945  1.4886
   66CHL1   C15 7308   5.162   3.552   9.956 -0.2588  0.4782 -0.3784
   66CHL1  H15A 7309   5.268   3.521   9.969 -0.3993 -0.4467 -1.2759
   66CHL1  H15B 7310   5.098   3.462   9.944 -0.3864  0.8829 -3.6177
   66CHL1   C16 7311   5.151   3.630   9.822 -0.5198 -0.0736  0.1690
   66CHL1  H16A 7312   5.257   3.650   9.795 -0.3391 -0.9939  0.1429
   66CHL1  H16B 7313   5.096   3.586   9.736 -0.7296 -0.4949  0.5149
   66CHL1   C17 7314   5.076   3.752   9.868 -0.0938 -0.8258  0.5805
   66CHL1   H17 7315   4.970   3.720   9.881 -1.1254  1.5063 -1.2922
   66CHL1   C13 7316   5.120   3.783  10.007 -0.2084 -0.3440 -0.0650
   66CHL1   C18 7317   5.268   3.830  10.003  0.1352  0.6333 -0.4019
   66CHL1  H18A 7318   5.337   3.772   9.938  0.0887  1.5905 -1.3266
   66CHL1  H18B 7319   5.267   3.931   9.958 -0.7325  1.1419  0.7085
   66CHL1  H18C 7320   5.306   3.841  10.107 -1.5399 -1.9885  0.6024
   66CHL1   C12 7321   5.034   3.881  10.089  0.3516  0.5680  0.0318
   66CHL1  H12A 7322   5.040   3.987  10.056  0.1344  0.2622 -1.0026
   66CHL1  H12B 7323   4.928   3.858  10.065  0.8071 -1.1997 -0.4181
   66CHL1   C11 7324   5.061   3.868  10.239 -0.3306 -0.3360  1.3861
   66CHL1  H11A 7325   5.160   3.911  10.264  0.5446 -0.4436 -1.5084
   66CHL1  H11B 7326   4.977   3.933  10.274 -0.7113  0.6397 -1.1772
   66CHL1    C9 7327   5.045   3.723  10.295 -0.2870  0.1087 -1.0595
   66CHL1    H9 7328   4.940   3.697  10.270 -1.6841  3.7936  0.3012
   66CHL1   C10 7329   5.057   3.703  10.447  0.1102  0.0774  0.3386
   66CHL1   C19 7330   5.186   3.782  10.491  0.5731  0.1441  0.0303
   66CHL1  H19A 7331   5.278   3.752  10.436  0.0003 -1.5244 -0.0817
   66CHL1  H19B 7332   5.175   3.892  10.483  1.5787  0.2789  0.3505
   66CHL1  H19C 7333   5.196   3.753  10.598  0.6516 -2.7944 -0.7030
   66CHL1    C1 7334   4.936   3.763  10.519  0.3140 -0.3149  0.6709
   66CHL1   H1A 7335   4.943   3.874  10.523 -2.3453 -0.0535 -0.0404
   66CHL1   H1B 7336   4.840   3.753  10.465 -0.3394  1.4059  1.4160
   66CHL1    C2 7337   4.926   3.731  10.667  0.8289  0.2344  0.8133
   66CHL1   H2A 7338   4.825   3.770  10.692 -0.6166 -0.3216 -3.4569
   66CHL1   H2B 7339   5.008   3.787  10.718  3.7404  1.3790 -4.3749
   66CHL1   C20 7340   5.077   3.878   9.775 -0.5091 -0.3100  0.1961
   66CHL1   H20 7341   5.100   3.974   9.826 -1.1555 -0.0087 -0.0657
   66CHL1   C21 7342   4.928   3.901   9.741  0.7127  0.0857 -0.5950
   66CHL1  H21A 7343   4.876   3.816   9.691 -0.0082  1.7251 -2.7559
   66CHL1  H21B 7344   4.936   3.984   9.668 -0.9643  1.2044  0.3995
   66CHL1  H21C 7345   4.868   3.935   9.829 -0.4858  0.3892 -1.5077
   66CHL1   C22 7346   5.162   3.877   9.645 -0.4466  0.1764 -0.1128
   66CHL1  H22A 7347   5.262   3.833   9.663 -0.8772 -0.8970 -0.2066
   66CHL1  H22B 7348   5.105   3.817   9.570 -0.6003  0.7178 -0.4311
   66CHL1   C23 7349   5.185   4.011   9.586 -0.1232 -1.0373  0.8038
   66CHL1  H23A 7350   5.089   4.060   9.558 -0.0717 -1.7737 -0.7912
   66CHL1  H23B 7351   5.222   4.073   9.671 -0.5726  1.8127 -0.9214
   66CHL1   C24 7352   5.279   4.009   9.467  0.1889 -0.2239 -0.0221
   66CHL1  H24A 7353   5.306   4.108   9.425  2.0139  0.1543  1.8320
   66CHL1  H24B 7354   5.371   3.958   9.504 -0.6837 -0.1119  2.4917
   66CHL1   C25 7355   5.230   3.937   9.342 -0.4770  0.0610 -0.0661
   66CHL1   H25 7356   5.205   3.835   9.376  0.1877 -0.3352 -0.7269
   66CHL1   C26 7357   5.100   3.998   9.291 -0.5415  0.6446 -0.2695
   66CHL1  H26A 7358   5.095   4.108   9.275 -0.9561  0.2888 -3.0787
   66CHL1  H26B 7359   5.064   3.936   9.206  0.9310 -0.6120 -0.0122
   66CHL1  H26C 7360   5.023   3.969   9.366  0.2966  0.3448  0.4863
   66CHL1   C27 7361   5.341   3.941   9.231 -0.2748  0.3418 -0.1119
   66CHL1  H27A 7362   5.352   4.042   9.188  0.3375  1.4907  2.5482
   66CHL1  H27B 7363   5.437   3.904   9.272  0.1116  1.0156 -0.3991
   66CHL1  H27C 7364   5.304   3.867   9.157  1.3925 -0.2126 -0.4352
   67CHL1    C3 7365   1.120   1.095  10.326 -0.3533  0.4992 -0.3034
   67CHL1    H3 7366   1.225   1.086  10.290  0.3711  1.4883  1.4240
   67CHL1    O3 7367   1.119   1.082  10.465 -0.4107 -0.4455 -0.5949
   67CHL1   H3' 7368   1.030   1.068  10.498 -0.2735  0.7565  0.3367
   67CHL1    C4 7369   1.053   1.226  10.292  0.4585 -0.3018  0.5211
   67CHL1   H4A 7370   0.957   1.226  10.348  0.0965  0.7402 -0.0729
   67CHL1   H4B 7371   1.095   1.316  10.342 -0.0848  0.5499 -0.4895
   67CHL1    C5 7372   1.051   1.249  10.144 -0.0850 -0.1873 -0.2716
   67CHL1    C6 7373   1.107   1.355  10.084 -1.0877  0.3036 -0.0624
   67CHL1    H6 7374   1.165   1.423  10.149  0.9240  0.2035 -1.6665
   67CHL1    C7 7375   1.095   1.387   9.940 -0.1551 -0.1431 -0.4343
   67CHL1   H7A 7376   1.083   1.495   9.919 -1.1502 -0.2052 -0.2095
   67CHL1   H7B 7377   1.200   1.380   9.902  0.3057 -1.5678  0.9956
   67CHL1    C8 7378   0.999   1.299   9.863  0.0646  0.1349  0.3812
   67CHL1    H8 7379   0.895   1.335   9.879 -0.2026  0.8415 -2.4545
   67CHL1   C14 7380   1.032   1.309   9.717 -0.3989 -0.8088  0.9685
   67CHL1   H14 7381   1.136   1.271   9.709  0.5581  1.9629 -0.9678
   67CHL1   C15 7382   1.033   1.447   9.645 -0.2101 -0.0892 -0.8448
   67CHL1  H15A 7383   0.936   1.488   9.680  0.7788  1.2335  0.4503
   67CHL1  H15B 7384   1.118   1.511   9.677 -1.2084  0.1260  1.5919
   67CHL1   C16 7385   1.026   1.405   9.494  0.3476 -0.1700  0.6378
   67CHL1  H16A 7386   0.937   1.457   9.452  0.7572 -1.0377 -1.4067
   67CHL1  H16B 7387   1.116   1.430   9.434  0.4418 -2.7203 -0.3862
   67CHL1   C17 7388   1.010   1.254   9.485 -0.4349 -0.5593  0.4011
   67CHL1   H17 7389   1.113   1.213   9.483 -0.5366 -0.8452  0.9395
   67CHL1   C13 7390   0.955   1.214   9.622 -0.0029  0.1472 -0.5781
   67CHL1   C18 7391   0.800   1.257   9.630 -0.1501  0.0192 -0.7351
   67CHL1  H18A 7392   0.784   1.357   9.584 -1.0380  0.1044 -0.2667
   67CHL1  H18B 7393   0.732   1.182   9.583 -0.1762 -1.1941  1.1295
   67CHL1  H18C 7394   0.759   1.258   9.733 -1.1230  0.1988 -1.1047
   67CHL1   C12 7395   0.976   1.074   9.672 -0.0359  0.0934  0.3629
   67CHL1  H12A 7396   0.923   1.003   9.604 -0.1601  0.4095  0.1274
   67CHL1  H12B 7397   1.086   1.060   9.670  0.1127  0.8886  1.8034
   67CHL1   C11 7398   0.931   1.059   9.821  0.2795  0.7240 -0.0498
   67CHL1  H11A 7399   0.821   1.075   9.823 -0.0509 -0.7024 -2.5495
   67CHL1  H11B 7400   0.945   0.952   9.847 -3.7106 -0.1897 -0.9743
   67CHL1    C9 7401   1.008   1.159   9.914  0.3404  0.8756  0.5168
   67CHL1    H9 7402   1.116   1.133   9.909  0.7408  2.6822 -0.9036
   67CHL1   C10 7403   0.980   1.142  10.064 -0.3337  0.3713  1.1108
   67CHL1   C19 7404   0.832   1.147  10.088 -0.2559  0.3882  0.6513
   67CHL1  H19A 7405   0.776   1.073  10.026 -2.2574  1.5811  0.9209
   67CHL1  H19B 7406   0.791   1.130  10.190  0.6352  2.0620  1.3222
   67CHL1  H19C 7407   0.791   1.241  10.046  0.6989  0.0323 -1.1420
   67CHL1    C1 7408   1.037   1.000  10.109  0.2234 -0.2481 -0.0050
   67CHL1   H1A 7409   0.981   0.916  10.063  0.5788 -0.8483  0.6239
   67CHL1   H1B 7410   1.146   0.994  10.086  0.3326  1.5808 -0.0888
   67CHL1    C2 7411   1.031   0.983  10.266 -0.7570 -0.4584 -0.7061
   67CHL1   H2A 7412   1.087   0.889  10.290 -0.8196  0.0333  1.6532
   67CHL1   H2B 7413   0.930   0.971  10.310 -1.2173 -0.8035 -1.8152
   67CHL1   C20 7414   0.939   1.211   9.351  0.0957  0.1254 -0.2114
   67CHL1   H20 7415   0.847   1.273   9.360  0.6694  0.9714 -0.0845
   67CHL1   C21 7416   0.896   1.062   9.349 -0.2364 -0.2307  0.1406
   67CHL1  H21A 7417   0.821   1.029   9.425 -1.0315 -2.6010 -1.5526
   67CHL1  H21B 7418   0.983   0.997   9.369 -0.0494  1.0273  4.2067
   67CHL1  H21C 7419   0.842   1.043   9.254 -0.6524  2.9456 -0.3881
   67CHL1   C22 7420   1.017   1.247   9.228 -0.3685 -1.2356 -0.3173
   67CHL1  H22A 7421   1.087   1.332   9.239 -1.3347 -0.2872 -1.2461
   67CHL1  H22B 7422   1.065   1.152   9.195 -0.1794 -0.8208 -1.2726
   67CHL1   C23 7423   0.921   1.304   9.122  0.5215 -0.2721  0.1764
   67CHL1  H23A 7424   0.841   1.235   9.086 -0.2773  0.4263  0.5746
   67CHL1  H23B 7425   0.876   1.397   9.162  0.9766  0.3440 -0.7217
   67CHL1   C24 7426   1.007   1.347   9.000 -0.9864 -0.3550 -0.3461
   67CHL1  H24A 7427   1.075   1.429   9.032 -1.4867  0.2498 -0.8099
   67CHL1  H24B 7428   1.073   1.266   8.962 -0.9254 -0.4110 -0.1237
   67CHL1   C25 7429   0.922   1.375   8.874  0.6220  0.4980  0.3057
   67CHL1   H25 7430   0.978   1.435   8.799  0.5870  2.1918  1.5574
   67CHL1   C26 7431   0.883   1.234   8.809  0.0510 -0.3016  0.5232
   67CHL1  H26A 7432   0.980   1.195   8.770  0.7420  1.7486  0.0284
   67CHL1  H26B 7433   0.832   1.168   8.882  0.3496 -0.4957  0.5603
   67CHL1  H26C 7434   0.817   1.259   8.723  0.3738 -1.7930 -0.1962
   67CHL1   C27 7435   0.800   1.465   8.900 -0.3667  0.0036  0.3886
   67CHL1  H27A 7436   0.756   1.501   8.805 -0.3070  1.2360  0.8089
   67CHL1  H27B 7437   0.725   1.403   8.952 -0.3547 -1.0015 -0.7490
   67CHL1  H27C 7438   0.811   1.562   8.954  0.4164  0.1946 -0.0881
   68CHL1    C3 7439   0.415   1.781  10.368 -0.5365 -0.1278  0.5751
   68CHL1    H3 7440   0.511   1.832  10.391 -0.3903 -1.0104  2.0076
   68CHL1    O3 7441   0.384   1.685  10.473  0.1324 -0.3915  0.1473
   68CHL1   H3' 7442   0.332   1.736  10.536 -0.4887 -2.3952  1.3582
   68CHL1    C4 7443   0.308   1.883  10.352 -0.1500 -0.1162  0.1139
   68CHL1   H4A 7444   0.217   1.819  10.342  1.0172 -1.7575 -0.4044
   68CHL1   H4B 7445   0.297   1.950  10.440 -0.4579 -0.4433  0.3260
   68CHL1    C5 7446   0.307   1.962  10.227 -0.5872  0.0118 -0.2622
   68CHL1    C6 7447   0.282   2.098  10.242  0.2221 -0.3753  0.7938
   68CHL1    H6 7448   0.266   2.143  10.341 -0.8066 -2.8267  1.7987
   68CHL1    C7 7449   0.287   2.193  10.126 -0.7739 -0.5706 -0.0999
   68CHL1   H7A 7450   0.213   2.274  10.145  0.1602 -0.1672  2.0644
   68CHL1   H7B 7451   0.374   2.261  10.135 -2.0178  1.1583 -0.5534
   68CHL1    C8 7452   0.271   2.118   9.992 -0.0445  0.3056 -0.0311
   68CHL1    H8 7453   0.165   2.085   9.989 -0.8136  2.2528  2.3708
   68CHL1   C14 7454   0.294   2.216   9.882  0.2930 -0.3357 -0.3274
   68CHL1   H14 7455   0.404   2.230   9.886  0.4258 -1.4499  0.7237
   68CHL1   C15 7456   0.228   2.348   9.889  0.9782 -0.1925  0.7369
   68CHL1  H15A 7457   0.119   2.340   9.909  0.9311  0.3954  0.7286
   68CHL1  H15B 7458   0.273   2.420   9.960 -0.2375  1.1774  0.1610
   68CHL1   C16 7459   0.241   2.400   9.745  0.1520 -0.1172  0.6649
   68CHL1  H16A 7460   0.143   2.426   9.699 -0.1299 -2.6647 -0.3399
   68CHL1  H16B 7461   0.296   2.496   9.736  0.8469 -0.3784  1.9642
   68CHL1   C17 7462   0.299   2.289   9.653  0.3679  0.3121  0.4834
   68CHL1   H17 7463   0.408   2.301   9.640  0.4158 -0.3974  0.1921
   68CHL1   C13 7464   0.268   2.164   9.740 -0.1273 -0.3539 -0.2370
   68CHL1   C18 7465   0.124   2.119   9.717 -0.6337  0.3098 -0.7772
   68CHL1  H18A 7466   0.116   2.059   9.623 -0.4384  0.2254 -0.7385
   68CHL1  H18B 7467   0.086   2.064   9.805 -0.5191  0.1947 -0.7997
   68CHL1  H18C 7468   0.055   2.206   9.723 -0.7405  0.1274  1.3928
   68CHL1   C12 7469   0.369   2.046   9.714  0.1919 -0.3157 -0.6336
   68CHL1  H12A 7470   0.342   1.994   9.619  1.7286 -0.7460 -0.8586
   68CHL1  H12B 7471   0.473   2.086   9.709  0.6445 -1.0541  1.7180
   68CHL1   C11 7472   0.367   1.940   9.828  0.4453  0.0445  0.8930
   68CHL1  H11A 7473   0.267   1.898   9.805 -0.1172  1.8708 -0.2105
   68CHL1  H11B 7474   0.442   1.862   9.803  0.3935  0.8301 -2.0959
   68CHL1    C9 7475   0.367   1.996   9.976  0.6313 -0.3167 -0.7066
   68CHL1    H9 7476   0.468   2.036  10.000  0.0986  1.2796 -0.9751
   68CHL1   C10 7477   0.337   1.894  10.091 -0.1358  0.1055 -0.4024
   68CHL1   C19 7478   0.216   1.813  10.038  0.2155 -0.1317  0.3354
   68CHL1  H19A 7479   0.154   1.778  10.123  0.8599 -0.5663  0.6293
   68CHL1  H19B 7480   0.145   1.872   9.975  2.2994  3.6354  1.1747
   68CHL1  H19C 7481   0.243   1.725   9.977 -1.6584  0.2764 -1.1694
   68CHL1    C1 7482   0.464   1.802  10.122  0.0263 -0.7682 -0.2835
   68CHL1   H1A 7483   0.481   1.735  10.035 -0.3502 -0.6336 -0.4622
   68CHL1   H1B 7484   0.551   1.868  10.143 -0.5016 -0.0086 -0.4836
   68CHL1    C2 7485   0.438   1.704  10.237  0.2356 -0.6844 -0.3384
   68CHL1   H2A 7486   0.523   1.636  10.253 -0.4259 -1.0292  2.0380
   68CHL1   H2B 7487   0.346   1.645  10.217 -0.9951  0.7779  0.7238
   68CHL1   C20 7488   0.252   2.295   9.505 -0.5654 -0.1460 -0.6437
   68CHL1   H20 7489   0.142   2.287   9.507 -0.7425  0.8246 -3.0267
   68CHL1   C21 7490   0.317   2.184   9.413  0.3123 -0.1947  0.5165
   68CHL1  H21A 7491   0.298   2.198   9.304  1.7814  0.5301  0.3261
   68CHL1  H21B 7492   0.278   2.085   9.444  2.1062 -0.1017  3.5085
   68CHL1  H21C 7493   0.428   2.189   9.426  0.1806 -0.2506  1.7680
   68CHL1   C22 7494   0.280   2.433   9.446 -0.3755 -0.8482  0.0122
   68CHL1  H22A 7495   0.217   2.516   9.487 -0.6499 -0.5105 -1.0692
   68CHL1  H22B 7496   0.382   2.466   9.475 -0.4258  0.1873 -0.9392
   68CHL1   C23 7497   0.266   2.448   9.297 -0.4993 -0.0086  0.2143
   68CHL1  H23A 7498   0.367   2.413   9.266  1.1597  1.2323  3.6787
   68CHL1  H23B 7499   0.179   2.392   9.256 -0.7253  0.5154 -0.0340
   68CHL1   C24 7500   0.250   2.590   9.247 -0.7154  0.3067  0.0110
   68CHL1  H24A 7501   0.178   2.645   9.311 -1.1263 -0.9142  0.6247
   68CHL1  H24B 7502   0.342   2.650   9.263 -1.2117  0.6839  1.6238
   68CHL1   C25 7503   0.203   2.605   9.099  0.0288 -0.3751 -0.1848
   68CHL1   H25 7504   0.251   2.532   9.031  0.2992 -1.1764  0.8335
   68CHL1   C26 7505   0.053   2.580   9.106  0.2225 -0.3412 -0.0996
   68CHL1  H26A 7506   0.010   2.668   9.158  1.4310  0.6310 -0.6983
   68CHL1  H26B 7507   0.007   2.578   9.005 -1.2203 -0.5142  0.5464
   68CHL1  H26C 7508   0.009   2.492   9.157 -0.2014  0.3708  0.7684
   68CHL1   C27 7509   0.235   2.750   9.054 -0.2064 -0.1534  0.3498
   68CHL1  H27A 7510   0.196   2.772   8.952 -1.5415 -1.4576  0.5494
   68CHL1  H27B 7511   0.177   2.819   9.119 -1.4717 -1.1437  0.3120
   68CHL1  H27C 7512   0.344   2.766   9.067 -0.6516  2.5623  1.3475
   69CHL1    C3 7513   1.137   0.395   6.827 -0.1060  0.8404  0.6971
   69CHL1    H3 7514   1.226   0.461   6.826  0.3191  0.3271 -1.5988
   69CHL1    O3 7515   1.076   0.400   6.697 -0.3060 -0.2595 -0.7576
   69CHL1   H3' 7516   1.142   0.391   6.628  0.4116  1.4479 -0.3601
   69CHL1    C4 7517   1.186   0.252   6.864  0.7680  0.0732 -0.0457
   69CHL1   H4A 7518   1.088   0.200   6.853  0.9294 -0.0205 -1.2602
   69CHL1   H4B 7519   1.248   0.228   6.775  1.3675 -0.0519  0.4054
   69CHL1    C5 7520   1.248   0.239   6.998  0.2089  0.4397 -0.2312
   69CHL1    C6 7521   1.363   0.170   7.027 -0.3271 -1.0178  0.5731
   69CHL1    H6 7522   1.408   0.118   6.942 -0.8013  2.1471 -1.7824
   69CHL1    C7 7523   1.414   0.146   7.168  0.2412  0.3081 -0.2335
   69CHL1   H7A 7524   1.441   0.038   7.179  0.5241  0.3908 -0.1129
   69CHL1   H7B 7525   1.509   0.200   7.185  0.3952  0.2463 -0.8606
   69CHL1    C8 7526   1.308   0.185   7.274 -0.5814  0.2294  0.1492
   69CHL1    H8 7527   1.228   0.109   7.266 -1.2688  1.0044 -0.5157
   69CHL1   C14 7528   1.368   0.170   7.412  1.2075 -0.3867  0.2422
   69CHL1   H14 7529   1.456   0.238   7.414  0.9682 -0.0333 -0.8365
   69CHL1   C15 7530   1.437   0.042   7.455 -0.0945 -0.0784 -0.1418
   69CHL1  H15A 7531   1.366  -0.044   7.447  0.9480 -1.1236  1.2576
   69CHL1  H15B 7532   1.533   0.021   7.403  1.1133  3.5964  0.3042
   69CHL1   C16 7533   1.439   0.056   7.611  0.7379 -0.1296  0.1401
   69CHL1  H16A 7534   1.376  -0.017   7.666 -0.0355  1.5485  1.5848
   69CHL1  H16B 7535   1.533   0.070   7.669 -0.6040 -1.2780  2.7496
   69CHL1   C17 7536   1.369   0.193   7.649  0.5910 -0.6986 -0.4386
   69CHL1   H17 7537   1.452   0.268   7.645  1.2369 -1.3211  0.6553
   69CHL1   C13 7538   1.276   0.214   7.528 -0.8722  0.6737  0.0639
   69CHL1   C18 7539   1.157   0.112   7.539  0.4036 -0.2741 -0.2112
   69CHL1  H18A 7540   1.104   0.110   7.442 -0.1993  2.1904  0.0093
   69CHL1  H18B 7541   1.193   0.008   7.557  0.3659 -0.1601  0.5487
   69CHL1  H18C 7542   1.073   0.149   7.601 -0.8269 -1.4800 -1.1027
   69CHL1   C12 7543   1.226   0.360   7.502 -0.2078  0.3287  0.0121
   69CHL1  H12A 7544   1.174   0.414   7.584  0.3745  0.0589  0.5720
   69CHL1  H12B 7545   1.316   0.425   7.495 -0.5345  0.8311  0.3840
   69CHL1   C11 7546   1.155   0.377   7.370 -0.0352  0.7902 -0.9379
   69CHL1  H11A 7547   1.065   0.313   7.385 -1.8701  3.2519 -0.5854
   69CHL1  H11B 7548   1.124   0.484   7.364 -1.3598  0.4040 -1.3013
   69CHL1    C9 7549   1.238   0.320   7.246 -0.3508 -0.0058  0.3706
   69CHL1    H9 7550   1.311   0.399   7.220 -1.6071  0.7092 -1.1975
   69CHL1   C10 7551   1.158   0.311   7.105  0.0619 -0.7875 -0.1082
   69CHL1   C19 7552   1.031   0.230   7.125  0.1901  0.5737 -0.4031
   69CHL1  H19A 7553   0.970   0.208   7.035 -1.9338 -1.6751  1.4403
   69CHL1  H19B 7554   1.049   0.132   7.174  0.5309  2.0787  2.7501
   69CHL1  H19C 7555   0.963   0.279   7.199  1.7060  2.4006 -0.1586
   69CHL1    C1 7556   1.114   0.454   7.065 -0.0278 -0.4798 -0.6098
   69CHL1   H1A 7557   1.052   0.500   7.145  0.1822 -0.0380 -0.6979
   69CHL1   H1B 7558   1.200   0.524   7.055 -0.4219  0.0017 -0.7271
   69CHL1    C2 7559   1.041   0.451   6.930 -0.1337  0.3953  0.8857
   69CHL1   H2A 7560   1.005   0.552   6.903  1.4476  1.1273  1.4586
   69CHL1   H2B 7561   0.943   0.398   6.940 -0.0582  0.2215  0.7215
   69CHL1   C20 7562   1.300   0.199   7.790  0.2157 -0.4071  0.0388
   69CHL1   H20 7563   1.207   0.139   7.794 -0.4242  0.6086  0.7708
   69CHL1   C21 7564   1.280   0.345   7.835 -0.2119 -0.1153 -0.4557
   69CHL1  H21A 7565   1.370   0.399   7.799 -0.8093 -0.4489 -2.6183
   69CHL1  H21B 7566   1.282   0.359   7.945  0.5672 -0.3308 -0.4408
   69CHL1  H21C 7567   1.185   0.397   7.812 -1.1464 -0.2393  2.6593
   69CHL1   C22 7568   1.389   0.131   7.900 -0.6008 -0.2137  0.0245
   69CHL1  H22A 7569   1.422   0.033   7.859  0.3695  0.2111 -0.2543
   69CHL1  H22B 7570   1.472   0.205   7.910 -1.5318  1.0484 -1.2882
   69CHL1   C23 7571   1.309   0.106   8.027  0.5770 -0.1663  0.0931
   69CHL1  H23A 7572   1.283   0.207   8.065  1.2964  0.1337 -0.1925
   69CHL1  H23B 7573   1.212   0.059   7.999 -0.8233  3.8306 -2.6503
   69CHL1   C24 7574   1.383   0.027   8.129  0.4032 -0.2098  0.0666
   69CHL1  H24A 7575   1.403  -0.075   8.090  0.5755 -0.8393  1.6970
   69CHL1  H24B 7576   1.476   0.079   8.160 -0.7778  1.5420  0.8750
   69CHL1   C25 7577   1.323   0.003   8.272  0.3389  0.3467  0.7389
   69CHL1   H25 7578   1.224  -0.046   8.268 -0.3477  1.5188  2.2517
   69CHL1   C26 7579   1.405  -0.084   8.366 -0.2469  0.0363  0.5738
   69CHL1  H26A 7580   1.343  -0.098   8.457 -1.5149  0.2361 -0.2355
   69CHL1  H26B 7581   1.420  -0.187   8.326  1.5662 -0.4055  2.1824
   69CHL1  H26C 7582   1.504  -0.038   8.388 -0.7577  1.3370  0.2452
   69CHL1   C27 7583   1.302   0.130   8.349  0.0307 -0.1415  0.4268
   69CHL1  H27A 7584   1.400   0.175   8.376  0.3855  0.1468 -1.2722
   69CHL1  H27B 7585   1.258   0.204   8.279  0.1474 -1.3836 -0.9907
   69CHL1  H27C 7586   1.242   0.104   8.439  0.1702  0.0426  0.5754
   70CHL1    C3 7587   2.271   6.297   7.042  0.4553 -0.0013 -0.0737
   70CHL1    H3 7588   2.372   6.335   7.014  0.5472 -0.1567  0.0484
   70CHL1    O3 7589   2.216   6.262   6.911 -1.1467  0.0702  0.1358
   70CHL1   H3' 7590   2.221   6.167   6.903 -2.4854  0.0995 -2.2295
   70CHL1    C4 7591   2.281   6.175   7.133 -0.0578  0.7376  0.5616
   70CHL1   H4A 7592   2.177   6.138   7.131 -0.2032  1.1537 -1.9707
   70CHL1   H4B 7593   2.350   6.098   7.091 -0.2652 -0.8144  2.8677
   70CHL1    C5 7594   2.321   6.215   7.269 -0.4267 -1.0150 -0.3296
   70CHL1    C6 7595   2.430   6.167   7.326 -0.0185 -0.7366  0.0993
   70CHL1    H6 7596   2.493   6.092   7.275 -0.0187  0.5831 -1.9581
   70CHL1    C7 7597   2.467   6.198   7.462 -0.2900  0.2451  0.4445
   70CHL1   H7A 7598   2.480   6.101   7.515  0.6691 -0.3489 -0.8301
   70CHL1   H7B 7599   2.563   6.254   7.455 -0.8760  1.0856 -1.9654
   70CHL1    C8 7600   2.364   6.272   7.546 -0.0399  0.3548 -0.2708
   70CHL1    H8 7601   2.268   6.218   7.560  0.5230 -0.1510  1.9389
   70CHL1   C14 7602   2.423   6.334   7.666 -0.0742  0.3810 -0.3465
   70CHL1   H14 7603   2.511   6.394   7.636  0.9679 -1.0165 -0.2171
   70CHL1   C15 7604   2.495   6.232   7.771  0.3129 -0.2978 -0.3095
   70CHL1  H15A 7605   2.424   6.150   7.793  0.2508 -0.0868  0.2808
   70CHL1  H15B 7606   2.596   6.206   7.732  1.1362  1.9066  0.1964
   70CHL1   C16 7607   2.519   6.323   7.893  0.2107 -0.0867 -0.1905
   70CHL1  H16A 7608   2.478   6.267   7.980  1.0564 -1.7939 -0.8472
   70CHL1  H16B 7609   2.627   6.347   7.904  0.4687  1.6482 -4.5185
   70CHL1   C17 7610   2.434   6.451   7.868 -0.6191  0.0969  0.0466
   70CHL1   H17 7611   2.505   6.526   7.827 -1.3901  0.3098 -0.9386
   70CHL1   C13 7612   2.335   6.424   7.751  0.2213 -0.5237  0.4069
   70CHL1   C18 7613   2.206   6.349   7.794  0.0486  0.2523  0.5178
   70CHL1  H18A 7614   2.232   6.254   7.847 -1.6941 -1.0830 -0.9140
   70CHL1  H18B 7615   2.136   6.409   7.856 -1.9960 -2.3874  0.9194
   70CHL1  H18C 7616   2.149   6.322   7.703  1.7476 -0.1118 -0.4846
   70CHL1   C12 7617   2.302   6.546   7.670 -0.7745 -0.1604 -0.4277
   70CHL1  H12A 7618   2.250   6.625   7.727  0.1137  0.1176  0.0097
   70CHL1  H12B 7619   2.398   6.593   7.640 -0.9131  1.0025  0.9019
   70CHL1   C11 7620   2.240   6.505   7.537 -0.1501 -0.2878 -0.4032
   70CHL1  H11A 7621   2.133   6.480   7.554 -0.1634 -0.3944 -0.6375
   70CHL1  H11B 7622   2.228   6.594   7.471  1.8525  0.4647  0.1812
   70CHL1    C9 7623   2.320   6.391   7.456 -0.0930 -0.2630 -0.7996
   70CHL1    H9 7624   2.409   6.449   7.424 -1.4664  0.8248 -2.8888
   70CHL1   C10 7625   2.233   6.334   7.335  0.3361  0.4376 -0.6836
   70CHL1   C19 7626   2.092   6.274   7.374 -0.3563 -0.1767  0.5826
   70CHL1  H19A 7627   2.030   6.350   7.426 -0.6360 -1.6704  2.5592
   70CHL1  H19B 7628   2.029   6.245   7.286 -0.0564  1.9015 -0.3696
   70CHL1  H19C 7629   2.089   6.191   7.448 -1.0626  0.5496  1.3879
   70CHL1    C1 7630   2.221   6.450   7.234 -0.2518 -0.5033  0.0453
   70CHL1   H1A 7631   2.156   6.532   7.270  0.0728 -0.4148  0.4372
   70CHL1   H1B 7632   2.318   6.502   7.223 -1.1950  1.2058 -0.5491
   70CHL1    C2 7633   2.177   6.411   7.089 -0.9917  0.3201 -0.5179
   70CHL1   H2A 7634   2.175   6.498   7.020 -0.0605 -0.6004 -1.7700
   70CHL1   H2B 7635   2.071   6.378   7.102 -1.2275  1.3989  0.4367
   70CHL1   C20 7636   2.368   6.519   7.984 -0.7440  0.1282 -0.2847
   70CHL1   H20 7637   2.285   6.583   7.947 -1.7139 -0.9062  0.0156
   70CHL1   C21 7638   2.486   6.598   8.047  0.0294  1.0845 -0.0805
   70CHL1  H21A 7639   2.468   6.652   8.142  0.2677  0.5446  0.2785
   70CHL1  H21B 7640   2.518   6.682   7.982  2.8730  0.1700  0.0054
   70CHL1  H21C 7641   2.572   6.530   8.066 -1.3607 -0.0749  2.4773
   70CHL1   C22 7642   2.325   6.428   8.108 -0.1525  0.5515  0.6019
   70CHL1  H22A 7643   2.272   6.337   8.072 -0.3323  0.8157  0.1957
   70CHL1  H22B 7644   2.408   6.385   8.169 -0.3755  2.0432  2.0238
   70CHL1   C23 7645   2.243   6.506   8.216 -0.5196  0.1486  0.1349
   70CHL1  H23A 7646   2.297   6.594   8.257  2.8512 -2.4829  1.8887
   70CHL1  H23B 7647   2.153   6.549   8.165 -0.2396  1.4344  0.6771
   70CHL1   C24 7648   2.197   6.424   8.345  0.1737 -0.5458 -0.3968
   70CHL1  H24A 7649   2.156   6.326   8.314 -1.0218 -0.5271  1.0044
   70CHL1  H24B 7650   2.297   6.412   8.391  0.1738  0.5157 -0.0843
   70CHL1   C25 7651   2.097   6.492   8.443 -0.0913  0.1431  0.6337
   70CHL1   H25 7652   2.145   6.579   8.492 -1.2719  0.7374  0.7766
   70CHL1   C26 7653   1.968   6.537   8.369 -0.5930  0.1595  0.2350
   70CHL1  H26A 7654   1.988   6.627   8.307 -0.3232 -0.4560 -0.5933
   70CHL1  H26B 7655   1.926   6.457   8.304  0.0909  1.3578 -1.7689
   70CHL1  H26C 7656   1.893   6.568   8.444  0.9064  0.1873  1.7857
   70CHL1   C27 7657   2.069   6.401   8.555 -0.5171  0.5483  0.1239
   70CHL1  H27A 7658   2.026   6.304   8.523  1.3854 -0.7848  1.4008
   70CHL1  H27B 7659   2.164   6.389   8.613  0.7175 -0.5799 -2.0234
   70CHL1  H27C 7660   1.994   6.461   8.610  0.2477  3.0485 -1.3838
   71CHL1    C3 7661   6.481   1.262   6.901 -0.6279 -0.6262 -0.5871
   71CHL1    H3 7662   6.478   1.373   6.900 -0.1771 -0.5800  0.6022
   71CHL1    O3 7663   6.426   1.219   6.776  0.0383 -0.5645 -1.0668
   71CHL1   H3' 7664   6.469   1.135   6.763  2.6643  0.4918  0.1397
   71CHL1    C4 7665   6.622   1.211   6.925 -0.7397 -0.0828  0.3865
   71CHL1   H4A 7666   6.615   1.100   6.927 -0.5300 -0.0941  1.8189
   71CHL1   H4B 7667   6.682   1.250   6.840 -1.2549 -0.9106 -0.3742
   71CHL1    C5 7668   6.684   1.243   7.066 -0.2558  0.7136  0.2799
   71CHL1    C6 7669   6.803   1.309   7.068 -0.1775  0.2374 -0.0289
   71CHL1    H6 7670   6.852   1.335   6.973  2.4160 -0.8433  0.9416
   71CHL1    C7 7671   6.877   1.343   7.195  1.0576  0.1559 -0.1815
   71CHL1   H7A 7672   6.986   1.322   7.197  0.7053 -1.7900  0.2968
   71CHL1   H7B 7673   6.861   1.452   7.212 -2.7291 -0.4487  1.0193
   71CHL1    C8 7674   6.807   1.268   7.316 -0.7788  0.1864 -0.2759
   71CHL1    H8 7675   6.858   1.170   7.311  1.2586  1.1132  0.8035
   71CHL1   C14 7676   6.846   1.347   7.440  0.3291 -0.5068  0.5123
   71CHL1   H14 7677   6.796   1.444   7.424  1.4426  0.6647  3.4703
   71CHL1   C15 7678   6.997   1.372   7.464 -0.0352 -0.4058 -0.9213
   71CHL1  H15A 7679   7.066   1.291   7.431  0.1446 -0.5888 -0.1178
   71CHL1  H15B 7680   7.014   1.460   7.399 -3.9423  0.5078 -0.9720
   71CHL1   C16 7681   7.003   1.414   7.608  0.8235 -0.2903 -0.5576
   71CHL1  H16A 7682   7.079   1.351   7.659  1.6378  1.8570  1.0313
   71CHL1  H16B 7683   7.035   1.520   7.616 -0.6956  0.1670 -0.1147
   71CHL1   C17 7684   6.856   1.395   7.671 -0.1485 -0.4134  0.0380
   71CHL1   H17 7685   6.802   1.492   7.666 -1.7979 -1.1149  2.6104
   71CHL1   C13 7686   6.792   1.292   7.570 -0.2529 -0.0646  0.2507
   71CHL1   C18 7687   6.841   1.147   7.601  1.0129  0.7439  0.4646
   71CHL1  H18A 7688   6.950   1.124   7.594  0.5114 -1.7725  0.0165
   71CHL1  H18B 7689   6.807   1.113   7.701  0.7872 -0.2440  0.0631
   71CHL1  H18C 7690   6.784   1.075   7.539  1.0532  1.5699 -0.5794
   71CHL1   C12 7691   6.635   1.301   7.564  0.2647  0.7573 -0.2111
   71CHL1  H12A 7692   6.608   1.233   7.648  0.6348  0.6837 -0.1491
   71CHL1  H12B 7693   6.594   1.404   7.575 -2.4962 -0.3325  0.7238
   71CHL1   C11 7694   6.579   1.234   7.436 -0.2669  0.2962  0.5003
   71CHL1  H11A 7695   6.579   1.123   7.446 -0.3961  0.1470 -0.9825
   71CHL1  H11B 7696   6.472   1.262   7.424  0.2945  2.5085  0.1358
   71CHL1    C9 7697   6.648   1.271   7.304 -0.6627  0.3107 -0.1092
   71CHL1    H9 7698   6.629   1.377   7.278 -0.6302 -0.2537 -2.8098
   71CHL1   C10 7699   6.592   1.201   7.185 -0.3826 -0.2142 -0.2022
   71CHL1   C19 7700   6.588   1.052   7.210 -0.2760  0.5933 -0.1111
   71CHL1  H19A 7701   6.688   1.020   7.247  0.6183  3.2418 -0.0204
   71CHL1  H19B 7702   6.505   1.034   7.281 -0.4414  0.0294 -0.4392
   71CHL1  H19C 7703   6.575   0.988   7.119  2.1616 -0.5876  0.2768
   71CHL1    C1 7704   6.450   1.261   7.149 -0.5338 -0.0746 -0.0937
   71CHL1   H1A 7705   6.387   1.235   7.236 -0.2952 -0.8108 -0.1332
   71CHL1   H1B 7706   6.454   1.372   7.144 -2.5868  0.0071 -1.0444
   71CHL1    C2 7707   6.391   1.213   7.017 -0.5485  0.0885 -0.1747
   71CHL1   H2A 7708   6.287   1.250   7.001 -0.0544  0.9816 -1.5841
   71CHL1   H2B 7709   6.387   1.102   7.021 -2.4523  0.1592  2.1712
   71CHL1   C20 7710   6.848   1.360   7.820 -0.0748 -0.1304  0.5257
   71CHL1   H20 7711   6.859   1.250   7.835  0.3555 -0.1375  0.1710
   71CHL1   C21 7712   6.707   1.407   7.874  0.5045  0.2400  0.0497
   71CHL1  H21A 7713   6.712   1.518   7.878  0.1296  0.3409 -1.7321
   71CHL1  H21B 7714   6.694   1.377   7.980 -1.8792  2.6677  0.5227
   71CHL1  H21C 7715   6.632   1.366   7.804  0.0333  1.0991  0.0410
   71CHL1   C22 7716   6.969   1.415   7.902  0.7455  0.2804 -0.2801
   71CHL1  H22A 7717   7.064   1.370   7.866 -0.2834 -3.2210  0.9311
   71CHL1  H22B 7718   6.975   1.526   7.896 -0.8730  0.8089  4.0564
   71CHL1   C23 7719   6.946   1.384   8.058 -0.2023  0.0351  0.3008
   71CHL1  H23A 7720   6.860   1.441   8.097  0.1317  0.1252  0.9122
   71CHL1  H23B 7721   6.909   1.280   8.063 -1.8043  0.6042  0.8597
   71CHL1   C24 7722   7.073   1.403   8.139  0.7526 -0.3617 -0.5057
   71CHL1  H24A 7723   7.155   1.351   8.085  0.9999 -0.2971 -0.1925
   71CHL1  H24B 7724   7.104   1.508   8.153  0.4187 -0.6138  3.0814
   71CHL1   C25 7725   7.076   1.340   8.288 -0.1317 -0.9535  0.0366
   71CHL1   H25 7726   7.056   1.231   8.278  1.6499 -1.3792  0.6219
   71CHL1   C26 7727   7.215   1.357   8.342  0.2168 -0.1816 -0.1285
   71CHL1  H26A 7728   7.301   1.324   8.280  1.5471 -1.4194  2.2241
   71CHL1  H26B 7729   7.240   1.462   8.367  1.1557 -0.5241  0.4287
   71CHL1  H26C 7730   7.228   1.296   8.434  0.4011  0.0703  0.0134
   71CHL1   C27 7731   6.973   1.411   8.368  0.1961 -0.1210 -0.2446
   71CHL1  H27A 7732   6.873   1.391   8.324  0.9055 -2.0501 -1.0756
   71CHL1  H27B 7733   6.975   1.377   8.474  2.3891  0.5312 -0.0256
   71CHL1  H27C 7734   6.990   1.520   8.379 -1.5754 -0.0268  3.0605
   72CHL1    C3 7735   6.257   5.305   7.156 -0.3922 -0.2177  0.5962
   72CHL1    H3 7736   6.153   5.324   7.123  0.2040 -0.0201 -1.3061
   72CHL1    O3 7737   6.328   5.299   7.036 -0.1766  0.0832 -0.2425
   72CHL1   H3' 7738   6.416   5.275   7.065 -0.6378 -0.7440  0.5060
   72CHL1    C4 7739   6.322   5.414   7.236  0.2482 -0.3146 -0.1788
   72CHL1   H4A 7740   6.430   5.394   7.254  0.4256 -0.1095 -0.9661
   72CHL1   H4B 7741   6.314   5.513   7.187 -0.0899  0.5167  1.4902
   72CHL1    C5 7742   6.260   5.427   7.373  0.1259  0.9850  0.2041
   72CHL1    C6 7743   6.211   5.543   7.417 -0.5182 -0.1164 -0.1153
   72CHL1    H6 7744   6.205   5.624   7.343 -1.1553  0.2984  0.3802
   72CHL1    C7 7745   6.171   5.572   7.564 -0.3351 -0.4188 -0.1390
   72CHL1   H7A 7746   6.230   5.657   7.604 -0.4660 -0.7981  0.8832
   72CHL1   H7B 7747   6.061   5.591   7.566 -0.3482 -0.2720 -1.3191
   72CHL1    C8 7748   6.196   5.443   7.654 -0.8568 -0.6707 -0.2455
   72CHL1    H8 7749   6.302   5.435   7.689 -0.1067  1.2258 -1.8978
   72CHL1   C14 7750   6.108   5.460   7.775  0.3318 -0.4750 -0.6188
   72CHL1   H14 7751   6.008   5.434   7.735 -0.7137  2.5298 -0.2200
   72CHL1   C15 7752   6.082   5.596   7.846 -0.4843  0.0875 -0.1884
   72CHL1  H15A 7753   6.183   5.642   7.853  0.8321 -2.7752  0.7450
   72CHL1  H15B 7754   6.018   5.661   7.782 -1.7765 -2.1596 -1.2794
   72CHL1   C16 7755   6.020   5.555   7.980  0.1919  0.0138  0.5331
   72CHL1  H16A 7756   6.100   5.586   8.050 -0.1784  2.7906 -0.1605
   72CHL1  H16B 7757   5.922   5.605   7.999  0.1815  0.2966 -0.2413
   72CHL1   C17 7758   6.014   5.397   7.985 -0.5140 -0.3464  0.7828
   72CHL1   H17 7759   5.919   5.367   7.935 -0.6428 -1.3176  1.5941
   72CHL1   C13 7760   6.114   5.344   7.883  0.0585 -0.9020  0.0312
   72CHL1   C18 7761   6.253   5.327   7.934 -0.3405  0.1652  0.0581
   72CHL1  H18A 7762   6.288   5.428   7.966 -1.1110  1.7394 -3.5182
   72CHL1  H18B 7763   6.264   5.244   8.006 -2.7396 -0.6006 -0.3574
   72CHL1  H18C 7764   6.315   5.281   7.854  0.1077  1.4525 -0.3634
   72CHL1   C12 7765   6.076   5.213   7.807 -0.4379 -0.2090  0.3226
   72CHL1  H12A 7766   6.103   5.126   7.869  1.7375  0.2180  0.0470
   72CHL1  H12B 7767   5.967   5.218   7.784 -0.3170  0.8804 -0.0567
   72CHL1   C11 7768   6.154   5.192   7.672  0.1364  0.0519 -0.1508
   72CHL1  H11A 7769   6.248   5.145   7.710 -0.4418 -1.2524 -0.2824
   72CHL1  H11B 7770   6.097   5.115   7.616 -1.9309  2.7801 -2.0151
   72CHL1    C9 7771   6.164   5.314   7.582 -0.1166  0.4267 -0.5120
   72CHL1    H9 7772   6.064   5.334   7.538  0.1651  1.6518 -0.6411
   72CHL1   C10 7773   6.251   5.293   7.460 -0.1111 -0.1197 -0.2737
   72CHL1   C19 7774   6.383   5.234   7.499 -0.1961 -0.2510  0.0613
   72CHL1  H19A 7775   6.382   5.132   7.542  1.2043 -0.2269  0.2212
   72CHL1  H19B 7776   6.457   5.241   7.417  0.3004 -0.4952  0.4791
   72CHL1  H19C 7777   6.425   5.297   7.581  1.4790 -0.5604 -0.5162
   72CHL1    C1 7778   6.183   5.187   7.364 -0.6967  0.3470 -0.2678
   72CHL1   H1A 7779   6.193   5.093   7.423  2.8488  0.7998  0.0424
   72CHL1   H1B 7780   6.079   5.215   7.336  0.0408  2.3735 -1.1738
   72CHL1    C2 7781   6.263   5.172   7.231  0.0707 -1.2010 -0.3204
   72CHL1   H2A 7782   6.212   5.093   7.172  1.1842 -2.8089  0.7931
   72CHL1   H2B 7783   6.373   5.157   7.242  0.1606  0.9725  4.1563
   72CHL1   C20 7784   6.011   5.337   8.120  0.0289 -0.4686 -0.4937
   72CHL1   H20 7785   6.031   5.228   8.109 -1.3255 -0.6739 -1.1225
   72CHL1   C21 7786   5.865   5.349   8.167 -0.0971  0.4325  0.1065
   72CHL1  H21A 7787   5.863   5.305   8.269 -2.4188  1.4478  0.5679
   72CHL1  H21B 7788   5.804   5.289   8.096 -0.0909  0.1710  0.3192
   72CHL1  H21C 7789   5.826   5.453   8.162 -0.5459  0.2600  0.0421
   72CHL1   C22 7790   6.112   5.390   8.218  0.0390  0.4675 -0.6081
   72CHL1  H22A 7791   6.204   5.423   8.165 -0.9818 -0.7052 -3.3288
   72CHL1  H22B 7792   6.066   5.471   8.278  1.2379 -1.2139  2.8701
   72CHL1   C23 7793   6.147   5.274   8.308 -0.5106  0.4419 -0.4868
   72CHL1  H23A 7794   6.056   5.240   8.361 -1.3922  3.9432  0.5053
   72CHL1  H23B 7795   6.187   5.190   8.247  1.9895  0.7062  0.6440
   72CHL1   C24 7796   6.262   5.302   8.409  0.4712  0.5364  0.0074
   72CHL1  H24A 7797   6.326   5.377   8.356 -1.2278  3.3207  1.6314
   72CHL1  H24B 7798   6.230   5.344   8.507 -0.3336 -1.7208  0.7632
   72CHL1   C25 7799   6.347   5.183   8.445  0.3790  0.0490 -0.2978
   72CHL1   H25 7800   6.414   5.210   8.530 -0.0904  1.3606 -0.3302
   72CHL1   C26 7801   6.257   5.063   8.485 -0.3100  0.4911 -0.0919
   72CHL1  H26A 7802   6.181   5.028   8.412 -1.4550 -1.1093  1.7842
   72CHL1  H26B 7803   6.316   4.976   8.521  1.0855  2.3249  2.3396
   72CHL1  H26C 7804   6.191   5.104   8.564  0.7425  2.1047  0.0038
   72CHL1   C27 7805   6.444   5.147   8.335 -0.1577  1.0945  0.4971
   72CHL1  H27A 7806   6.506   5.232   8.300  1.5800 -0.8479 -1.4531
   72CHL1  H27B 7807   6.513   5.065   8.364  0.3976  1.1499 -0.5981
   72CHL1  H27C 7808   6.402   5.110   8.239 -2.2784  0.0933  1.7344
   73CHL1    C3 7809   1.196   0.998   6.994  0.3941  0.0817  0.6816
   73CHL1    H3 7810   1.182   1.108   7.001  2.2427  0.4786 -1.1194
   73CHL1    O3 7811   1.207   0.978   6.854 -0.0621 -0.0130 -0.1524
   73CHL1   H3' 7812   1.129   1.015   6.812 -1.1947 -3.2121 -1.1294
   73CHL1    C4 7813   1.326   0.957   7.062  0.2435 -0.3144  0.3584
   73CHL1   H4A 7814   1.345   0.853   7.031 -1.7145 -0.8261  0.7659
   73CHL1   H4B 7815   1.412   1.014   7.020 -1.2534  0.0630 -2.3659
   73CHL1    C5 7816   1.322   0.975   7.214 -1.0703  0.0926 -0.0357
   73CHL1    C6 7817   1.416   1.041   7.284 -0.7483 -0.0595 -0.6385
   73CHL1    H6 7818   1.497   1.091   7.229 -0.0366 -0.3797  0.1084
   73CHL1    C7 7819   1.431   1.038   7.430  0.5335 -0.4833 -0.5425
   73CHL1   H7A 7820   1.538   1.034   7.460  0.2732 -2.8973  0.2907
   73CHL1   H7B 7821   1.395   1.132   7.478  1.2336 -1.0227  1.1338
   73CHL1    C8 7822   1.342   0.926   7.489  0.3078  0.4997 -0.2653
   73CHL1    H8 7823   1.386   0.827   7.467 -3.0062 -0.8336 -1.5214
   73CHL1   C14 7824   1.330   0.947   7.634 -0.1935  0.3843 -0.8769
   73CHL1   H14 7825   1.273   1.041   7.654  1.6196  1.1775  0.9954
   73CHL1   C15 7826   1.460   0.951   7.723 -0.5133 -0.1768 -0.0942
   73CHL1  H15A 7827   1.532   0.875   7.685  2.4868  2.2035  0.3578
   73CHL1  H15B 7828   1.518   1.046   7.720 -0.5560  0.0815  3.2331
   73CHL1   C16 7829   1.416   0.928   7.866  0.2211  0.1629 -0.5624
   73CHL1  H16A 7830   1.478   0.848   7.912  0.9927  0.7980 -0.4861
   73CHL1  H16B 7831   1.425   1.022   7.924 -1.1722  0.4053 -0.7124
   73CHL1   C17 7832   1.263   0.882   7.853  0.3093  0.2684 -0.0440
   73CHL1   H17 7833   1.206   0.976   7.867  0.6187  0.5928 -0.9441
   73CHL1   C13 7834   1.246   0.839   7.706  0.2135  0.0036 -0.4784
   73CHL1   C18 7835   1.305   0.697   7.690 -0.9261  0.3066 -0.8066
   73CHL1  H18A 7836   1.313   0.657   7.587 -1.9301 -0.9375 -0.4410
   73CHL1  H18B 7837   1.406   0.690   7.736 -1.9955 -0.9998  1.5698
   73CHL1  H18C 7838   1.237   0.624   7.740 -1.2608 -0.0717 -1.7904
   73CHL1   C12 7839   1.101   0.831   7.650 -0.0957 -0.9094 -0.2450
   73CHL1  H12A 7840   1.043   0.749   7.700 -1.2975  0.6902  1.0969
   73CHL1  H12B 7841   1.060   0.928   7.684  2.0077  0.1816 -0.6633
   73CHL1   C11 7842   1.093   0.817   7.501 -0.0504 -0.1131 -0.0425
   73CHL1  H11A 7843   1.107   0.712   7.467  0.3349 -0.0111 -0.2041
   73CHL1  H11B 7844   0.991   0.845   7.466  0.3686  0.5666 -0.7514
   73CHL1    C9 7845   1.198   0.919   7.428  0.9209  0.1448  1.0103
   73CHL1    H9 7846   1.155   1.021   7.437 -0.8778 -0.2739 -1.5962
   73CHL1   C10 7847   1.206   0.899   7.276 -0.0188  0.5441 -0.7615
   73CHL1   C19 7848   1.231   0.738   7.248  0.2810 -0.3976  0.5860
   73CHL1  H19A 7849   1.139   0.682   7.278  0.1017 -1.9681 -2.5736
   73CHL1  H19B 7850   1.259   0.709   7.145 -0.1516 -2.7653  1.0864
   73CHL1  H19C 7851   1.313   0.703   7.315 -0.2056 -3.4420 -0.2689
   73CHL1    C1 7852   1.073   0.937   7.204  0.7854  0.2619 -0.9787
   73CHL1   H1A 7853   0.995   0.872   7.248  0.5485  1.0102 -0.2645
   73CHL1   H1B 7854   1.044   1.038   7.241  1.1909 -0.4486  1.4213
   73CHL1    C2 7855   1.081   0.917   7.053  0.3703  0.3286  0.1364
   73CHL1   H2A 7856   0.996   0.964   6.999  0.2711  1.8488  1.5244
   73CHL1   H2B 7857   1.088   0.808   7.030  0.1497  0.8785 -3.0381
   73CHL1   C20 7858   1.214   0.784   7.969 -0.4591 -0.5271 -0.3815
   73CHL1   H20 7859   1.237   0.679   7.942  0.8605 -0.1521 -0.8037
   73CHL1   C21 7860   1.062   0.797   7.987  0.3068  0.3132 -0.9673
   73CHL1  H21A 7861   1.040   0.899   8.025  0.8306 -0.3786  1.4322
   73CHL1  H21B 7862   1.044   0.720   8.065  0.5432  1.2876  0.0770
   73CHL1  H21C 7863   1.001   0.781   7.896 -2.6638  2.3996  0.5260
   73CHL1   C22 7864   1.295   0.812   8.105 -0.3994  0.1811 -0.6573
   73CHL1  H22A 7865   1.403   0.806   8.078 -0.6773 -1.0215 -1.6509
   73CHL1  H22B 7866   1.288   0.920   8.129  0.8956 -0.0623  0.9714
   73CHL1   C23 7867   1.279   0.724   8.229 -0.1983 -0.4084 -0.0345
   73CHL1  H23A 7868   1.175   0.734   8.266  0.0795 -0.9105  0.9222
   73CHL1  H23B 7869   1.297   0.616   8.208  1.2937 -0.2920  0.5273
   73CHL1   C24 7870   1.383   0.766   8.345  0.0044  0.2153  0.2829
   73CHL1  H24A 7871   1.382   0.689   8.425  0.9951 -0.8908 -0.7210
   73CHL1  H24B 7872   1.483   0.762   8.298  0.7274 -4.2290  1.6723
   73CHL1   C25 7873   1.373   0.911   8.402 -0.1840  0.2138  1.0258
   73CHL1   H25 7874   1.410   0.984   8.327  0.8873 -0.5835  0.7562
   73CHL1   C26 7875   1.233   0.941   8.445 -0.5424  0.2121  0.3005
   73CHL1  H26A 7876   1.167   0.945   8.356 -1.1352  1.1490  0.7606
   73CHL1  H26B 7877   1.209   0.867   8.524 -0.5028 -0.0718  0.0449
   73CHL1  H26C 7878   1.223   1.034   8.505 -0.1633 -1.0507  2.4336
   73CHL1   C27 7879   1.470   0.929   8.523 -0.1528  0.2279 -0.0382
   73CHL1  H27A 7880   1.574   0.940   8.487 -0.0353 -1.3271 -0.2558
   73CHL1  H27B 7881   1.439   1.024   8.571  0.8093  1.3168 -1.4946
   73CHL1  H27C 7882   1.449   0.850   8.599 -0.6785  2.1034  1.8563
   74CHL1    C3 7883   5.559   6.446   6.962  0.2476 -0.2411 -0.1678
   74CHL1    H3 7884   5.462   6.436   6.909  0.8296 -0.3179 -1.2550
   74CHL1    O3 7885   5.643   6.472   6.851  0.1181 -0.4676  0.2491
   74CHL1   H3' 7886   5.732   6.485   6.886 -0.8151  0.2125  2.5224
   74CHL1    C4 7887   5.547   6.561   7.061 -0.6962  0.0270 -0.9111
   74CHL1   H4A 7888   5.643   6.599   7.102 -1.5649 -2.0407  3.5631
   74CHL1   H4B 7889   5.505   6.649   7.007 -0.4737  0.6738 -0.0550
   74CHL1    C5 7890   5.455   6.532   7.183  0.0786 -0.1679  0.4558
   74CHL1    C6 7891   5.352   6.613   7.218  0.5218 -0.2556 -0.5168
   74CHL1    H6 7892   5.328   6.704   7.161 -0.1595  0.9608  1.6240
   74CHL1    C7 7893   5.264   6.589   7.333 -0.1979  0.1382 -0.6551
   74CHL1   H7A 7894   5.239   6.689   7.374  0.8957  0.2106 -0.1270
   74CHL1   H7B 7895   5.173   6.538   7.294 -0.1754 -1.4793  1.2330
   74CHL1    C8 7896   5.311   6.485   7.440 -0.3273  0.6486  0.2356
   74CHL1    H8 7897   5.391   6.538   7.497 -1.3183 -1.5285  3.9749
   74CHL1   C14 7898   5.197   6.440   7.536  0.3028  0.3227  0.4929
   74CHL1   H14 7899   5.120   6.382   7.481  2.0194 -1.4491 -0.1195
   74CHL1   C15 7900   5.127   6.557   7.600  0.4282 -0.3111 -0.5868
   74CHL1  H15A 7901   5.205   6.630   7.630 -1.7172  1.5818  0.6594
   74CHL1  H15B 7902   5.052   6.603   7.532 -0.2095  0.1634  0.4260
   74CHL1   C16 7903   5.061   6.491   7.720  0.1541  0.5736  0.0469
   74CHL1  H16A 7904   5.067   6.553   7.812  0.9078  1.0998 -0.3443
   74CHL1  H16B 7905   4.952   6.496   7.701 -0.1612 -0.4515  1.4542
   74CHL1   C17 7906   5.117   6.349   7.734 -0.4922 -0.7388 -0.1040
   74CHL1   H17 7907   5.043   6.275   7.695 -3.4585  0.7722  2.2199
   74CHL1   C13 7908   5.250   6.343   7.642  1.1649 -1.4162 -0.2566
   74CHL1   C18 7909   5.358   6.403   7.730 -0.8057  0.3937  0.1288
   74CHL1  H18A 7910   5.436   6.439   7.659 -1.1493 -1.3431 -1.2223
   74CHL1  H18B 7911   5.323   6.495   7.780  1.7279  2.1699 -1.1242
   74CHL1  H18C 7912   5.396   6.330   7.805 -1.4004 -0.7977 -0.6880
   74CHL1   C12 7913   5.290   6.220   7.566  0.1012 -0.0834  0.2367
   74CHL1  H12A 7914   5.333   6.138   7.627 -0.2566 -0.5430 -0.1198
   74CHL1  H12B 7915   5.204   6.182   7.507 -1.5147  2.3016  0.8869
   74CHL1   C11 7916   5.399   6.254   7.459  0.5959  0.1206 -0.3784
   74CHL1  H11A 7917   5.480   6.293   7.523 -0.9022  1.6454  0.6835
   74CHL1  H11B 7918   5.418   6.161   7.401  0.4531  1.4776 -2.7440
   74CHL1    C9 7919   5.360   6.368   7.361 -0.4040  0.4807 -0.4280
   74CHL1    H9 7920   5.273   6.334   7.300  0.7970 -0.2576 -1.7791
   74CHL1   C10 7921   5.488   6.402   7.257  0.9586 -0.1039  0.2315
   74CHL1   C19 7922   5.621   6.415   7.337 -0.4251 -0.4235 -0.3216
   74CHL1  H19A 7923   5.706   6.455   7.278 -1.6755  0.3254 -1.6682
   74CHL1  H19B 7924   5.610   6.484   7.423  1.5995  0.1307 -0.4454
   74CHL1  H19C 7925   5.650   6.315   7.377  0.9678  0.0576 -0.0651
   74CHL1    C1 7926   5.503   6.283   7.160 -0.4701 -0.4553 -0.2765
   74CHL1   H1A 7927   5.532   6.194   7.219 -2.0093  0.5564  2.1670
   74CHL1   H1B 7928   5.396   6.272   7.130 -0.4363 -1.4610 -0.0655
   74CHL1    C2 7929   5.597   6.315   7.037 -0.0353 -0.1090 -0.1431
   74CHL1   H2A 7930   5.598   6.219   6.982  0.0429 -1.1971  1.6889
   74CHL1   H2B 7931   5.697   6.324   7.084 -0.0937  2.2796 -0.3525
   74CHL1   C20 7932   5.132   6.296   7.883  0.7120 -0.1598  0.4066
   74CHL1   H20 7933   5.221   6.345   7.928  3.0720 -1.6729 -2.2787
   74CHL1   C21 7934   5.159   6.140   7.893 -0.0866 -1.1116 -0.7453
   74CHL1  H21A 7935   5.205   6.115   7.991  1.9454 -1.3683 -1.7184
   74CHL1  H21B 7936   5.227   6.109   7.811 -0.5805 -0.2175 -1.5141
   74CHL1  H21C 7937   5.066   6.084   7.869  0.6265 -2.7370  0.1397
   74CHL1   C22 7938   5.005   6.340   7.962 -0.4685 -0.3486  0.3759
   74CHL1  H22A 7939   4.997   6.451   7.966  0.5380 -0.1381 -1.9436
   74CHL1  H22B 7940   4.912   6.300   7.917 -0.6319  0.1526  0.2624
   74CHL1   C23 7941   5.008   6.288   8.111  0.7097  0.1806  0.2048
   74CHL1  H23A 7942   5.006   6.177   8.113 -0.2182  0.1545 -0.9173
   74CHL1  H23B 7943   5.104   6.319   8.158  0.5401  1.2544 -0.1389
   74CHL1   C24 7944   4.895   6.337   8.201  0.3018  0.1630  0.2180
   74CHL1  H24A 7945   4.796   6.297   8.168 -1.0087  2.9099  0.5598
   74CHL1  H24B 7946   4.927   6.293   8.298 -0.7937  0.9778  0.9736
   74CHL1   C25 7947   4.868   6.489   8.234 -0.3060  1.0951 -0.2827
   74CHL1   H25 7948   4.838   6.543   8.141  2.2092  1.4013 -0.9892
   74CHL1   C26 7949   4.754   6.518   8.336  0.0824  0.5264  0.7458
   74CHL1  H26A 7950   4.663   6.473   8.291  0.9332  0.3393 -0.8382
   74CHL1  H26B 7951   4.783   6.472   8.433  2.3195  2.0547  0.8739
   74CHL1  H26C 7952   4.735   6.626   8.350 -0.1151  0.5833  0.0528
   74CHL1   C27 7953   4.998   6.546   8.288 -0.4922  0.2920  0.4151
   74CHL1  H27A 7954   5.045   6.487   8.370  1.0425  0.6790 -0.1451
   74CHL1  H27B 7955   5.084   6.535   8.217  0.6531  0.1072  1.7867
   74CHL1  H27C 7956   4.992   6.653   8.315  3.1820  1.2562 -1.8290
   75CHL1    C3 7957   4.199   0.926   6.956  0.3793  0.1525 -0.1743
   75CHL1    H3 7958   4.158   1.028   6.970 -1.3108 -0.8352  3.1302
   75CHL1    O3 7959   4.201   0.894   6.817 -0.0490  0.1763 -0.0598
   75CHL1   H3' 7960   4.250   0.811   6.814  0.6627  0.5750  0.2326
   75CHL1    C4 7961   4.348   0.927   7.002  0.6321  0.2926 -0.4685
   75CHL1   H4A 7962   4.399   0.835   6.966  1.4907  1.7490 -3.3418
   75CHL1   H4B 7963   4.399   1.007   6.943  2.1581  0.0345  0.4471
   75CHL1    C5 7964   4.354   0.960   7.146 -0.5958  0.3502 -0.6776
   75CHL1    C6 7965   4.431   1.063   7.191  0.6614 -0.2313  0.5656
   75CHL1    H6 7966   4.481   1.125   7.116 -0.8359 -2.0912 -2.1634
   75CHL1    C7 7967   4.462   1.085   7.336  0.1089  0.1480  0.3512
   75CHL1   H7A 7968   4.572   1.095   7.348 -0.1530  0.4100  3.5531
   75CHL1   H7B 7969   4.418   1.184   7.361  0.2414 -0.0975  1.6590
   75CHL1    C8 7970   4.414   0.982   7.437  0.3095 -0.5725 -0.0182
   75CHL1    H8 7971   4.485   0.897   7.424 -0.1567 -0.9653 -0.0031
   75CHL1   C14 7972   4.416   1.027   7.586 -0.1677 -0.7742 -0.2227
   75CHL1   H14 7973   4.360   1.121   7.604 -0.7106 -1.4775  1.9713
   75CHL1   C15 7974   4.549   1.063   7.651 -0.0075 -0.3359 -0.1449
   75CHL1  H15A 7975   4.616   0.980   7.621 -1.5946 -2.2509  1.3194
   75CHL1  H15B 7976   4.589   1.159   7.613  0.2604 -1.1141 -1.9337
   75CHL1   C16 7977   4.524   1.052   7.802  0.5443  0.1517  0.0273
   75CHL1  H16A 7978   4.588   0.970   7.841 -2.3235 -0.9820  2.6975
   75CHL1  H16B 7979   4.524   1.145   7.863 -0.1974 -0.8260  1.5714
   75CHL1   C17 7980   4.380   0.990   7.820 -0.2849 -0.3185 -0.0662
   75CHL1   H17 7981   4.322   1.085   7.832 -1.0841 -0.5688 -1.6499
   75CHL1   C13 7982   4.347   0.933   7.678  0.1373  0.1001 -0.5410
   75CHL1   C18 7983   4.416   0.789   7.681  0.7867 -0.2147  0.1317
   75CHL1  H18A 7984   4.351   0.724   7.744 -1.7273  1.5222 -0.5372
   75CHL1  H18B 7985   4.416   0.748   7.577 -2.1141  1.0146 -0.4463
   75CHL1  H18C 7986   4.517   0.790   7.727 -0.0169  1.5848  1.9797
   75CHL1   C12 7987   4.201   0.930   7.638  0.2222  0.8730 -0.3629
   75CHL1  H12A 7988   4.132   0.875   7.706 -0.6474 -0.2747 -2.1076
   75CHL1  H12B 7989   4.165   1.035   7.649 -0.8086  0.5833 -0.9041
   75CHL1   C11 7990   4.184   0.883   7.493  0.0579  0.2754  0.6832
   75CHL1  H11A 7991   4.211   0.775   7.497  4.1522  1.0293 -1.1988
   75CHL1  H11B 7992   4.074   0.894   7.477  0.0995  1.0863  0.9165
   75CHL1    C9 7993   4.271   0.950   7.387  0.0680  0.2470 -0.2531
   75CHL1    H9 7994   4.226   1.051   7.377 -2.8415 -0.9303 -0.0522
   75CHL1   C10 7995   4.266   0.884   7.246  0.7002  0.7036  0.6369
   75CHL1   C19 7996   4.318   0.743   7.255  0.4230  0.2471  0.1496
   75CHL1  H19A 7997   4.336   0.701   7.154  0.2199  2.0163 -0.6531
   75CHL1  H19B 7998   4.414   0.744   7.311  0.2255 -1.6143  0.5859
   75CHL1  H19C 7999   4.247   0.683   7.316  1.8166 -0.6664  0.9338
   75CHL1    C1 8000   4.125   0.874   7.180  0.9672  0.5142 -0.5385
   75CHL1   H1A 8001   4.057   0.811   7.241 -1.0215  1.3058 -1.8301
   75CHL1   H1B 8002   4.076   0.974   7.188  0.3622  0.1666  0.2384
   75CHL1    C2 8003   4.121   0.827   7.037 -0.6734 -0.2131  0.3152
   75CHL1   H2A 8004   4.016   0.824   7.002 -0.0733 -0.0501 -1.5793
   75CHL1   H2B 8005   4.165   0.727   7.021 -1.0842 -0.3269 -0.1020
   75CHL1   C20 8006   4.376   0.907   7.943  0.1257  0.9192 -0.3399
   75CHL1   H20 8007   4.456   0.830   7.941  1.4508  2.2454 -2.3723
   75CHL1   C21 8008   4.234   0.838   7.963 -0.5610 -0.2903  0.3053
   75CHL1  H21A 8009   4.155   0.915   7.945  0.7046  0.6273 -1.7027
   75CHL1  H21B 8010   4.223   0.778   8.056 -2.1187 -0.8091 -0.1800
   75CHL1  H21C 8011   4.219   0.760   7.886 -1.6530  0.2753 -0.0789
   75CHL1   C22 8012   4.403   0.988   8.069  0.2885  0.0466 -0.1727
   75CHL1  H22A 8013   4.501   1.038   8.052  0.0965  2.2716  3.9301
   75CHL1  H22B 8014   4.325   1.065   8.086  0.1471 -0.0448 -0.4038
   75CHL1   C23 8015   4.424   0.907   8.198  0.8504 -0.2804  0.1149
   75CHL1  H23A 8016   4.323   0.910   8.245  0.0815  0.0967 -1.4854
   75CHL1  H23B 8017   4.471   0.809   8.172 -0.1714 -0.5964 -0.6163
   75CHL1   C24 8018   4.526   0.981   8.285 -0.1913  0.5622 -0.9822
   75CHL1  H24A 8019   4.556   0.901   8.355  1.7002  1.9867 -0.0564
   75CHL1  H24B 8020   4.616   1.012   8.228  0.3340  4.6804  1.6487
   75CHL1   C25 8021   4.477   1.088   8.383 -0.2745 -0.4941 -0.1423
   75CHL1   H25 8022   4.400   1.044   8.450  0.2850 -0.6826  0.3847
   75CHL1   C26 8023   4.598   1.128   8.476  0.7480 -0.2326 -0.0180
   75CHL1  H26A 8024   4.560   1.200   8.551  1.2511 -0.6029  0.6006
   75CHL1  H26B 8025   4.641   1.049   8.542  0.8891  0.4066  0.6684
   75CHL1  H26C 8026   4.669   1.196   8.423 -0.1020  0.7044  0.0132
   75CHL1   C27 8027   4.416   1.215   8.314 -0.3482 -0.0949 -0.3785
   75CHL1  H27A 8028   4.321   1.182   8.267 -0.4310 -2.3992  1.2198
   75CHL1  H27B 8029   4.392   1.300   8.382 -0.8664  1.4012 -2.3691
   75CHL1  H27C 8030   4.492   1.242   8.237  0.2469 -1.2559 -0.2264
   76CHL1    C3 8031   6.760   4.814   7.430 -0.0756 -0.0920 -0.3416
   76CHL1    H3 8032   6.665   4.756   7.431 -0.4514  0.5083  1.3460
   76CHL1    O3 8033   6.778   4.870   7.301  0.2218 -0.3117  0.0492
   76CHL1   H3' 8034   6.811   4.800   7.243 -0.9925  0.3617 -1.5088
   76CHL1    C4 8035   6.764   4.922   7.546  0.3755  0.0875 -0.2030
   76CHL1   H4A 8036   6.853   4.986   7.529  1.0665 -1.0532 -1.0085
   76CHL1   H4B 8037   6.677   4.988   7.527  2.2295  2.6589 -0.3101
   76CHL1    C5 8038   6.755   4.872   7.686  0.7561 -0.6508 -0.3172
   76CHL1    C6 8039   6.654   4.908   7.768  0.5708 -0.4580 -0.1881
   76CHL1    H6 8040   6.576   4.977   7.733  1.5429  2.5599  3.0547
   76CHL1    C7 8041   6.646   4.867   7.912 -0.6085  0.3091  0.4965
   76CHL1   H7A 8042   6.606   4.951   7.972  0.2117  1.2087 -0.1747
   76CHL1   H7B 8043   6.571   4.785   7.911 -0.9033  0.5718 -0.2474
   76CHL1    C8 8044   6.778   4.808   7.964 -0.1908 -0.2992 -0.5548
   76CHL1    H8 8045   6.850   4.890   7.986  0.2492 -1.1268  1.2414
   76CHL1   C14 8046   6.747   4.729   8.090  0.0724 -1.1360  0.3304
   76CHL1   H14 8047   6.680   4.644   8.064 -0.5049 -1.0807  1.5514
   76CHL1   C15 8048   6.666   4.798   8.198 -0.0635 -0.2170 -0.0763
   76CHL1  H15A 8049   6.680   4.906   8.219 -1.6586 -0.4632  2.7514
   76CHL1  H15B 8050   6.557   4.790   8.175  0.0712 -0.1092 -0.7820
   76CHL1   C16 8051   6.698   4.707   8.326  0.3124  0.3661  0.4508
   76CHL1  H16A 8052   6.747   4.776   8.399 -1.5921  3.4984 -1.0298
   76CHL1  H16B 8053   6.604   4.670   8.371  0.6101  0.0813  0.8485
   76CHL1   C17 8054   6.804   4.613   8.277 -0.5690  0.0503  0.8991
   76CHL1   H17 8055   6.753   4.530   8.224 -0.3306  0.5827 -0.2021
   76CHL1   C13 8056   6.874   4.674   8.150 -0.0177 -0.1478  0.8179
   76CHL1   C18 8057   6.971   4.790   8.200 -0.0962 -0.2000 -0.7644
   76CHL1  H18A 8058   7.059   4.756   8.259 -0.5413 -0.7724 -0.4175
   76CHL1  H18B 8059   7.021   4.835   8.111  0.5227  1.5286  0.3832
   76CHL1  H18C 8060   6.921   4.875   8.250 -0.8076 -1.7674  1.3235
   76CHL1   C12 8061   6.947   4.574   8.049  0.0678  0.2705 -0.2371
   76CHL1  H12A 8062   7.043   4.541   8.093  0.4716  1.8056  0.1064
   76CHL1  H12B 8063   6.888   4.481   8.039  1.6693 -0.8207  0.1550
   76CHL1   C11 8064   6.972   4.638   7.916  0.1079 -0.9633  0.0849
   76CHL1  H11A 8065   7.061   4.703   7.928  0.2630 -1.0177 -0.7305
   76CHL1  H11B 8066   7.005   4.571   7.835 -0.7547  1.4717 -2.4465
   76CHL1    C9 8067   6.843   4.717   7.863 -0.5824  0.8477 -0.1489
   76CHL1    H9 8068   6.771   4.636   7.838  0.5664  0.3335 -1.9383
   76CHL1   C10 8069   6.871   4.780   7.722 -0.5204  0.3660 -0.2979
   76CHL1   C19 8070   7.003   4.858   7.728 -0.4247 -0.1133  0.4889
   76CHL1  H19A 8071   7.016   4.907   7.827  0.2686  1.5374 -0.3838
   76CHL1  H19B 8072   7.086   4.788   7.709  0.6635  1.1108  0.5863
   76CHL1  H19C 8073   7.001   4.944   7.658 -2.9615 -0.0252  0.5557
   76CHL1    C1 8074   6.873   4.671   7.614  0.5957  0.6368 -0.6262
   76CHL1   H1A 8075   6.956   4.601   7.638 -0.4885 -0.8158 -1.0094
   76CHL1   H1B 8076   6.786   4.602   7.618  0.5926  0.5242 -2.0785
   76CHL1    C2 8077   6.870   4.715   7.467  0.3550 -0.2204 -0.2610
   76CHL1   H2A 8078   6.862   4.628   7.399  3.2844  0.1054 -1.1587
   76CHL1   H2B 8079   6.966   4.768   7.448  1.2365 -0.1495  3.6401
   76CHL1   C20 8080   6.889   4.543   8.388  0.7104  0.5781  0.3939
   76CHL1   H20 8081   6.982   4.510   8.338 -0.3307 -0.8100 -0.6874
   76CHL1   C21 8082   6.802   4.424   8.440  0.0378  0.1233  0.1478
   76CHL1  H21A 8083   6.845   4.378   8.531 -1.5722 -1.1200  0.3198
   76CHL1  H21B 8084   6.791   4.346   8.361  0.9442  0.2208 -0.0960
   76CHL1  H21C 8085   6.706   4.470   8.470 -0.4020 -0.2563 -0.6548
   76CHL1   C22 8086   6.932   4.638   8.503  0.4188 -0.1387 -0.1972
   76CHL1  H22A 8087   6.978   4.726   8.454  1.4271  0.4332  1.6488
   76CHL1  H22B 8088   6.850   4.667   8.572  0.1588  1.1765 -1.0323
   76CHL1   C23 8089   7.059   4.579   8.564 -0.0734 -0.2847 -0.1033
   76CHL1  H23A 8090   7.025   4.484   8.611 -1.1259 -0.0628 -0.3804
   76CHL1  H23B 8091   7.136   4.552   8.488 -1.8956  3.6058 -3.7224
   76CHL1   C24 8092   7.124   4.680   8.656 -0.1041  0.3673  0.5471
   76CHL1  H24A 8093   7.155   4.765   8.592 -2.6711 -0.3560 -1.8415
   76CHL1  H24B 8094   7.041   4.712   8.723  0.4052 -0.7311  1.7529
   76CHL1   C25 8095   7.245   4.627   8.738  0.3515  0.3362 -0.1611
   76CHL1   H25 8096   7.216   4.532   8.787  1.1318 -1.4149 -2.8561
   76CHL1   C26 8097   7.361   4.593   8.646 -0.0182  0.6450  0.6051
   76CHL1  H26A 8098   7.347   4.501   8.585 -0.5699  1.6590 -0.8594
   76CHL1  H26B 8099   7.363   4.670   8.566 -1.2415 -1.2177 -1.3309
   76CHL1  H26C 8100   7.457   4.582   8.700  1.2158  0.1530 -1.5654
   76CHL1   C27 8101   7.290   4.727   8.852  0.7192  0.5578  0.2456
   76CHL1  H27A 8102   7.217   4.751   8.932 -1.5698 -0.4870 -1.4040
   76CHL1  H27B 8103   7.383   4.691   8.900 -0.5268 -2.7151  0.4341
   76CHL1  H27C 8104   7.323   4.823   8.805  0.7118  1.8356  2.6882
   77CHL1    C3 8105   0.520   1.090   6.838 -0.2777  0.0747 -0.1188
   77CHL1    H3 8106   0.522   0.986   6.801 -0.3927  0.1757 -0.4087
   77CHL1    O3 8107   0.494   1.171   6.726  0.4444  0.6636  0.0853
   77CHL1   H3' 8108   0.475   1.261   6.756  0.9071  0.7591  0.1029
   77CHL1    C4 8109   0.400   1.093   6.938 -0.1836 -0.0327  0.4890
   77CHL1   H4A 8110   0.369   1.199   6.937  0.6362  0.2216  1.0824
   77CHL1   H4B 8111   0.319   1.035   6.888 -0.4388  0.4729  0.3088
   77CHL1    C5 8112   0.425   1.037   7.075  0.3765  0.0995 -0.3623
   77CHL1    C6 8113   0.353   0.943   7.129 -0.2061  0.1436  0.0382
   77CHL1    H6 8114   0.270   0.905   7.069 -0.6730  3.2677 -1.5141
   77CHL1    C7 8115   0.357   0.899   7.267  0.4200  0.7154  0.8594
   77CHL1   H7A 8116   0.252   0.909   7.301 -0.3629  1.6342 -1.5873
   77CHL1   H7B 8117   0.377   0.790   7.277 -0.3442  0.5455  0.5905
   77CHL1    C8 8118   0.452   0.989   7.353 -0.0955  0.6443  0.0271
   77CHL1    H8 8119   0.402   1.084   7.382 -1.4210  0.1581 -0.5889
   77CHL1   C14 8120   0.489   0.922   7.488  0.1022 -0.2185 -0.2506
   77CHL1   H14 8121   0.546   0.835   7.450 -0.7889 -2.2257  2.6673
   77CHL1   C15 8122   0.394   0.847   7.579 -0.0025 -0.0083 -0.2186
   77CHL1  H15A 8123   0.300   0.906   7.573 -0.2341 -0.1007  1.7309
   77CHL1  H15B 8124   0.376   0.742   7.549 -1.6996 -0.8669  3.2737
   77CHL1   C16 8125   0.448   0.846   7.721  0.1654  0.4028  0.6001
   77CHL1  H16A 8126   0.375   0.909   7.777 -1.8927  0.1290 -1.6293
   77CHL1  H16B 8127   0.445   0.744   7.764  4.5608 -0.2971 -0.2845
   77CHL1   C17 8128   0.589   0.904   7.705  1.2559 -0.6262  0.3386
   77CHL1   H17 8129   0.648   0.820   7.662  0.9493 -1.5884  1.7420
   77CHL1   C13 8130   0.583   1.002   7.581  0.2279  0.1503  0.2131
   77CHL1   C18 8131   0.517   1.138   7.636  0.2018  0.3828  0.8693
   77CHL1  H18A 8132   0.598   1.196   7.685  1.3803 -1.1180  0.7485
   77CHL1  H18B 8133   0.471   1.188   7.547 -1.1668 -3.0080 -0.4845
   77CHL1  H18C 8134   0.436   1.115   7.709 -1.2955  1.7466 -0.2622
   77CHL1   C12 8135   0.710   1.031   7.500 -0.7283  0.2255  0.4374
   77CHL1  H12A 8136   0.794   1.079   7.555  0.6941 -0.9233 -0.6195
   77CHL1  H12B 8137   0.752   0.932   7.471 -3.1962 -0.9474  0.6568
   77CHL1   C11 8138   0.686   1.106   7.373  0.0459 -0.1382 -0.7252
   77CHL1  H11A 8139   0.652   1.209   7.398  2.8565  1.5666 -3.1693
   77CHL1  H11B 8140   0.786   1.138   7.336  1.7301 -2.1589  1.7858
   77CHL1    C9 8141   0.582   1.035   7.282  0.7661 -0.1787  0.1819
   77CHL1    H9 8142   0.636   0.942   7.253  0.4877  0.0577 -1.1745
   77CHL1   C10 8143   0.545   1.099   7.143  0.4673  0.0619 -0.8439
   77CHL1   C19 8144   0.529   1.246   7.166 -0.3574 -0.1776  0.0114
   77CHL1  H19A 8145   0.623   1.290   7.204 -0.1040 -1.0291  0.3981
   77CHL1  H19B 8146   0.503   1.299   7.072 -0.4280  2.1449  1.2671
   77CHL1  H19C 8147   0.448   1.273   7.237 -1.1504 -0.5809 -0.7156
   77CHL1    C1 8148   0.666   1.080   7.050  0.0377  0.4474 -0.2327
   77CHL1   H1A 8149   0.754   1.133   7.094  0.6148 -1.3694  0.9380
   77CHL1   H1B 8150   0.698   0.975   7.035 -0.7767  0.4266 -2.0288
   77CHL1    C2 8151   0.651   1.136   6.900 -0.4128  0.0377  0.1608
   77CHL1   H2A 8152   0.732   1.082   6.846  0.8827 -0.2217  2.2440
   77CHL1   H2B 8153   0.668   1.245   6.911  0.2206 -0.2163  2.1735
   77CHL1   C20 8154   0.651   0.958   7.832 -0.3650  0.4322 -0.2763
   77CHL1   H20 8155   0.589   1.034   7.885 -0.2426  0.1335  0.3024
   77CHL1   C21 8156   0.787   1.026   7.808  0.4564  0.4167  0.4825
   77CHL1  H21A 8157   0.831   1.069   7.901 -0.6173  0.2606  1.0808
   77CHL1  H21B 8158   0.783   1.124   7.757  3.5564  2.5566  3.8324
   77CHL1  H21C 8159   0.866   0.966   7.758  0.3197  0.9640 -0.3990
   77CHL1   C22 8160   0.663   0.853   7.946  0.3014 -0.1767 -0.2325
   77CHL1  H22A 8161   0.571   0.793   7.963  0.1189  0.0083 -0.5406
   77CHL1  H22B 8162   0.741   0.786   7.906  0.2264  0.1320 -0.9246
   77CHL1   C23 8163   0.707   0.903   8.080 -0.2368 -0.5444  0.1661
   77CHL1  H23A 8164   0.813   0.931   8.061 -1.0542  0.6628 -3.4335
   77CHL1  H23B 8165   0.668   1.000   8.117 -1.9007  0.0114 -2.7531
   77CHL1   C24 8166   0.703   0.801   8.194 -0.1421 -0.1968 -0.4999
   77CHL1  H24A 8167   0.596   0.771   8.181 -0.8602  2.3407 -1.1476
   77CHL1  H24B 8168   0.779   0.726   8.166  0.8957  0.7385 -0.2454
   77CHL1   C25 8169   0.717   0.865   8.336  0.0029  0.6120 -0.0103
   77CHL1   H25 8170   0.728   0.782   8.410  1.6898 -0.9982 -1.9438
   77CHL1   C26 8171   0.843   0.940   8.348 -0.5306  0.0707 -0.2281
   77CHL1  H26A 8172   0.846   1.023   8.273  0.0162 -0.6422 -1.0174
   77CHL1  H26B 8173   0.851   0.994   8.445  3.8637 -0.1682 -0.2622
   77CHL1  H26C 8174   0.938   0.883   8.344  0.0364  0.6780  2.4619
   77CHL1   C27 8175   0.596   0.952   8.363 -0.4952 -0.1519  0.0561
   77CHL1  H27A 8176   0.501   0.899   8.341 -0.4601 -0.8391  1.4190
   77CHL1  H27B 8177   0.590   0.998   8.464  0.3367  2.7365 -1.1036
   77CHL1  H27C 8178   0.596   1.037   8.292  2.0453 -1.4360 -1.6508
   78CHL1    C3 8179   1.175   2.894   6.673  0.0294 -0.3882  0.1512
   78CHL1    H3 8180   1.268   2.946   6.705 -0.9813  0.2016  2.3746
   78CHL1    O3 8181   1.140   2.940   6.544 -0.4398 -0.6202 -0.1335
   78CHL1   H3' 8182   1.062   2.993   6.562 -0.4441 -0.6502 -0.0612
   78CHL1    C4 8183   1.205   2.749   6.663  0.7701  0.4147  0.3560
   78CHL1   H4A 8184   1.116   2.699   6.621  0.8795  0.5099  0.0122
   78CHL1   H4B 8185   1.289   2.725   6.594  0.0562  1.6833 -0.9873
   78CHL1    C5 8186   1.232   2.701   6.804 -0.1053 -0.5585 -0.6284
   78CHL1    C6 8187   1.341   2.634   6.836 -0.4818 -0.2097 -0.4508
   78CHL1    H6 8188   1.417   2.610   6.759  1.4189  0.9157  0.9723
   78CHL1    C7 8189   1.370   2.579   6.972  0.8940 -0.7472 -0.8305
   78CHL1   H7A 8190   1.404   2.474   6.963  0.5139 -1.2239  2.2214
   78CHL1   H7B 8191   1.431   2.650   7.032 -0.2416 -0.1889 -0.2871
   78CHL1    C8 8192   1.239   2.563   7.062 -0.0217  0.2139  0.5379
   78CHL1    H8 8193   1.172   2.482   7.029  0.6781 -0.9965  1.9598
   78CHL1   C14 8194   1.278   2.543   7.206 -0.2762  0.6564 -0.6047
   78CHL1   H14 8195   1.332   2.632   7.246 -0.7117  1.2022 -1.2100
   78CHL1   C15 8196   1.373   2.420   7.230  0.8856 -0.5878  0.2070
   78CHL1  H15A 8197   1.342   2.332   7.170 -2.3370 -0.0161  0.8338
   78CHL1  H15B 8198   1.478   2.446   7.206  1.6460 -2.5944  1.1493
   78CHL1   C16 8199   1.350   2.386   7.377  0.3953 -0.4384  0.2981
   78CHL1  H16A 8200   1.310   2.284   7.393 -0.6158 -0.2975 -1.1014
   78CHL1  H16B 8201   1.440   2.404   7.439 -0.4714  3.0918  0.7891
   78CHL1   C17 8202   1.237   2.489   7.430  0.0718 -0.5635  0.1127
   78CHL1   H17 8203   1.298   2.579   7.452  1.2823 -1.6192  1.2375
   78CHL1   C13 8204   1.160   2.519   7.301  0.1985  0.2274  0.2759
   78CHL1   C18 8205   1.071   2.390   7.275 -0.2860 -1.1589 -0.1723
   78CHL1  H18A 8206   1.006   2.406   7.186 -1.4558  1.0456  0.9770
   78CHL1  H18B 8207   1.139   2.303   7.272  1.9076  0.4218  0.6172
   78CHL1  H18C 8208   1.003   2.387   7.363 -0.6136 -2.0811 -0.4456
   78CHL1   C12 8209   1.077   2.649   7.302 -0.0017 -0.5569 -0.6990
   78CHL1  H12A 8210   0.985   2.650   7.364  0.2166  1.7544 -0.3286
   78CHL1  H12B 8211   1.142   2.725   7.349  0.5649 -0.8192 -1.0532
   78CHL1   C11 8212   1.043   2.701   7.159 -0.3123  0.0254 -0.3024
   78CHL1  H11A 8213   0.957   2.636   7.131 -0.4730  0.3960 -0.6737
   78CHL1  H11B 8214   1.004   2.805   7.157  0.8470  0.4448 -1.7745
   78CHL1    C9 8215   1.154   2.693   7.053 -0.1842  0.1345 -0.6154
   78CHL1    H9 8216   1.232   2.769   7.077  0.2335 -0.5497  0.2688
   78CHL1   C10 8217   1.119   2.729   6.904  0.7742  0.5927  0.1543
   78CHL1   C19 8218   0.984   2.646   6.878 -0.0627  0.1348  0.3158
   78CHL1  H19A 8219   0.966   2.633   6.769 -0.9295 -0.2809  0.4977
   78CHL1  H19B 8220   0.985   2.545   6.926  0.3920  0.2184  0.4863
   78CHL1  H19C 8221   0.895   2.692   6.925 -2.6365 -1.9022 -2.1924
   78CHL1    C1 8222   1.082   2.882   6.900 -0.5802 -0.7073  0.5962
   78CHL1   H1A 8223   0.997   2.911   6.966 -1.4077  0.0385 -0.7385
   78CHL1   H1B 8224   1.174   2.929   6.940 -1.4396  2.6704 -1.0168
   78CHL1    C2 8225   1.058   2.934   6.760 -0.1577 -0.2881  0.5907
   78CHL1   H2A 8226   1.048   3.044   6.766  0.1707 -0.2424  0.3076
   78CHL1   H2B 8227   0.962   2.895   6.717  0.4357 -0.6543 -0.4396
   78CHL1   C20 8228   1.170   2.441   7.564  0.3039  0.9287  0.3090
   78CHL1   H20 8229   1.115   2.348   7.542  1.3415  0.8668 -2.3339
   78CHL1   C21 8230   1.083   2.555   7.632  0.0848 -0.3061 -0.6114
   78CHL1  H21A 8231   1.026   2.616   7.559 -2.9209  1.4636  2.8248
   78CHL1  H21B 8232   1.149   2.630   7.681 -0.5360 -0.8777  1.1800
   78CHL1  H21C 8233   1.013   2.528   7.715 -1.7647  3.6642 -0.6138
   78CHL1   C22 8234   1.274   2.394   7.673 -0.4867  0.5143 -0.2431
   78CHL1  H22A 8235   1.221   2.351   7.760 -0.0110 -0.8897 -0.6238
   78CHL1  H22B 8236   1.329   2.310   7.625  1.7908  0.1385  2.7318
   78CHL1   C23 8237   1.383   2.490   7.728  0.7459 -0.0637  0.7378
   78CHL1  H23A 8238   1.432   2.523   7.634 -0.5624 -2.0372 -0.7260
   78CHL1  H23B 8239   1.329   2.574   7.776 -0.7105 -0.5783  0.0850
   78CHL1   C24 8240   1.478   2.435   7.832 -0.0957 -1.3938  0.0037
   78CHL1  H24A 8241   1.550   2.358   7.797  2.7787  0.6232  1.0321
   78CHL1  H24B 8242   1.550   2.514   7.864 -0.5302 -0.8371 -0.3604
   78CHL1   C25 8243   1.420   2.392   7.966  0.3794  0.6621  0.8823
   78CHL1   H25 8244   1.323   2.443   7.983  1.4785  2.4604  2.2565
   78CHL1   C26 8245   1.384   2.246   7.959 -0.2462 -0.0468  0.0674
   78CHL1  H26A 8246   1.339   2.213   7.863  2.7638 -0.8691 -1.1695
   78CHL1  H26B 8247   1.482   2.194   7.971  0.8212  1.8448 -0.0223
   78CHL1  H26C 8248   1.321   2.209   8.042  1.9124 -0.4587  1.6200
   78CHL1   C27 8249   1.512   2.429   8.092  0.3284  0.1173 -0.0456
   78CHL1  H27A 8250   1.516   2.539   8.105  0.3481 -0.0183  1.2357
   78CHL1  H27B 8251   1.468   2.387   8.185 -2.3673 -0.8027 -1.6425
   78CHL1  H27C 8252   1.615   2.386   8.093  0.9775  1.6040  0.9116
   79CHL1    C3 8253   5.417   3.267   7.489 -0.1712 -0.0032  0.6621
   79CHL1    H3 8254   5.507   3.322   7.523  1.1619 -1.5247 -0.2777
   79CHL1    O3 8255   5.419   3.229   7.351  0.4140 -0.3664 -0.5087
   79CHL1   H3' 8256   5.354   3.159   7.341 -0.1405  0.3749 -2.6655
   79CHL1    C4 8257   5.395   3.146   7.579  0.7178  0.4971 -0.3043
   79CHL1   H4A 8258   5.303   3.096   7.542  0.8362 -1.5129  1.8514
   79CHL1   H4B 8259   5.476   3.070   7.566  0.1260 -0.8081  2.6632
   79CHL1    C5 8260   5.396   3.200   7.726  0.1579  0.3026  0.9626
   79CHL1    C6 8261   5.479   3.150   7.819 -0.7262  0.5404  0.3175
   79CHL1    H6 8262   5.559   3.080   7.788  0.4623  2.8481 -2.2562
   79CHL1    C7 8263   5.481   3.191   7.965 -0.7035 -0.3708  0.6290
   79CHL1   H7A 8264   5.511   3.106   8.030  1.3762  0.1111  0.3473
   79CHL1   H7B 8265   5.562   3.266   7.973 -2.3669  1.6287 -0.1044
   79CHL1    C8 8266   5.354   3.256   8.011  0.2031 -0.3295 -0.2615
   79CHL1    H8 8267   5.277   3.176   8.015  1.5634 -1.6435  1.8062
   79CHL1   C14 8268   5.378   3.329   8.141  0.3847  0.7107  0.7580
   79CHL1   H14 8269   5.450   3.411   8.117  0.5271  0.4542  0.2835
   79CHL1   C15 8270   5.443   3.251   8.255 -0.4528  0.9460 -0.2320
   79CHL1  H15A 8271   5.401   3.149   8.268 -2.2484  1.4970 -1.3117
   79CHL1  H15B 8272   5.552   3.241   8.236 -0.9854 -3.1379 -2.1632
   79CHL1   C16 8273   5.410   3.329   8.381 -0.5088  0.6816 -0.1560
   79CHL1  H16A 8274   5.373   3.258   8.457 -2.7275  0.7858 -1.0600
   79CHL1  H16B 8275   5.500   3.376   8.424 -0.6552 -0.5832  1.6153
   79CHL1   C17 8276   5.308   3.445   8.339  0.9172 -0.3094 -0.5332
   79CHL1   H17 8277   5.366   3.539   8.340 -0.7358  0.7781  1.4426
   79CHL1   C13 8278   5.256   3.401   8.199 -0.2474  0.0628 -0.6068
   79CHL1   C18 8279   5.139   3.300   8.213 -0.2063 -0.0274 -0.0057
   79CHL1  H18A 8280   5.049   3.351   8.254 -0.8563  0.9237 -2.4484
   79CHL1  H18B 8281   5.107   3.260   8.115 -0.1145  0.4715 -0.2419
   79CHL1  H18C 8282   5.172   3.218   8.281 -0.5243 -1.2405 -1.2804
   79CHL1   C12 8283   5.230   3.510   8.099  0.0377  0.3564  0.6067
   79CHL1  H12A 8284   5.144   3.570   8.137 -0.1443 -0.3486  1.3272
   79CHL1  H12B 8285   5.324   3.569   8.089  1.3531 -1.7571 -0.0926
   79CHL1   C11 8286   5.203   3.457   7.952  0.2082  0.4076  0.8957
   79CHL1  H11A 8287   5.106   3.404   7.954 -0.2346  1.1145 -0.5838
   79CHL1  H11B 8288   5.188   3.542   7.883 -0.7838  0.4568  1.1627
   79CHL1    C9 8289   5.315   3.359   7.905 -0.5022 -0.0794  0.4948
   79CHL1    H9 8290   5.406   3.422   7.901  0.6306 -1.6603  0.6131
   79CHL1   C10 8291   5.296   3.307   7.758 -0.3408  0.8417 -0.5220
   79CHL1   C19 8292   5.152   3.230   7.756 -0.1229 -0.4015 -0.1466
   79CHL1  H19A 8293   5.127   3.182   7.659 -0.8651 -1.7788  0.6999
   79CHL1  H19B 8294   5.134   3.156   7.836  0.2654  1.9323  2.2313
   79CHL1  H19C 8295   5.075   3.309   7.774  0.6858  0.5571 -0.7775
   79CHL1    C1 8296   5.299   3.423   7.652 -0.3445 -0.1535  0.1756
   79CHL1   H1A 8297   5.209   3.487   7.668 -1.3015 -0.8291 -1.9900
   79CHL1   H1B 8298   5.384   3.490   7.675 -0.5097  0.3890 -0.7306
   79CHL1    C2 8299   5.309   3.376   7.500  0.6651 -0.1472  0.0734
   79CHL1   H2A 8300   5.338   3.467   7.445  0.2509 -1.4251 -2.3926
   79CHL1   H2B 8301   5.209   3.345   7.463  0.2902  0.3236  0.6746
   79CHL1   C20 8302   5.212   3.479   8.454 -0.4670 -0.6176 -0.1720
   79CHL1   H20 8303   5.141   3.394   8.468  1.4266 -2.0114  1.5643
   79CHL1   C21 8304   5.128   3.603   8.420  0.2920 -0.1266 -0.3127
   79CHL1  H21A 8305   5.043   3.569   8.357 -2.4809  2.0710  1.9549
   79CHL1  H21B 8306   5.184   3.690   8.380 -0.8220 -0.1953 -2.1452
   79CHL1  H21C 8307   5.077   3.630   8.515 -1.6701  0.6907 -1.5293
   79CHL1   C22 8308   5.280   3.504   8.596 -0.2042 -0.1677  0.5849
   79CHL1  H22A 8309   5.205   3.552   8.662 -0.2400  1.9807 -0.8893
   79CHL1  H22B 8310   5.293   3.399   8.630 -1.4264  0.3023  2.6015
   79CHL1   C23 8311   5.409   3.595   8.606  0.3373  0.5336 -0.2937
   79CHL1  H23A 8312   5.488   3.564   8.534 -0.3316 -3.2300  0.3706
   79CHL1  H23B 8313   5.381   3.699   8.576  0.8657  1.5074  2.2973
   79CHL1   C24 8314   5.465   3.594   8.745  0.0854  0.0858 -0.5262
   79CHL1  H24A 8315   5.476   3.487   8.771  2.7433  1.1526  3.7502
   79CHL1  H24B 8316   5.570   3.630   8.746  0.1029  0.2253 -2.6946
   79CHL1   C25 8317   5.387   3.681   8.854 -0.3916  0.6037 -0.1572
   79CHL1   H25 8318   5.285   3.639   8.869 -0.4484 -0.0812 -2.1635
   79CHL1   C26 8319   5.442   3.664   8.990  0.4417 -0.3575 -0.4723
   79CHL1  H26A 8320   5.474   3.559   9.008 -0.8844 -0.4941  1.3968
   79CHL1  H26B 8321   5.525   3.736   9.010 -0.6307  1.7065 -2.8379
   79CHL1  H26C 8322   5.360   3.692   9.061  0.9410 -1.9676  0.7876
   79CHL1   C27 8323   5.361   3.824   8.817 -0.2276  0.2544 -0.2456
   79CHL1  H27A 8324   5.278   3.828   8.743  0.4129  0.3804 -0.9696
   79CHL1  H27B 8325   5.330   3.880   8.907  0.3027 -0.0013  0.0986
   79CHL1  H27C 8326   5.448   3.886   8.786  0.8349  0.9236  3.6132
   80CHL1    C3 8327   4.433   3.441   7.085  0.8335 -0.2810  0.5286
   80CHL1    H3 8328   4.466   3.335   7.098 -0.2910 -0.3233  4.1344
   80CHL1    O3 8329   4.452   3.473   6.948 -1.1070  0.2648 -0.3865
   80CHL1   H3' 8330   4.534   3.523   6.945 -0.3196 -0.9573 -0.0814
   80CHL1    C4 8331   4.280   3.451   7.105 -0.3658 -0.2698  0.3660
   80CHL1   H4A 8332   4.246   3.549   7.065  1.1525  0.0042 -0.3415
   80CHL1   H4B 8333   4.231   3.377   7.038  0.7179  0.5390 -1.3898
   80CHL1    C5 8334   4.231   3.426   7.246  0.3954 -0.0031 -0.5975
   80CHL1    C6 8335   4.137   3.332   7.271 -0.3143  0.7590  0.4078
   80CHL1    H6 8336   4.084   3.273   7.194 -1.1675 -0.0235  1.5567
   80CHL1    C7 8337   4.088   3.304   7.411 -0.3301 -0.2798  0.2662
   80CHL1   H7A 8338   3.977   3.294   7.413 -0.2369 -2.3306 -1.3619
   80CHL1   H7B 8339   4.137   3.212   7.448  0.1949  0.0723  0.4523
   80CHL1    C8 8340   4.136   3.416   7.511 -0.4461 -0.0519 -0.6253
   80CHL1    H8 8341   4.074   3.507   7.496  0.3205  0.6047  0.0354
   80CHL1   C14 8342   4.108   3.357   7.647  0.3885 -0.5193 -0.3243
   80CHL1   H14 8343   4.177   3.272   7.660 -0.4614 -1.0803  0.6582
   80CHL1   C15 8344   3.974   3.295   7.683 -0.5531  0.8563 -0.0600
   80CHL1  H15A 8345   3.893   3.362   7.646 -1.0331  0.2660 -0.0944
   80CHL1  H15B 8346   3.979   3.195   7.634  0.3820  0.1160  1.4668
   80CHL1   C16 8347   3.983   3.285   7.836 -0.3190 -0.0856  0.2307
   80CHL1  H16A 8348   3.890   3.325   7.884  0.4476 -0.6538  2.2853
   80CHL1  H16B 8349   4.011   3.183   7.870 -1.6348 -0.5247  0.0550
   80CHL1   C17 8350   4.107   3.375   7.880 -0.2827 -0.3755  0.4046
   80CHL1   H17 8351   4.192   3.306   7.900 -2.4952 -3.2281  0.5754
   80CHL1   C13 8352   4.155   3.449   7.755  0.6158  0.4890 -0.0769
   80CHL1   C18 8353   4.079   3.587   7.741  0.6182  0.7865  0.2930
   80CHL1  H18A 8354   3.970   3.577   7.724  0.7315  2.3514 -1.7882
   80CHL1  H18B 8355   4.097   3.641   7.836 -1.7012 -1.2242  2.0061
   80CHL1  H18C 8356   4.119   3.644   7.654  3.3357  2.5641  2.5349
   80CHL1   C12 8357   4.313   3.454   7.741  0.4063 -0.0586 -0.2281
   80CHL1  H12A 8358   4.354   3.521   7.820  0.1611 -0.0807 -0.0814
   80CHL1  H12B 8359   4.363   3.355   7.745 -1.1006 -0.8909 -1.2987
   80CHL1   C11 8360   4.352   3.523   7.609  0.6026  0.3330  0.4773
   80CHL1  H11A 8361   4.323   3.630   7.604 -0.9273 -0.0201  1.2602
   80CHL1  H11B 8362   4.462   3.535   7.594  0.1358  4.5379 -1.1357
   80CHL1    C9 8363   4.282   3.448   7.488  0.2049 -0.3493 -0.6016
   80CHL1    H9 8364   4.322   3.345   7.484  0.0916 -0.3588 -2.2539
   80CHL1   C10 8365   4.312   3.503   7.353  0.3202  0.5161  0.2477
   80CHL1   C19 8366   4.266   3.647   7.350 -0.2448  0.7631  0.4711
   80CHL1  H19A 8367   4.335   3.709   7.411  0.9591 -0.4057  0.3215
   80CHL1  H19B 8368   4.266   3.685   7.245 -1.0740  2.1549  0.9393
   80CHL1  H19C 8369   4.164   3.657   7.394 -0.8212 -0.3087 -0.5790
   80CHL1    C1 8370   4.465   3.492   7.322  0.2215  0.1274  0.1447
   80CHL1   H1A 8371   4.512   3.562   7.395 -2.8882  0.3196  2.1472
   80CHL1   H1B 8372   4.515   3.394   7.340  1.5335  0.9939  1.5219
   80CHL1    C2 8373   4.505   3.531   7.180 -0.2783 -0.6244  0.1639
   80CHL1   H2A 8374   4.615   3.521   7.164 -0.0763  0.6342  0.6331
   80CHL1   H2B 8375   4.476   3.635   7.152 -0.3615 -0.6266  0.2437
   80CHL1   C20 8376   4.081   3.446   8.009 -0.1736  0.0031 -0.2701
   80CHL1   H20 8377   4.021   3.537   7.988  0.8736  0.2803 -2.3765
   80CHL1   C21 8378   4.210   3.510   8.056 -0.1331  0.2183 -0.7793
   80CHL1  H21A 8379   4.192   3.555   8.156  1.2212  0.7824 -0.7738
   80CHL1  H21B 8380   4.233   3.588   7.981 -0.6267 -0.8245 -2.0571
   80CHL1  H21C 8381   4.300   3.446   8.066 -0.0782  0.3501 -0.4034
   80CHL1   C22 8382   4.020   3.356   8.119 -0.1548  0.0830 -0.0198
   80CHL1  H22A 8383   3.912   3.337   8.096  0.2636 -1.2315 -1.0827
   80CHL1  H22B 8384   4.066   3.255   8.112  0.7980  0.4569  0.6430
   80CHL1   C23 8385   4.027   3.385   8.264 -0.1858 -0.2608  0.5937
   80CHL1  H23A 8386   4.134   3.395   8.294  0.7371 -0.6012 -2.3181
   80CHL1  H23B 8387   3.985   3.485   8.287  0.6658  0.0576  0.8216
   80CHL1   C24 8388   3.961   3.275   8.349 -0.3027  0.1437  0.0511
   80CHL1  H24A 8389   3.857   3.293   8.313 -1.2308 -0.1951  2.3812
   80CHL1  H24B 8390   3.994   3.173   8.320 -1.7237 -0.4920  0.5746
   80CHL1   C25 8391   3.952   3.293   8.501 -0.9216 -0.1055  0.2774
   80CHL1   H25 8392   3.888   3.383   8.514 -1.4786 -0.6629  1.5205
   80CHL1   C26 8393   3.875   3.180   8.565  0.7019 -0.1206 -0.2216
   80CHL1  H26A 8394   3.774   3.171   8.518  0.5650  2.0586 -0.4273
   80CHL1  H26B 8395   3.917   3.079   8.544 -1.9187 -1.2982 -0.2402
   80CHL1  H26C 8396   3.864   3.181   8.675 -2.6493 -2.7417 -0.3725
   80CHL1   C27 8397   4.084   3.312   8.569  0.2023  0.0168 -0.2142
   80CHL1  H27A 8398   4.144   3.396   8.527 -1.2550  2.1814  1.8265
   80CHL1  H27B 8399   4.069   3.325   8.678  0.2138 -0.9161 -0.0909
   80CHL1  H27C 8400   4.148   3.223   8.547  1.4571  1.0568 -0.9067
   81CHL1    C3 8401   4.109   2.044   7.037  0.1788  0.1688  1.0256
   81CHL1    H3 8402   4.080   2.148   7.062  0.3495  0.8567 -1.4197
   81CHL1    O3 8403   4.115   2.033   6.898  0.6977  0.0117  0.2089
   81CHL1   H3' 8404   4.155   1.948   6.880 -0.0151 -0.5610  1.2592
   81CHL1    C4 8405   4.242   2.020   7.108  0.2258 -0.3395  0.5260
   81CHL1   H4A 8406   4.281   1.923   7.070  0.5684 -0.3376  0.8641
   81CHL1   H4B 8407   4.312   2.097   7.068 -0.3242 -0.8709 -1.6163
   81CHL1    C5 8408   4.226   2.014   7.258  0.3084  0.1493 -0.1116
   81CHL1    C6 8409   4.310   2.084   7.331 -0.5650 -0.3150 -0.0362
   81CHL1    H6 8410   4.381   2.154   7.284 -1.8219 -0.3229 -2.0146
   81CHL1    C7 8411   4.311   2.077   7.479  0.2262 -0.2160  0.5790
   81CHL1   H7A 8412   4.413   2.076   7.521  0.6555  2.0850 -0.2402
   81CHL1   H7B 8413   4.262   2.167   7.522 -1.8893 -0.3394 -1.3705
   81CHL1    C8 8414   4.231   1.957   7.534 -0.5289 -0.2402 -0.0917
   81CHL1    H8 8415   4.284   1.861   7.515  2.4970  1.3541 -0.1712
   81CHL1   C14 8416   4.195   1.987   7.675  0.1193  0.1740  0.0955
   81CHL1   H14 8417   4.138   2.083   7.674 -0.6958 -0.2862 -2.0320
   81CHL1   C15 8418   4.307   2.023   7.778 -0.3920 -0.3353  0.2633
   81CHL1  H15A 8419   4.402   1.966   7.767  0.0376 -0.1506  2.5106
   81CHL1  H15B 8420   4.336   2.130   7.772 -0.7169 -0.3275 -3.7635
   81CHL1   C16 8421   4.247   1.999   7.915 -0.5086 -0.1754  0.2812
   81CHL1  H16A 8422   4.302   1.917   7.966 -1.8147 -0.6481  0.9772
   81CHL1  H16B 8423   4.239   2.095   7.971  0.7571  0.3483 -0.3943
   81CHL1   C17 8424   4.107   1.936   7.888 -0.4791  0.6022  0.0996
   81CHL1   H17 8425   4.035   2.020   7.882  0.0401  0.9651 -4.0039
   81CHL1   C13 8426   4.108   1.881   7.738  0.1009 -0.1233  0.0710
   81CHL1   C18 8427   4.183   1.743   7.748  0.0765  0.4262  0.0407
   81CHL1  H18A 8428   4.223   1.707   7.651  1.2570  0.8135  0.3638
   81CHL1  H18B 8429   4.272   1.764   7.811  0.0469 -1.7266  0.8961
   81CHL1  H18C 8430   4.126   1.665   7.803  2.1106 -0.6946  0.6420
   81CHL1   C12 8431   3.971   1.885   7.676  0.0534 -0.2628  0.4343
   81CHL1  H12A 8432   3.905   1.806   7.719 -3.1664  2.0701  0.1784
   81CHL1  H12B 8433   3.920   1.984   7.680  0.6109  0.1202 -1.1269
   81CHL1   C11 8434   3.991   1.859   7.525  0.3496 -0.1715  0.6045
   81CHL1  H11A 8435   4.015   1.752   7.511  1.7197  0.0797  0.9045
   81CHL1  H11B 8436   3.891   1.883   7.483 -0.2937 -0.2847  1.9926
   81CHL1    C9 8437   4.096   1.945   7.455  0.2059 -0.7294 -0.3764
   81CHL1    H9 8438   4.052   2.047   7.463 -0.0311 -0.7054 -1.7656
   81CHL1   C10 8439   4.116   1.917   7.305  0.5254 -0.1980  0.3806
   81CHL1   C19 8440   4.149   1.767   7.283 -0.4444 -0.1140 -0.2112
   81CHL1  H19A 8441   4.063   1.701   7.307 -0.0692 -0.2670  0.7638
   81CHL1  H19B 8442   4.171   1.752   7.175  1.9577  0.0411  0.2115
   81CHL1  H19C 8443   4.234   1.731   7.345 -0.5190 -0.3621 -0.2517
   81CHL1    C1 8444   3.983   1.952   7.232 -0.0873 -0.2247  0.1428
   81CHL1   H1A 8445   3.899   1.884   7.256 -1.3245  1.2920  0.2656
   81CHL1   H1B 8446   3.959   2.058   7.256  2.9196  0.4152  0.8632
   81CHL1    C2 8447   4.000   1.943   7.080 -0.2118 -0.1919  0.8314
   81CHL1   H2A 8448   3.912   1.972   7.019  0.7812  1.3723  0.0843
   81CHL1   H2B 8449   4.030   1.840   7.052  1.5932  0.7036 -0.8217
   81CHL1   C20 8450   4.065   1.838   8.003 -0.5136  0.1840 -0.3964
   81CHL1   H20 8451   4.141   1.758   8.008  0.8873  1.5372  0.6779
   81CHL1   C21 8452   3.923   1.781   7.975  0.1692 -0.0676 -1.1275
   81CHL1  H21A 8453   3.902   1.704   7.898  1.1207 -1.1215 -0.3537
   81CHL1  H21B 8454   3.862   1.870   7.946  0.3311  0.2982 -0.3591
   81CHL1  H21C 8455   3.878   1.744   8.069  0.9682  0.1794 -0.6465
   81CHL1   C22 8456   4.075   1.893   8.149  0.0903 -0.5524 -0.1944
   81CHL1  H22A 8457   4.040   1.815   8.219  0.7418 -1.7480 -1.1596
   81CHL1  H22B 8458   4.183   1.901   8.172  0.0312 -1.8041  0.6060
   81CHL1   C23 8459   4.002   2.029   8.172 -0.3936  0.5064 -0.2629
   81CHL1  H23A 8460   4.063   2.116   8.139 -0.3277  0.4844 -0.2003
   81CHL1  H23B 8461   3.901   2.029   8.127  0.2813  0.7576 -1.8579
   81CHL1   C24 8462   3.982   2.047   8.325  0.0512  0.4666 -0.7154
   81CHL1  H24A 8463   3.910   1.972   8.362 -2.0935  2.0995 -1.3371
   81CHL1  H24B 8464   4.076   2.027   8.380 -0.8724  1.8116  1.4811
   81CHL1   C25 8465   3.928   2.191   8.370  0.5147 -0.1617  0.1042
   81CHL1   H25 8466   4.006   2.260   8.332  0.9210 -0.5633  0.1970
   81CHL1   C26 8467   3.790   2.210   8.298  0.3421 -0.0777 -0.7536
   81CHL1  H26A 8468   3.792   2.224   8.188  0.5206 -3.1289 -1.2214
   81CHL1  H26B 8469   3.732   2.119   8.325 -0.1654  0.1219 -1.1605
   81CHL1  H26C 8470   3.740   2.297   8.345 -0.3631 -1.7650  1.7821
   81CHL1   C27 8471   3.911   2.194   8.525 -0.4682  0.3265  0.3938
   81CHL1  H27A 8472   4.010   2.176   8.571  0.2024 -1.1392 -1.4615
   81CHL1  H27B 8473   3.877   2.295   8.557 -0.1489  1.0054 -1.2928
   81CHL1  H27C 8474   3.836   2.116   8.552 -0.5795 -0.4460 -1.9191
   82CHL1    C3 8475   4.751   1.902   7.027  0.0015  0.0257 -0.4979
   82CHL1    H3 8476   4.784   1.804   7.067 -1.6246  0.0125  0.9413
   82CHL1    O3 8477   4.709   1.885   6.894 -0.1564 -0.3585  0.1521
   82CHL1   H3' 8478   4.627   1.934   6.888  0.9541  1.6442  0.4945
   82CHL1    C4 8479   4.637   1.940   7.122 -0.0095  0.3811  0.2011
   82CHL1   H4A 8480   4.580   2.024   7.077  0.0130 -0.4788 -1.4925
   82CHL1   H4B 8481   4.560   1.861   7.114 -0.1186  0.5850 -0.8191
   82CHL1    C5 8482   4.686   1.968   7.257  0.2100 -0.2821 -0.1546
   82CHL1    C6 8483   4.636   1.894   7.359  0.2267 -0.1197  0.1620
   82CHL1    H6 8484   4.554   1.822   7.344 -0.0217  0.4440 -1.3111
   82CHL1    C7 8485   4.678   1.927   7.501  0.2584 -0.3190 -0.1918
   82CHL1   H7A 8486   4.594   1.944   7.571 -0.7069  0.0627 -1.4124
   82CHL1   H7B 8487   4.726   1.840   7.551  0.4273 -0.6281 -0.8888
   82CHL1    C8 8488   4.756   2.059   7.523 -1.1162 -0.1646  0.0471
   82CHL1    H8 8489   4.681   2.141   7.517 -0.4426  0.4838  0.3586
   82CHL1   C14 8490   4.816   2.070   7.663 -0.2389 -0.2026  0.3806
   82CHL1   H14 8491   4.887   1.985   7.673  1.0177  0.7135 -0.4186
   82CHL1   C15 8492   4.720   2.056   7.786 -0.4730  0.2169  0.2748
   82CHL1  H15A 8493   4.632   2.122   7.768  0.9718  2.7491  1.8304
   82CHL1  H15B 8494   4.678   1.956   7.808 -0.5042  0.3525  0.8654
   82CHL1   C16 8495   4.805   2.105   7.895 -0.8862  0.4004 -0.0997
   82CHL1  H16A 8496   4.754   2.188   7.949 -0.0408 -0.0944  1.5524
   82CHL1  H16B 8497   4.834   2.022   7.964  0.6309  0.7821 -0.2550
   82CHL1   C17 8498   4.928   2.174   7.832 -0.2496 -0.2128 -0.1470
   82CHL1   H17 8499   5.016   2.106   7.830  0.4888  0.5703  2.2799
   82CHL1   C13 8500   4.891   2.201   7.687  0.5937  0.8149  0.0600
   82CHL1   C18 8501   4.793   2.319   7.688 -0.2114  0.5024  0.2854
   82CHL1  H18A 8502   4.709   2.311   7.760 -1.4369  1.0143 -1.0461
   82CHL1  H18B 8503   4.839   2.420   7.695 -0.3389  0.4349  2.7866
   82CHL1  H18C 8504   4.740   2.328   7.591  1.1611  0.9406 -0.4573
   82CHL1   C12 8505   5.001   2.209   7.585 -0.3460 -0.2157  0.0062
   82CHL1  H12A 8506   5.040   2.313   7.582 -0.6044 -0.1390 -1.0887
   82CHL1  H12B 8507   5.070   2.124   7.603 -2.5559 -2.0633  0.2161
   82CHL1   C11 8508   4.953   2.200   7.441  0.1715  0.0342  0.0227
   82CHL1  H11A 8509   4.882   2.283   7.422 -0.4019 -0.3107  0.6102
   82CHL1  H11B 8510   5.043   2.213   7.377  0.6621 -1.7543  0.2900
   82CHL1    C9 8511   4.868   2.077   7.413  0.3023  0.8054  0.3638
   82CHL1    H9 8512   4.939   1.991   7.411  0.4452  0.9312 -1.0840
   82CHL1   C10 8513   4.803   2.071   7.273  0.3808 -0.0580 -0.6763
   82CHL1   C19 8514   4.732   2.205   7.241  0.4258  0.2880 -0.1678
   82CHL1  H19A 8515   4.661   2.225   7.324  0.1083 -0.3214 -0.2926
   82CHL1  H19B 8516   4.804   2.289   7.228 -1.8378  2.3553 -0.2182
   82CHL1  H19C 8517   4.670   2.197   7.149 -0.9153  1.6497  0.5698
   82CHL1    C1 8518   4.905   2.037   7.170 -0.2597  0.0710 -0.5135
   82CHL1   H1A 8519   4.982   2.116   7.160  1.4088 -1.4972 -0.6351
   82CHL1   H1B 8520   4.960   1.946   7.202 -1.0816 -0.0757  0.5354
   82CHL1    C2 8521   4.854   2.014   7.023  0.3795 -0.4069 -0.4289
   82CHL1   H2A 8522   4.942   1.991   6.959  0.1751 -2.5975 -0.0026
   82CHL1   H2B 8523   4.805   2.103   6.978 -0.2162 -0.6121 -0.2068
   82CHL1   C20 8524   4.972   2.297   7.916  0.0460  0.4811  0.7974
   82CHL1   H20 8525   4.907   2.388   7.914 -0.4082  0.1565  0.7564
   82CHL1   C21 8526   5.092   2.354   7.843 -0.7673  0.0583  0.1922
   82CHL1  H21A 8527   5.165   2.277   7.813  0.7576  1.3664  0.3786
   82CHL1  H21B 8528   5.149   2.424   7.909 -0.0057 -0.4014  0.0302
   82CHL1  H21C 8529   5.054   2.412   7.757  0.7811 -0.6663 -1.0269
   82CHL1   C22 8530   5.000   2.255   8.061 -0.3428 -0.3885 -0.1234
   82CHL1  H22A 8531   4.897   2.228   8.092 -1.2747  1.3559 -1.5797
   82CHL1  H22B 8532   5.059   2.161   8.069  1.4643  0.7534  0.6155
   82CHL1   C23 8533   5.059   2.360   8.157 -0.0162  0.0914 -0.3434
   82CHL1  H23A 8534   5.150   2.408   8.116  0.5160  0.9279  1.7072
   82CHL1  H23B 8535   4.982   2.441   8.161  0.8335  0.8823  0.4175
   82CHL1   C24 8536   5.086   2.300   8.292  0.2447  0.1155 -0.2371
   82CHL1  H24A 8537   4.990   2.268   8.337  1.3054 -2.5793  0.3301
   82CHL1  H24B 8538   5.146   2.207   8.279 -1.0032 -0.4049 -3.2458
   82CHL1   C25 8539   5.144   2.396   8.402 -0.3741  0.4809  0.4607
   82CHL1   H25 8540   5.250   2.419   8.375 -0.1731 -1.2269 -0.3360
   82CHL1   C26 8541   5.055   2.521   8.424 -0.1689  0.5220 -0.0501
   82CHL1  H26A 8542   5.102   2.578   8.506 -0.6777 -0.4790  0.9573
   82CHL1  H26B 8543   5.035   2.570   8.326 -2.6752 -0.1038  0.0650
   82CHL1  H26C 8544   4.959   2.478   8.460  0.1907 -0.3358 -0.0817
   82CHL1   C27 8545   5.155   2.313   8.531  0.7652 -0.0015 -0.6953
   82CHL1  H27A 8546   5.211   2.375   8.606  1.0608 -1.0140 -0.0603
   82CHL1  H27B 8547   5.055   2.286   8.571 -0.0116  3.3605 -0.0278
   82CHL1  H27C 8548   5.213   2.219   8.524  0.0613 -0.8345  2.7345
   83CHL1    C3 8549   0.153   3.893   6.996 -0.2441 -0.4724  0.1704
   83CHL1    H3 8550   0.197   3.994   7.005 -1.1445 -0.1617  1.3245
   83CHL1    O3 8551   0.164   3.853   6.861 -0.0097 -0.2851 -0.3391
   83CHL1   H3' 8552   0.122   3.767   6.870 -1.3091  0.3795  0.3244
   83CHL1    C4 8553   0.213   3.784   7.082 -0.1608 -0.7205  0.1060
   83CHL1   H4A 8554   0.177   3.682   7.054 -0.8250 -0.1962 -0.9825
   83CHL1   H4B 8555   0.321   3.775   7.058 -0.2952 -1.8302 -0.1626
   83CHL1    C5 8556   0.197   3.787   7.235 -0.6453  0.0891  0.0953
   83CHL1    C6 8557   0.299   3.785   7.321 -0.6798  0.1052  0.2384
   83CHL1    H6 8558   0.402   3.786   7.282  1.1553  5.3244  3.9563
   83CHL1    C7 8559   0.285   3.771   7.471  0.2967  0.1218 -0.2801
   83CHL1   H7A 8560   0.331   3.680   7.515 -0.8823 -0.6884 -0.6976
   83CHL1   H7B 8561   0.320   3.863   7.523  0.6606 -0.0861 -0.1502
   83CHL1    C8 8562   0.137   3.744   7.518 -0.3062 -0.7908 -0.1236
   83CHL1    H8 8563   0.108   3.639   7.498  0.4867 -0.9874 -0.2530
   83CHL1   C14 8564   0.112   3.766   7.664 -0.5827  0.3142 -0.3675
   83CHL1   H14 8565   0.117   3.874   7.690  0.7615 -0.1324  1.4026
   83CHL1   C15 8566   0.208   3.698   7.765  0.2290  0.2522 -0.4953
   83CHL1  H15A 8567   0.234   3.600   7.720  0.0589  0.0291 -0.1117
   83CHL1  H15B 8568   0.295   3.767   7.773 -0.6135  1.5641 -2.0548
   83CHL1   C16 8569   0.130   3.687   7.887 -0.2746 -0.3634 -0.0534
   83CHL1  H16A 8570   0.110   3.579   7.906  3.8853 -1.3679 -0.4524
   83CHL1  H16B 8571   0.173   3.739   7.975  0.5841 -0.9378 -0.1256
   83CHL1   C17 8572  -0.008   3.752   7.863 -0.3802 -0.2528 -0.1474
   83CHL1   H17 8573   0.012   3.861   7.873 -0.6453 -0.2882  0.8284
   83CHL1   C13 8574  -0.026   3.735   7.711 -0.0089 -0.0663 -0.1517
   83CHL1   C18 8575  -0.072   3.593   7.675  0.5871  0.4449  0.0762
   83CHL1  H18A 8576  -0.075   3.572   7.566 -1.0536 -0.5997  0.2883
   83CHL1  H18B 8577  -0.011   3.513   7.723 -0.8787 -1.7616 -1.5006
   83CHL1  H18C 8578  -0.180   3.586   7.700 -0.1950  0.1647 -2.9529
   83CHL1   C12 8579  -0.112   3.839   7.650  0.5385 -0.5589 -0.0558
   83CHL1  H12A 8580  -0.222   3.831   7.667  0.7256 -1.3542  0.8535
   83CHL1  H12B 8581  -0.087   3.934   7.703 -0.8232 -0.0856 -0.2074
   83CHL1   C11 8582  -0.103   3.833   7.498 -0.1913  0.3171  0.4303
   83CHL1  H11A 8583  -0.149   3.736   7.470  1.3779 -0.6726  1.1753
   83CHL1  H11B 8584  -0.169   3.910   7.452 -0.1419  1.0471  1.5446
   83CHL1    C9 8585   0.043   3.834   7.435 -0.2446  0.2403 -0.1357
   83CHL1    H9 8586   0.074   3.941   7.442  1.7223 -0.3343  0.6529
   83CHL1   C10 8587   0.050   3.802   7.274  0.6843 -0.1193 -0.2635
   83CHL1   C19 8588  -0.024   3.675   7.242  0.4535 -0.4061  1.2011
   83CHL1  H19A 8589   0.014   3.598   7.312  1.0115 -0.6711  0.6103
   83CHL1  H19B 8590  -0.132   3.701   7.253  0.7549  1.2018  0.6294
   83CHL1  H19C 8591  -0.017   3.630   7.141  0.3955  0.8378  0.6210
   83CHL1    C1 8592  -0.025   3.918   7.195 -0.0819 -0.0836  0.5342
   83CHL1   H1A 8593  -0.132   3.931   7.223 -0.9889  0.3341 -2.7347
   83CHL1   H1B 8594   0.019   4.010   7.239  0.7853 -1.0978  1.8891
   83CHL1    C2 8595   0.007   3.911   7.040  0.2788 -0.1520 -0.3467
   83CHL1   H2A 8596  -0.030   4.012   7.011 -1.4046  0.1694  2.5194
   83CHL1   H2B 8597  -0.066   3.844   6.990 -0.5201  2.9316 -3.7959
   83CHL1   C20 8598  -0.116   3.705   7.959 -0.2021  0.2412  0.1280
   83CHL1   H20 8599  -0.138   3.598   7.938  1.0754  0.2185 -1.2650
   83CHL1   C21 8600  -0.249   3.784   7.962  0.7372  0.4507 -0.0443
   83CHL1  H21A 8601  -0.238   3.895   7.961 -1.5345  0.7937 -3.4000
   83CHL1  H21B 8602  -0.316   3.766   8.049 -0.4454 -1.4705 -1.2910
   83CHL1  H21C 8603  -0.308   3.761   7.871  0.7402  2.1099 -0.5054
   83CHL1   C22 8604  -0.054   3.707   8.106 -0.4312  0.3841 -0.4994
   83CHL1  H22A 8605  -0.135   3.658   8.165 -0.9266  2.3085  0.4951
   83CHL1  H22B 8606   0.039   3.648   8.116  0.1150  1.3331  0.2476
   83CHL1   C23 8607  -0.026   3.839   8.174 -0.1740  0.8128  0.1228
   83CHL1  H23A 8608   0.037   3.905   8.111  0.2525  2.0496  1.7899
   83CHL1  H23B 8609  -0.117   3.893   8.208  0.1812  0.4767  1.6963
   83CHL1   C24 8610   0.053   3.811   8.307  0.5088  0.2615  0.0926
   83CHL1  H24A 8611  -0.003   3.731   8.360  1.8866 -0.1316  0.9829
   83CHL1  H24B 8612   0.157   3.775   8.296  0.7483 -0.1243  3.0208
   83CHL1   C25 8613   0.050   3.928   8.398 -0.7638 -0.3214 -0.1641
   83CHL1   H25 8614  -0.054   3.967   8.406 -0.3528  0.7744 -0.0262
   83CHL1   C26 8615   0.090   3.895   8.541 -0.5715 -0.1637 -0.0692
   83CHL1  H26A 8616   0.191   3.850   8.528 -0.1215  0.7062  0.2824
   83CHL1  H26B 8617   0.098   3.990   8.599  1.7932 -0.7386  0.6722
   83CHL1  H26C 8618   0.012   3.827   8.581 -0.3710 -0.6057 -0.4287
   83CHL1   C27 8619   0.139   4.047   8.354  0.7906  0.3399  0.4591
   83CHL1  H27A 8620   0.127   4.071   8.246  0.5191  1.8010  0.7838
   83CHL1  H27B 8621   0.115   4.139   8.412 -1.5466 -0.0350  0.1927
   83CHL1  H27C 8622   0.248   4.028   8.363  0.9293  0.7322 -0.3019
   84CHL1    C3 8623   2.792   5.926   6.891 -0.1170  0.2638 -0.0824
   84CHL1    H3 8624   2.774   5.817   6.877  0.9407 -0.0109  0.5613
   84CHL1    O3 8625   2.763   5.982   6.761  0.0373 -0.7887  0.5091
   84CHL1   H3' 8626   2.819   6.060   6.750 -0.4606 -0.2532  1.5399
   84CHL1    C4 8627   2.683   5.974   6.992 -0.0856  0.0196  0.4779
   84CHL1   H4A 8628   2.668   6.084   6.990 -1.6509 -0.1503  1.6467
   84CHL1   H4B 8629   2.592   5.925   6.953  0.6412 -0.4920 -0.6076
   84CHL1    C5 8630   2.711   5.928   7.136  0.1874  0.2247 -0.9178
   84CHL1    C6 8631   2.617   5.876   7.223  0.1329  0.4882 -0.3929
   84CHL1    H6 8632   2.512   5.872   7.189  0.2290  0.1802 -0.6597
   84CHL1    C7 8633   2.635   5.859   7.371  0.2940  0.2606 -0.6994
   84CHL1   H7A 8634   2.552   5.891   7.438  1.5341  1.7884  0.1841
   84CHL1   H7B 8635   2.643   5.749   7.381 -2.2240  0.1494  0.9854
   84CHL1    C8 8636   2.764   5.924   7.422 -0.9815  0.3558 -0.1748
   84CHL1    H8 8637   2.739   6.032   7.427  0.1705  0.6078  0.8485
   84CHL1   C14 8638   2.799   5.870   7.565 -0.2289 -0.7263 -0.2851
   84CHL1   H14 8639   2.819   5.761   7.554 -0.3617 -0.6621 -1.2267
   84CHL1   C15 8640   2.692   5.883   7.671  0.3034 -0.0036 -0.1700
   84CHL1  H15A 8641   2.652   5.985   7.650  1.5457  0.7959  1.1986
   84CHL1  H15B 8642   2.618   5.802   7.654 -0.0345  0.1724  0.4454
   84CHL1   C16 8643   2.778   5.879   7.805 -0.1392 -0.3649  0.3015
   84CHL1  H16A 8644   2.758   5.976   7.855 -0.7164 -0.2046 -0.2274
   84CHL1  H16B 8645   2.733   5.802   7.871  0.2352  0.0145  1.0054
   84CHL1   C17 8646   2.927   5.867   7.759 -0.0709 -0.0079  0.5431
   84CHL1   H17 8647   2.932   5.760   7.732  2.3445  0.4590 -1.2287
   84CHL1   C13 8648   2.922   5.936   7.623  0.2071 -0.1803 -0.3711
   84CHL1   C18 8649   2.912   6.089   7.636  0.1504 -0.2562  0.0196
   84CHL1  H18A 8650   3.006   6.148   7.621 -1.1793  1.4230 -2.4401
   84CHL1  H18B 8651   2.847   6.144   7.564 -0.2204  1.8781  1.8826
   84CHL1  H18C 8652   2.858   6.116   7.729 -2.1870 -1.8667 -0.7772
   84CHL1   C12 8653   3.040   5.901   7.530  0.8739  0.3962 -0.1925
   84CHL1  H12A 8654   3.135   5.940   7.570  0.9145 -0.5523  0.6771
   84CHL1  H12B 8655   3.073   5.795   7.541 -1.3626 -0.4098 -0.6483
   84CHL1   C11 8656   3.025   5.949   7.380  0.2602  0.0869 -0.0142
   84CHL1  H11A 8657   3.034   6.059   7.372  2.5595 -0.1694 -1.6209
   84CHL1  H11B 8658   3.116   5.909   7.331 -0.7730 -3.6176  0.7834
   84CHL1    C9 8659   2.889   5.898   7.325  0.6451  0.2410  0.0106
   84CHL1    H9 8660   2.909   5.789   7.314  0.0933  0.1318  0.0443
   84CHL1   C10 8661   2.857   5.955   7.186 -0.1267  0.0801  0.1691
   84CHL1   C19 8662   2.856   6.107   7.190 -0.1929 -0.0702  0.0190
   84CHL1  H19A 8663   2.837   6.144   7.086  1.4301 -0.9180 -0.6040
   84CHL1  H19B 8664   2.796   6.163   7.265  1.6681  0.5786  1.0606
   84CHL1  H19C 8665   2.954   6.158   7.200 -1.0050  1.4379  0.5650
   84CHL1    C1 8666   2.946   5.897   7.073 -0.5120  0.8520  0.4457
   84CHL1   H1A 8667   3.051   5.912   7.106 -0.7231  3.2460  0.2662
   84CHL1   H1B 8668   2.914   5.791   7.072  0.5605  0.4845  2.0145
   84CHL1    C2 8669   2.935   5.950   6.928  0.2718 -0.6377 -0.1607
   84CHL1   H2A 8670   3.005   5.889   6.867 -0.0427 -0.4523 -0.7138
   84CHL1   H2B 8671   2.964   6.058   6.924  1.0872 -0.8492 -0.2349
   84CHL1   C20 8672   3.042   5.891   7.862  0.1137  0.9398 -0.2681
   84CHL1   H20 8673   3.042   6.001   7.873 -1.1311  0.8170  1.2133
   84CHL1   C21 8674   3.179   5.833   7.806  0.3497  0.4675  0.0780
   84CHL1  H21A 8675   3.233   5.894   7.731  3.2977 -2.4429 -0.3831
   84CHL1  H21B 8676   3.161   5.733   7.762  0.5674  0.2752  0.4243
   84CHL1  H21C 8677   3.243   5.823   7.896 -0.4660 -2.0781  0.4538
   84CHL1   C22 8678   3.013   5.838   8.004 -0.7029  0.1234 -0.1936
   84CHL1  H22A 8679   3.092   5.873   8.073  0.7663 -0.0116 -1.7355
   84CHL1  H22B 8680   2.913   5.878   8.032 -0.1286  1.6247 -0.1941
   84CHL1   C23 8681   3.002   5.687   8.009 -0.7633  0.3665 -0.4972
   84CHL1  H23A 8682   2.920   5.657   7.939  1.5686 -1.6126 -2.5980
   84CHL1  H23B 8683   3.101   5.644   7.983 -0.0960  2.1254 -1.0104
   84CHL1   C24 8684   2.965   5.632   8.149 -0.2449 -0.1564  1.0037
   84CHL1  H24A 8685   3.033   5.672   8.227 -3.0954  2.9395  2.1934
   84CHL1  H24B 8686   2.872   5.677   8.192 -0.0922  1.6016 -0.3750
   84CHL1   C25 8687   2.951   5.483   8.145 -0.5664 -0.4313  0.1446
   84CHL1   H25 8688   3.005   5.438   8.058  0.1660  1.9075 -0.6702
   84CHL1   C26 8689   3.024   5.435   8.272  0.3878 -0.0872  0.7267
   84CHL1  H26A 8690   3.023   5.324   8.273 -1.1035 -0.1575 -1.5955
   84CHL1  H26B 8691   3.127   5.478   8.279  0.3306  0.0263  0.8798
   84CHL1  H26C 8692   2.972   5.470   8.364  1.8002 -2.5439  2.6036
   84CHL1   C27 8693   2.802   5.446   8.144 -0.6222 -0.6336  0.9759
   84CHL1  H27A 8694   2.802   5.337   8.121 -0.9439 -0.8877  2.1040
   84CHL1  H27B 8695   2.743   5.466   8.236 -3.7362 -0.7010 -0.8700
   84CHL1  H27C 8696   2.747   5.489   8.059 -1.4696  0.3706  2.0019
   85CHL1    C3 8697   1.364   4.053   6.864  0.0141 -0.0545  0.2057
   85CHL1    H3 8698   1.468   4.085   6.884  0.6904 -1.8807 -0.2413
   85CHL1    O3 8699   1.329   4.077   6.731  0.2009 -0.2273  0.4365
   85CHL1   H3' 8700   1.240   4.043   6.720  0.2199 -0.8950  2.0892
   85CHL1    C4 8701   1.351   3.905   6.887  0.2780  0.4024 -0.8706
   85CHL1   H4A 8702   1.248   3.877   6.858  0.2492  0.4349 -0.8002
   85CHL1   H4B 8703   1.408   3.849   6.810  0.4951  0.6087 -0.8620
   85CHL1    C5 8704   1.367   3.853   7.029  0.6874  0.2956  0.1474
   85CHL1    C6 8705   1.463   3.764   7.055 -0.3863 -0.2685 -0.1860
   85CHL1    H6 8706   1.523   3.728   6.971 -0.9597 -0.1920 -0.6348
   85CHL1    C7 8707   1.494   3.718   7.200 -0.7942 -0.1954  0.0353
   85CHL1   H7A 8708   1.526   3.612   7.202  0.3601  0.1054 -0.7599
   85CHL1   H7B 8709   1.592   3.761   7.232  0.4826 -2.7279 -0.2637
   85CHL1    C8 8710   1.399   3.765   7.313 -0.0118 -0.0002 -0.0890
   85CHL1    H8 8711   1.310   3.699   7.318  0.2607 -0.3348  0.3851
   85CHL1   C14 8712   1.462   3.776   7.451 -0.5380 -0.5286 -0.1088
   85CHL1   H14 8713   1.543   3.852   7.441  0.5030 -1.5171  0.6234
   85CHL1   C15 8714   1.535   3.658   7.500  0.2179 -0.4489 -0.1063
   85CHL1  H15A 8715   1.471   3.567   7.498  0.8699 -1.0487  2.6572
   85CHL1  H15B 8716   1.640   3.640   7.467  0.9367 -0.5868  2.0902
   85CHL1   C16 8717   1.545   3.675   7.657 -0.7003 -0.6765 -0.7887
   85CHL1  H16A 8718   1.506   3.581   7.702  0.9715 -1.0904 -0.1549
   85CHL1  H16B 8719   1.647   3.689   7.698  0.1309 -3.6228 -1.6212
   85CHL1   C17 8720   1.453   3.799   7.695 -0.2177  0.2432 -0.1934
   85CHL1   H17 8721   1.525   3.883   7.706  2.2596 -1.3930 -2.5745
   85CHL1   C13 8722   1.374   3.827   7.565 -0.9206 -0.1286 -0.2352
   85CHL1   C18 8723   1.242   3.746   7.575 -0.5742 -0.3801  0.2705
   85CHL1  H18A 8724   1.254   3.637   7.595 -0.6923 -0.1207  1.9135
   85CHL1  H18B 8725   1.169   3.788   7.647  0.6526 -1.3535  2.1542
   85CHL1  H18C 8726   1.187   3.751   7.479 -0.7924 -2.8470  0.2026
   85CHL1   C12 8727   1.343   3.976   7.536 -0.0832 -0.8359 -0.5367
   85CHL1  H12A 8728   1.270   4.012   7.612  0.8429 -0.1336  0.0297
   85CHL1  H12B 8729   1.442   4.025   7.525 -0.6773  0.2684 -1.2278
   85CHL1   C11 8730   1.276   3.987   7.396  0.1680  0.2939 -0.2940
   85CHL1  H11A 8731   1.173   3.950   7.415  0.5811  0.4972  3.0237
   85CHL1  H11B 8732   1.271   4.094   7.365 -2.7956 -0.3211 -2.3466
   85CHL1    C9 8733   1.348   3.910   7.279  0.2602  0.6477 -0.4466
   85CHL1    H9 8734   1.442   3.969   7.275 -0.6509  2.0817 -2.1116
   85CHL1   C10 8735   1.291   3.934   7.132 -0.3578  0.5598 -0.7368
   85CHL1   C19 8736   1.151   3.888   7.133  0.3359  0.2173 -0.5059
   85CHL1  H19A 8737   1.142   3.788   7.180  1.4618  1.1429  1.8447
   85CHL1  H19B 8738   1.077   3.958   7.177  0.1516 -0.7045  0.6944
   85CHL1  H19C 8739   1.119   3.873   7.028  0.5356  0.7872 -0.6491
   85CHL1    C1 8740   1.300   4.090   7.097  0.1895 -0.3124  0.5612
   85CHL1   H1A 8741   1.229   4.152   7.157  3.1943  2.4425  1.5823
   85CHL1   H1B 8742   1.401   4.134   7.115 -0.4748  1.4143  0.2976
   85CHL1    C2 8743   1.259   4.121   6.953  0.3612 -0.5600 -0.6429
   85CHL1   H2A 8744   1.258   4.231   6.936 -0.1822 -0.0298  2.1924
   85CHL1   H2B 8745   1.163   4.072   6.927  0.8705 -2.4278  0.7979
   85CHL1   C20 8746   1.385   3.769   7.836  0.0082 -0.5351 -0.4099
   85CHL1   H20 8747   1.327   3.676   7.819  0.5779 -0.7179 -1.4414
   85CHL1   C21 8748   1.298   3.888   7.887  0.2732 -0.0465 -0.0181
   85CHL1  H21A 8749   1.229   3.935   7.814 -0.1733 -2.0237 -0.9543
   85CHL1  H21B 8750   1.372   3.966   7.914 -0.1876  0.5535 -0.4783
   85CHL1  H21C 8751   1.243   3.858   7.980 -0.5608 -2.3653 -1.1708
   85CHL1   C22 8752   1.482   3.732   7.945 -0.5140 -0.1540  0.6432
   85CHL1  H22A 8753   1.542   3.640   7.928  3.1352  1.6717  2.4435
   85CHL1  H22B 8754   1.557   3.813   7.941 -0.4329  0.0152  3.7539
   85CHL1   C23 8755   1.438   3.715   8.084 -0.5681 -0.6122  0.5338
   85CHL1  H23A 8756   1.377   3.799   8.125 -0.8573 -0.2930 -0.5067
   85CHL1  H23B 8757   1.378   3.622   8.086 -0.8491 -0.4379  0.3488
   85CHL1   C24 8758   1.555   3.697   8.189  0.5606 -0.4387 -0.2153
   85CHL1  H24A 8759   1.605   3.602   8.158  2.4962  0.9937 -1.8046
   85CHL1  H24B 8760   1.622   3.783   8.169 -1.0584  0.9203 -0.0506
   85CHL1   C25 8761   1.516   3.693   8.335 -0.1925 -0.9773 -0.4128
   85CHL1   H25 8762   1.439   3.615   8.353 -0.1220 -1.6437 -2.5967
   85CHL1   C26 8763   1.632   3.651   8.421  0.0061  0.4393  0.4530
   85CHL1  H26A 8764   1.722   3.714   8.406  2.0931 -2.9418 -2.7745
   85CHL1  H26B 8765   1.610   3.652   8.530 -1.1759 -0.8830  0.2601
   85CHL1  H26C 8766   1.667   3.549   8.397  1.4944  0.7992  0.9934
   85CHL1   C27 8767   1.460   3.828   8.385 -0.2087  0.0111  0.7130
   85CHL1  H27A 8768   1.370   3.849   8.324  0.8985  3.3495  0.0300
   85CHL1  H27B 8769   1.417   3.814   8.487 -1.3412 -2.8017 -0.0375
   85CHL1  H27C 8770   1.531   3.913   8.373 -0.4213  0.0674 -0.2435
   86CHL1    C3 8771   5.030   1.194   7.188  0.0071  0.3517  0.4099
   86CHL1    H3 8772   5.049   1.303   7.175  3.6064 -0.2843 -0.9882
   86CHL1    O3 8773   5.026   1.135   7.061 -0.0621 -0.2198  0.0524
   86CHL1   H3' 8774   4.936   1.149   7.032 -0.4206  0.4209  1.3839
   86CHL1    C4 8775   5.150   1.128   7.262  0.1730 -0.7949  0.4711
   86CHL1   H4A 8776   5.151   1.017   7.270 -1.0815 -0.7132  2.0225
   86CHL1   H4B 8777   5.247   1.155   7.215  0.3398 -1.2695  0.5381
   86CHL1    C5 8778   5.154   1.165   7.408  0.4406  0.5747 -0.4720
   86CHL1    C6 8779   5.257   1.236   7.464  0.0262  0.5529  0.0626
   86CHL1    H6 8780   5.346   1.261   7.404 -1.4578  2.3482 -1.4863
   86CHL1    C7 8781   5.268   1.271   7.613  0.5101  0.3713 -0.4008
   86CHL1   H7A 8782   5.368   1.261   7.661  0.0042 -0.5061  0.4812
   86CHL1   H7B 8783   5.240   1.378   7.624 -1.0979  0.1076 -1.6366
   86CHL1    C8 8784   5.158   1.184   7.700 -0.0681 -0.0819 -0.3920
   86CHL1    H8 8785   5.191   1.078   7.708 -1.2552 -0.3765  1.1037
   86CHL1   C14 8786   5.146   1.237   7.838  0.4249  0.6964 -0.7313
   86CHL1   H14 8787   5.106   1.339   7.822  0.8792  0.8969 -0.6094
   86CHL1   C15 8788   5.272   1.257   7.927 -0.1079  0.0321 -0.0326
   86CHL1  H15A 8789   5.312   1.154   7.913  1.4935  0.7633 -1.0431
   86CHL1  H15B 8790   5.325   1.337   7.872 -1.8260  0.1417 -1.6380
   86CHL1   C16 8791   5.224   1.292   8.067  0.4849 -0.8529  0.2414
   86CHL1  H16A 8792   5.279   1.227   8.138 -1.2567 -2.3776  0.2662
   86CHL1  H16B 8793   5.222   1.401   8.090 -1.8483 -1.3674  3.0446
   86CHL1   C17 8794   5.073   1.249   8.058  0.1133 -0.2379 -0.7249
   86CHL1   H17 8795   5.022   1.347   8.045  0.3873 -0.0872 -0.6818
   86CHL1   C13 8796   5.051   1.163   7.928  0.1252 -0.0918  0.3802
   86CHL1   C18 8797   5.099   1.013   7.965 -0.2618  0.6263  0.9274
   86CHL1  H18A 8798   5.021   0.949   8.012  0.6695 -1.0313  0.3119
   86CHL1  H18B 8799   5.123   0.957   7.872  1.7569  2.2372  0.4250
   86CHL1  H18C 8800   5.190   1.003   8.027 -1.2636 -1.4062  2.1699
   86CHL1   C12 8801   4.907   1.160   7.864 -0.9428 -0.5202  0.2644
   86CHL1  H12A 8802   4.845   1.086   7.919 -0.9215 -0.6991  0.0532
   86CHL1  H12B 8803   4.858   1.259   7.862 -0.9325 -0.5046 -2.3886
   86CHL1   C11 8804   4.909   1.113   7.714 -0.2206 -0.7711  0.0561
   86CHL1  H11A 8805   4.958   1.014   7.728  1.0997  0.0268  1.3411
   86CHL1  H11B 8806   4.814   1.104   7.658  0.1610 -1.2994 -0.5274
   86CHL1    C9 8807   5.021   1.190   7.630 -0.8998  0.3371 -0.1305
   86CHL1    H9 8808   4.981   1.292   7.610 -2.6124 -0.0370  1.1571
   86CHL1   C10 8809   5.021   1.134   7.483 -0.8378 -0.2034  0.6179
   86CHL1   C19 8810   5.014   0.979   7.486 -0.2195 -0.7216 -0.1555
   86CHL1  H19A 8811   5.016   0.922   7.391  0.6238 -1.3365  0.2186
   86CHL1  H19B 8812   5.088   0.938   7.558 -0.4139  2.3581  2.0301
   86CHL1  H19C 8813   4.911   0.963   7.524  0.1522  0.1894  1.3328
   86CHL1    C1 8814   4.901   1.192   7.406  0.4160 -0.4714 -0.2819
   86CHL1   H1A 8815   4.805   1.165   7.455  0.4223  2.5940  1.6865
   86CHL1   H1B 8816   4.900   1.303   7.406  2.0645 -0.4294 -0.9687
   86CHL1    C2 8817   4.903   1.149   7.257 -0.3055  0.3190  0.1917
   86CHL1   H2A 8818   4.816   1.189   7.202  0.3556 -1.9394 -2.7704
   86CHL1   H2B 8819   4.898   1.038   7.248 -2.4565  0.2814  1.2886
   86CHL1   C20 8820   5.009   1.193   8.189  0.5052  0.3616 -0.7700
   86CHL1   H20 8821   5.060   1.096   8.201 -0.0201  0.2189  0.4766
   86CHL1   C21 8822   4.859   1.165   8.179 -0.6244 -0.1289  0.0917
   86CHL1  H21A 8823   4.797   1.250   8.143  1.0471  0.8370 -0.6215
   86CHL1  H21B 8824   4.807   1.150   8.276  0.1945  0.7258  0.6846
   86CHL1  H21C 8825   4.840   1.073   8.120 -0.6140  0.8309 -1.4597
   86CHL1   C22 8826   5.040   1.286   8.306 -0.5402  0.3266 -0.4055
   86CHL1  H22A 8827   5.146   1.319   8.306 -0.0481 -1.1385  0.8721
   86CHL1  H22B 8828   4.986   1.383   8.299 -0.5549  0.2387 -1.8104
   86CHL1   C23 8829   5.015   1.221   8.441 -1.1440 -0.2166 -0.0587
   86CHL1  H23A 8830   4.928   1.152   8.443  0.2533 -2.0645  1.8016
   86CHL1  H23B 8831   5.103   1.157   8.464 -0.9001 -0.0740 -0.5806
   86CHL1   C24 8832   4.999   1.336   8.551  0.0162  0.8895 -0.2640
   86CHL1  H24A 8833   5.098   1.386   8.557  0.1871  0.6343 -0.8411
   86CHL1  H24B 8834   4.931   1.420   8.527  0.0738  0.7744 -0.8649
   86CHL1   C25 8835   4.966   1.270   8.691  0.4127 -0.6217  0.8385
   86CHL1   H25 8836   5.057   1.213   8.719  0.3171 -1.5775 -0.6638
   86CHL1   C26 8837   4.959   1.388   8.794  0.3663  0.3549  0.2389
   86CHL1  H26A 8838   5.016   1.378   8.889  0.2641 -0.6345  0.2152
   86CHL1  H26B 8839   4.993   1.476   8.737 -1.6462 -0.4145 -2.3769
   86CHL1  H26C 8840   4.851   1.401   8.818 -0.3296 -0.1154 -2.3234
   86CHL1   C27 8841   4.846   1.178   8.688  0.6834  0.0163 -0.1418
   86CHL1  H27A 8842   4.831   1.144   8.792  1.1349 -0.3024 -0.1743
   86CHL1  H27B 8843   4.753   1.231   8.661  0.3632 -0.1198  0.6862
   86CHL1  H27C 8844   4.864   1.083   8.633 -1.5190 -2.0061  2.3661
   87CHL1    C3 8845   5.874   3.950   7.170 -0.1925 -0.0989  0.5354
   87CHL1    H3 8846   5.955   3.890   7.216  0.9837  0.0993 -1.1749
   87CHL1    O3 8847   5.905   3.975   7.038  0.8994 -0.2818 -0.6525
   87CHL1   H3' 8848   5.828   3.989   6.984  0.5123  1.9197  0.3394
   87CHL1    C4 8849   5.733   3.897   7.179 -0.1881 -0.3306  0.2771
   87CHL1   H4A 8850   5.668   3.971   7.128  1.2550  0.6181 -0.2735
   87CHL1   H4B 8851   5.718   3.800   7.126  1.8736 -0.5197 -0.0745
   87CHL1    C5 8852   5.683   3.886   7.323  0.7655 -0.3451 -0.1754
   87CHL1    C6 8853   5.620   3.777   7.373  0.0094 -0.4184 -0.3582
   87CHL1    H6 8854   5.613   3.690   7.306  0.3875 -1.4952  0.9393
   87CHL1    C7 8855   5.578   3.757   7.513  0.4233 -0.0666 -0.1075
   87CHL1   H7A 8856   5.475   3.716   7.507 -0.1171  1.4756 -2.7338
   87CHL1   H7B 8857   5.632   3.688   7.581  0.1685  0.3275  0.5137
   87CHL1    C8 8858   5.582   3.893   7.595 -0.2598 -0.3073 -0.2087
   87CHL1    H8 8859   5.494   3.959   7.574  1.2314  2.2915  1.1954
   87CHL1   C14 8860   5.569   3.864   7.750 -0.6665 -0.3140  0.0097
   87CHL1   H14 8861   5.661   3.808   7.776  0.2278  1.0314 -0.1155
   87CHL1   C15 8862   5.452   3.783   7.805  0.3385 -0.5671  0.2141
   87CHL1  H15A 8863   5.368   3.823   7.744  0.8340  0.4667  0.1790
   87CHL1  H15B 8864   5.457   3.672   7.799 -0.8746 -0.5806 -1.1393
   87CHL1   C16 8865   5.438   3.837   7.949  0.7075 -0.0287  0.4962
   87CHL1  H16A 8866   5.335   3.880   7.954  0.7461  0.0678  0.4513
   87CHL1  H16B 8867   5.446   3.760   8.029  1.6180 -0.2777  0.1782
   87CHL1   C17 8868   5.547   3.948   7.972  0.0007  0.2187 -0.6821
   87CHL1   H17 8869   5.642   3.892   7.983 -0.7407 -0.9419 -0.0694
   87CHL1   C13 8870   5.564   3.999   7.827  0.0677  0.8178 -0.4752
   87CHL1   C18 8871   5.446   4.085   7.795  0.1208  0.7601  0.3024
   87CHL1  H18A 8872   5.422   4.166   7.867 -0.6088  0.1591  0.7447
   87CHL1  H18B 8873   5.446   4.123   7.691 -1.4998  0.3718  0.1249
   87CHL1  H18C 8874   5.353   4.024   7.799  0.0168  0.9585  0.9950
   87CHL1   C12 8875   5.694   4.078   7.812 -0.3316 -0.6762 -0.5986
   87CHL1  H12A 8876   5.688   4.177   7.862 -3.8397 -0.1146 -1.8574
   87CHL1  H12B 8877   5.783   4.028   7.856 -1.5082 -0.1127  2.6888
   87CHL1   C11 8878   5.720   4.099   7.661 -0.5407 -0.5244  0.9024
   87CHL1  H11A 8879   5.657   4.182   7.623  1.7992 -0.4359 -3.3592
   87CHL1  H11B 8880   5.826   4.129   7.645 -0.3912 -1.4505  0.0116
   87CHL1    C9 8881   5.709   3.971   7.567  0.4300  0.0673  0.3891
   87CHL1    H9 8882   5.794   3.905   7.595 -0.0054  0.5207  3.0506
   87CHL1   C10 8883   5.719   4.004   7.412  0.4277 -0.0255  0.2121
   87CHL1   C19 8884   5.614   4.116   7.368  0.4328  0.3663 -0.1279
   87CHL1  H19A 8885   5.510   4.080   7.381 -0.7824  3.3974 -0.6784
   87CHL1  H19B 8886   5.611   4.211   7.425 -0.3933 -0.7996  1.9260
   87CHL1  H19C 8887   5.617   4.143   7.261 -1.3355  2.0078  0.1852
   87CHL1    C1 8888   5.859   4.063   7.386  0.5982  0.1496  1.0856
   87CHL1   H1A 8889   5.881   4.156   7.443 -0.0406  0.6074  0.6009
   87CHL1   H1B 8890   5.937   3.995   7.424  0.0034 -2.1392 -1.4910
   87CHL1    C2 8891   5.898   4.081   7.238  0.3503  0.0660 -0.4682
   87CHL1   H2A 8892   6.007   4.104   7.237  0.8229 -1.8876  0.8401
   87CHL1   H2B 8893   5.841   4.162   7.188 -1.5623 -1.5074 -0.9497
   87CHL1   C20 8894   5.550   4.045   8.092 -0.2492  0.7853 -0.2510
   87CHL1   H20 8895   5.609   4.137   8.070  2.0320 -0.3994  0.5994
   87CHL1   C21 8896   5.639   3.977   8.198 -0.2708  0.5184  0.0824
   87CHL1  H21A 8897   5.739   3.969   8.151 -0.2489 -2.0105  0.4115
   87CHL1  H21B 8898   5.601   3.875   8.220 -0.9062  0.6705 -0.2944
   87CHL1  H21C 8899   5.637   4.034   8.294 -1.1295 -2.6303  2.0771
   87CHL1   C22 8900   5.404   4.071   8.151  0.5799 -0.0556  0.8056
   87CHL1  H22A 8901   5.330   4.093   8.072  3.5361  1.5844 -1.7409
   87CHL1  H22B 8902   5.385   3.970   8.194 -1.1563  0.4552  1.3066
   87CHL1   C23 8903   5.395   4.167   8.274 -0.3356  0.2000  0.6688
   87CHL1  H23A 8904   5.487   4.168   8.336 -0.1819 -0.3897  0.4610
   87CHL1  H23B 8905   5.388   4.266   8.226  1.4797 -0.2295 -0.5889
   87CHL1   C24 8906   5.271   4.137   8.363 -0.4635 -0.0679  0.3192
   87CHL1  H24A 8907   5.180   4.124   8.301 -0.8978 -0.7749  1.0817
   87CHL1  H24B 8908   5.273   4.039   8.416  0.6834  0.6364  1.6220
   87CHL1   C25 8909   5.263   4.236   8.478  0.1969 -0.3781  0.8537
   87CHL1   H25 8910   5.275   4.338   8.436  2.7939 -0.9502  0.0388
   87CHL1   C26 8911   5.130   4.239   8.546  0.2755 -0.4218 -0.3524
   87CHL1  H26A 8912   5.120   4.329   8.612  0.8780 -0.7071  0.1425
   87CHL1  H26B 8913   5.043   4.250   8.478  1.5436 -0.1724 -2.0107
   87CHL1  H26C 8914   5.113   4.152   8.613 -0.5284 -0.1495 -0.1945
   87CHL1   C27 8915   5.374   4.223   8.589 -0.1103  0.4977 -0.6087
   87CHL1  H27A 8916   5.358   4.312   8.653 -1.5810 -1.3123  1.7385
   87CHL1  H27B 8917   5.358   4.128   8.645  1.0314  0.0756 -0.9732
   87CHL1  H27C 8918   5.482   4.221   8.564  1.0082 -1.0619  3.5423
   88CHL1    C3 8919   3.756   4.057   7.079  0.1913  0.4311  0.4382
   88CHL1    H3 8920   3.803   3.976   7.139 -1.6094 -0.1482  1.1167
   88CHL1    O3 8921   3.766   4.030   6.940  0.2195  0.1770  0.5433
   88CHL1   H3' 8922   3.700   3.965   6.915  1.1673 -0.9559  0.9282
   88CHL1    C4 8923   3.613   4.065   7.123  0.6959 -0.0237 -0.2185
   88CHL1   H4A 8924   3.570   4.145   7.058 -0.7385  0.1978  0.9603
   88CHL1   H4B 8925   3.569   3.966   7.102 -1.0032  0.7941 -0.6740
   88CHL1    C5 8926   3.589   4.102   7.259  0.6429  0.7341 -0.7078
   88CHL1    C6 8927   3.518   4.018   7.337  0.1809 -0.4117  1.3296
   88CHL1    H6 8928   3.470   3.929   7.293 -0.3431  0.6106 -0.2485
   88CHL1    C7 8929   3.489   4.047   7.482  0.3216 -0.3079 -0.7223
   88CHL1   H7A 8930   3.381   4.036   7.505 -0.1915  2.8728 -1.0875
   88CHL1   H7B 8931   3.545   3.977   7.547  1.5699  2.3609  1.3058
   88CHL1    C8 8932   3.528   4.189   7.523 -0.5095 -0.0899  0.1113
   88CHL1    H8 8933   3.452   4.252   7.472 -0.2336 -0.2686 -0.5302
   88CHL1   C14 8934   3.523   4.201   7.674 -0.3953  0.1084 -0.2602
   88CHL1   H14 8935   3.589   4.119   7.708 -1.3527 -0.6553 -0.2341
   88CHL1   C15 8936   3.388   4.176   7.741  0.0358  0.1141 -0.4449
   88CHL1  H15A 8937   3.311   4.240   7.693 -1.2136  0.6912  2.1814
   88CHL1  H15B 8938   3.356   4.072   7.721 -0.6867  0.2953 -0.2491
   88CHL1   C16 8939   3.419   4.213   7.889 -0.6661  0.5527  0.2527
   88CHL1  H16A 8940   3.338   4.280   7.925  0.9047  2.9104 -0.3693
   88CHL1  H16B 8941   3.427   4.122   7.954  2.3461  0.2862 -0.3145
   88CHL1   C17 8942   3.552   4.295   7.890  0.3743 -0.3222  0.5471
   88CHL1   H17 8943   3.629   4.222   7.922  0.7810 -0.6765 -1.1394
   88CHL1   C13 8944   3.579   4.321   7.739 -0.1637 -0.3995  0.1084
   88CHL1   C18 8945   3.496   4.443   7.696  0.2132  0.7364  0.3635
   88CHL1  H18A 8946   3.549   4.540   7.706  0.4376  1.0665 -2.9477
   88CHL1  H18B 8947   3.474   4.431   7.588  0.0924 -0.8386  0.5367
   88CHL1  H18C 8948   3.399   4.451   7.749 -0.6570 -0.4703 -0.9935
   88CHL1   C12 8949   3.727   4.335   7.686  0.9441  0.3319  0.5563
   88CHL1  H12A 8950   3.765   4.435   7.717  1.1295  0.2357  0.6394
   88CHL1  H12B 8951   3.796   4.257   7.725  1.2636  0.7763  0.8944
   88CHL1   C11 8952   3.730   4.338   7.531  0.0696 -0.6699  0.0185
   88CHL1  H11A 8953   3.686   4.435   7.499 -1.0682 -1.0598  0.3208
   88CHL1  H11B 8954   3.836   4.351   7.502  0.2953  1.2869  1.5029
   88CHL1    C9 8955   3.665   4.219   7.471  0.1504  0.0770  0.3961
   88CHL1    H9 8956   3.729   4.135   7.505  0.9898  1.4585  2.4427
   88CHL1   C10 8957   3.668   4.227   7.318  0.2453  0.3407 -0.0147
   88CHL1   C19 8958   3.597   4.353   7.251 -0.3659 -0.4470 -0.5490
   88CHL1  H19A 8959   3.492   4.355   7.284 -0.0034  0.7961  0.6144
   88CHL1  H19B 8960   3.634   4.451   7.288  0.1824 -0.2447 -1.5763
   88CHL1  H19C 8961   3.608   4.353   7.140  0.8761 -0.4903 -0.4389
   88CHL1    C1 8962   3.812   4.228   7.262  0.4009  0.0553 -0.0357
   88CHL1   H1A 8963   3.854   4.327   7.289  0.5497 -0.1703  0.5822
   88CHL1   H1B 8964   3.866   4.146   7.314  0.5291 -0.0639 -0.3504
   88CHL1    C2 8965   3.838   4.185   7.117  0.0839  0.9584  0.2635
   88CHL1   H2A 8966   3.942   4.160   7.088 -0.3031 -0.8056  0.2816
   88CHL1   H2B 8967   3.795   4.263   7.050 -1.8991  1.5282  2.0987
   88CHL1   C20 8968   3.556   4.415   7.982  0.0238 -0.6910 -0.4128
   88CHL1   H20 8969   3.501   4.505   7.947  1.7782  0.4614 -0.3439
   88CHL1   C21 8970   3.705   4.463   7.988 -0.0873  0.3002  0.0463
   88CHL1  H21A 8971   3.724   4.535   7.906  4.5080  2.5758  2.7050
   88CHL1  H21B 8972   3.776   4.377   7.990  0.7118  0.8258 -2.1745
   88CHL1  H21C 8973   3.715   4.534   8.073 -2.7467 -0.2478  0.9005
   88CHL1   C22 8974   3.498   4.390   8.124 -0.1543 -0.3454  0.5590
   88CHL1  H22A 8975   3.515   4.483   8.182 -1.4384  0.9039 -0.9468
   88CHL1  H22B 8976   3.388   4.384   8.112  0.0952 -0.7290 -2.1138
   88CHL1   C23 8977   3.552   4.266   8.196  0.1392  0.4812  0.4434
   88CHL1  H23A 8978   3.522   4.175   8.139  3.5171 -0.7288  0.3555
   88CHL1  H23B 8979   3.663   4.265   8.186  0.0831  1.6435 -0.5441
   88CHL1   C24 8980   3.530   4.262   8.346  0.1335  0.4968  0.0028
   88CHL1  H24A 8981   3.578   4.352   8.391  1.0520  0.5506 -1.0474
   88CHL1  H24B 8982   3.420   4.270   8.357  0.2141 -0.3679  2.0943
   88CHL1   C25 8983   3.566   4.130   8.415 -0.0372  0.6581 -0.5611
   88CHL1   H25 8984   3.668   4.093   8.390 -0.2651 -1.6233  1.5217
   88CHL1   C26 8985   3.551   4.146   8.565  0.0966 -0.5934 -0.9386
   88CHL1  H26A 8986   3.454   4.177   8.609  0.4416 -2.1438  1.0737
   88CHL1  H26B 8987   3.576   4.048   8.612  1.0651 -0.7707 -1.7619
   88CHL1  H26C 8988   3.625   4.224   8.594 -1.8381  2.8919 -4.5064
   88CHL1   C27 8989   3.468   4.015   8.373  0.0429  0.3058  0.4386
   88CHL1  H27A 8990   3.486   3.983   8.268 -1.6072  1.2973 -0.1895
   88CHL1  H27B 8991   3.483   3.922   8.432 -2.2833 -0.0806  0.5485
   88CHL1  H27C 8992   3.367   4.062   8.375  0.6013  1.6050 -0.4711
   89CHL1    C3 8993   5.822   6.052   7.222  0.3831  0.0198 -0.3162
   89CHL1    H3 8994   5.730   6.112   7.204 -0.7935 -1.9198 -1.1696
   89CHL1    O3 8995   5.881   6.023   7.096  0.3559  0.2267  0.4445
   89CHL1   H3' 8996   5.947   5.956   7.117 -1.3302 -0.7516  3.2292
   89CHL1    C4 8997   5.925   6.106   7.324 -0.1696 -0.7956 -0.6993
   89CHL1   H4A 8998   6.013   6.038   7.327 -0.0172 -0.5849 -0.3276
   89CHL1   H4B 8999   5.970   6.200   7.285 -1.5784 -0.0156 -0.5171
   89CHL1    C5 9000   5.865   6.117   7.463  0.5040  0.4743  0.5676
   89CHL1    C6 9001   5.877   6.225   7.537  0.4125 -0.7579 -0.4005
   89CHL1    H6 9002   5.942   6.304   7.497 -0.2913 -0.5121 -1.1040
   89CHL1    C7 9003   5.828   6.253   7.677  0.9165 -0.0862  0.7181
   89CHL1   H7A 9004   5.910   6.287   7.743  0.1494 -1.0389  2.2173
   89CHL1   H7B 9005   5.740   6.321   7.677 -0.5990 -1.9735  0.0672
   89CHL1    C8 9006   5.783   6.114   7.745 -0.3243 -0.3464  0.0010
   89CHL1    H8 9007   5.869   6.057   7.785 -0.2288  0.8084  1.5001
   89CHL1   C14 9008   5.693   6.135   7.866  1.1481 -0.0003  0.1552
   89CHL1   H14 9009   5.600   6.175   7.820  0.9543  0.7292  1.1500
   89CHL1   C15 9010   5.750   6.221   7.974  0.5183 -0.8176 -0.7750
   89CHL1  H15A 9011   5.860   6.209   7.982  0.8840  1.8681 -0.8196
   89CHL1  H15B 9012   5.739   6.327   7.943  1.5747 -0.6436 -0.6125
   89CHL1   C16 9013   5.658   6.197   8.095 -0.6320 -0.7304  0.2521
   89CHL1  H16A 9014   5.718   6.185   8.188  2.9740 -0.5972 -1.8693
   89CHL1  H16B 9015   5.584   6.279   8.109 -0.2189 -0.0169 -1.5871
   89CHL1   C17 9016   5.576   6.070   8.058 -0.5410  0.4561  0.7118
   89CHL1   H17 9017   5.479   6.114   8.026 -0.4066 -1.1453 -2.2424
   89CHL1   C13 9018   5.651   6.008   7.940 -0.4746 -0.0152  0.5763
   89CHL1   C18 9019   5.777   5.931   7.988 -0.3914  1.0058 -0.6695
   89CHL1  H18A 9020   5.838   5.904   7.899 -0.3202 -0.3431 -0.2264
   89CHL1  H18B 9021   5.837   5.991   8.059  0.3826  0.9063 -1.2195
   89CHL1  H18C 9022   5.744   5.840   8.041 -1.7183  2.0577  0.3772
   89CHL1   C12 9023   5.569   5.921   7.833 -0.3390 -0.6199 -0.6454
   89CHL1  H12A 9024   5.533   5.828   7.883  1.1071 -1.1423 -0.5223
   89CHL1  H12B 9025   5.477   5.978   7.807 -1.0283 -1.6697 -0.5792
   89CHL1   C11 9026   5.647   5.901   7.709  0.0881  0.0250  0.0386
   89CHL1  H11A 9027   5.732   5.831   7.726  1.1599  1.1639 -0.4877
   89CHL1  H11B 9028   5.588   5.850   7.630  0.7148  0.6656 -0.8672
   89CHL1    C9 9029   5.706   6.028   7.650  0.4568  0.4278 -0.0561
   89CHL1    H9 9030   5.610   6.073   7.615 -1.9574 -3.6901  0.5141
   89CHL1   C10 9031   5.794   5.993   7.520 -0.7988 -0.3188  0.3729
   89CHL1   C19 9032   5.913   5.902   7.557  0.1985 -0.1024 -0.2882
   89CHL1  H19A 9033   5.969   5.883   7.463 -1.6028 -0.4237 -1.3500
   89CHL1  H19B 9034   5.970   5.944   7.642 -0.4744  1.5731 -0.6150
   89CHL1  H19C 9035   5.885   5.798   7.585 -0.5311  0.7500  2.4306
   89CHL1    C1 9036   5.701   5.933   7.407  0.2121  0.2456 -0.1246
   89CHL1   H1A 9037   5.659   5.833   7.430  3.6604 -1.5979 -1.0209
   89CHL1   H1B 9038   5.616   6.004   7.407  1.3415  1.6330 -0.3463
   89CHL1    C2 9039   5.773   5.917   7.263  0.1277  0.0305 -0.6007
   89CHL1   H2A 9040   5.695   5.879   7.195  0.6554 -2.3359  0.0194
   89CHL1   H2B 9041   5.860   5.848   7.267 -0.5953 -0.8450  0.8915
   89CHL1   C20 9042   5.540   5.978   8.174  0.3271 -0.3856 -0.1149
   89CHL1   H20 9043   5.638   5.941   8.210  0.7268  2.2203  1.8234
   89CHL1   C21 9044   5.450   5.856   8.140 -0.2807  0.2507 -0.0544
   89CHL1  H21A 9045   5.365   5.889   8.076  1.4707  1.8446 -1.6836
   89CHL1  H21B 9046   5.434   5.805   8.237  2.2862 -0.6386 -0.0363
   89CHL1  H21C 9047   5.516   5.786   8.084  1.2851  0.2607  1.6752
   89CHL1   C22 9048   5.476   6.060   8.290  0.6575  0.0645 -0.0355
   89CHL1  H22A 9049   5.452   5.987   8.370  1.1756 -0.7909 -0.6424
   89CHL1  H22B 9050   5.550   6.132   8.330 -0.4078 -0.5708  3.4155
   89CHL1   C23 9051   5.341   6.135   8.260 -0.5375  0.1041  0.1124
   89CHL1  H23A 9052   5.358   6.221   8.192 -1.3197  0.3050  0.1705
   89CHL1  H23B 9053   5.270   6.058   8.222 -2.2720  2.0544 -0.7622
   89CHL1   C24 9054   5.263   6.194   8.385 -0.2287  0.3160 -0.0200
   89CHL1  H24A 9055   5.163   6.230   8.354 -0.3793  0.7961  0.9967
   89CHL1  H24B 9056   5.254   6.113   8.461 -2.3238  0.3483 -0.1737
   89CHL1   C25 9057   5.331   6.307   8.459  0.0005 -0.4812  0.5155
   89CHL1   H25 9058   5.434   6.267   8.469  0.4217  0.5540  0.4287
   89CHL1   C26 9059   5.353   6.429   8.366  0.1181 -0.2573  0.1376
   89CHL1  H26A 9060   5.420   6.407   8.280  0.6280 -1.9969  0.9481
   89CHL1  H26B 9061   5.252   6.455   8.328  0.2320 -3.2804 -2.7448
   89CHL1  H26C 9062   5.409   6.507   8.422 -0.4589 -0.5151  1.0892
   89CHL1   C27 9063   5.259   6.344   8.589  0.3038 -0.2007  0.0383
   89CHL1  H27A 9064   5.227   6.252   8.642  0.2591 -0.8231 -1.0384
   89CHL1  H27B 9065   5.322   6.408   8.654 -0.8012  0.2764  0.6584
   89CHL1  H27C 9066   5.172   6.401   8.551  1.7024  0.0268 -3.1943
   90CHL1    C3 9067   5.071   1.695   6.997  0.4968 -0.4550 -0.1297
   90CHL1    H3 9068   5.004   1.783   7.013 -1.0601 -1.6195  0.0008
   90CHL1    O3 9069   5.069   1.660   6.859  0.0308 -0.5141  0.3529
   90CHL1   H3' 9070   5.127   1.725   6.818 -1.3797  0.0850 -0.7668
   90CHL1    C4 9071   5.208   1.714   7.047 -0.3072  0.0843 -0.8432
   90CHL1   H4A 9072   5.276   1.629   7.026 -0.5560 -0.5609  0.8272
   90CHL1   H4B 9073   5.254   1.793   6.983  1.3354 -0.4529 -0.3877
   90CHL1    C5 9074   5.223   1.756   7.191  0.3306  0.3299 -0.2387
   90CHL1    C6 9075   5.284   1.869   7.235  0.7256 -0.3711 -0.1405
   90CHL1    H6 9076   5.330   1.941   7.166 -1.8094  1.2037 -0.3281
   90CHL1    C7 9077   5.298   1.908   7.382 -0.7163  0.8933 -0.6801
   90CHL1   H7A 9078   5.405   1.928   7.404 -0.6581  2.1311 -1.9127
   90CHL1   H7B 9079   5.229   1.991   7.409 -2.7699 -1.9948  4.3807
   90CHL1    C8 9080   5.255   1.789   7.479  0.4549  0.0181 -0.9389
   90CHL1    H8 9081   5.338   1.716   7.488 -0.5865 -1.0547  0.4040
   90CHL1   C14 9082   5.227   1.845   7.618  0.6211  0.1557 -0.2419
   90CHL1   H14 9083   5.143   1.916   7.613 -0.2856 -0.6021  2.4925
   90CHL1   C15 9084   5.334   1.940   7.673  0.6324  0.8423  0.2892
   90CHL1  H15A 9085   5.429   1.884   7.659  0.4713  0.7767 -0.5872
   90CHL1  H15B 9086   5.351   2.042   7.635  0.8749  0.4132 -0.7830
   90CHL1   C16 9087   5.294   1.943   7.829 -0.0913 -0.5736 -0.0307
   90CHL1  H16A 9088   5.387   1.937   7.888  0.4326 -1.8629 -0.9394
   90CHL1  H16B 9089   5.244   2.039   7.853 -1.1454 -1.0676 -0.1417
   90CHL1   C17 9090   5.187   1.835   7.852  1.1597 -0.0481 -1.0766
   90CHL1   H17 9091   5.089   1.886   7.861  0.4723 -1.5879  0.8173
   90CHL1   C13 9092   5.186   1.742   7.726 -0.6736 -0.6687  0.5367
   90CHL1   C18 9093   5.298   1.636   7.751 -0.3287  0.0097  0.1443
   90CHL1  H18A 9094   5.321   1.586   7.655  0.2389 -0.2840  0.4313
   90CHL1  H18B 9095   5.392   1.679   7.791  1.2730 -2.5879 -0.6102
   90CHL1  H18C 9096   5.266   1.557   7.823 -1.8325  0.3130 -0.1632
   90CHL1   C12 9097   5.054   1.688   7.680 -0.6851 -0.3899 -0.4792
   90CHL1  H12A 9098   5.022   1.603   7.744 -1.8681  0.9891  0.8346
   90CHL1  H12B 9099   4.970   1.761   7.684 -1.4334 -1.2581  0.1928
   90CHL1   C11 9100   5.066   1.626   7.536 -0.3798  0.0488 -0.5978
   90CHL1  H11A 9101   5.120   1.530   7.548 -2.5677 -1.0521  1.2936
   90CHL1  H11B 9102   4.967   1.588   7.503 -0.2564  1.4211 -2.8249
   90CHL1    C9 9103   5.127   1.726   7.432 -0.7727  0.4809  0.4520
   90CHL1    H9 9104   5.054   1.808   7.422  1.3423  2.2663 -1.6187
   90CHL1   C10 9105   5.150   1.669   7.289  0.4674  0.3866  0.1252
   90CHL1   C19 9106   5.249   1.551   7.300 -0.0007  0.6212  0.5054
   90CHL1  H19A 9107   5.277   1.512   7.200  1.6570  0.3728  1.0304
   90CHL1  H19B 9108   5.351   1.581   7.334  0.1272  0.9944 -0.1986
   90CHL1  H19C 9109   5.199   1.479   7.369  2.4512 -1.0300  0.6765
   90CHL1    C1 9110   5.015   1.614   7.232 -0.3459 -0.2975  0.0706
   90CHL1   H1A 9111   4.978   1.522   7.282 -0.6523  1.2120  2.8220
   90CHL1   H1B 9112   4.934   1.689   7.248  1.1257  1.5580 -0.7345
   90CHL1    C2 9113   5.008   1.586   7.083 -0.1237 -0.1864 -0.2299
   90CHL1   H2A 9114   4.901   1.565   7.060 -0.4762 -0.4485  1.5027
   90CHL1   H2B 9115   5.076   1.504   7.052  3.6427  3.0131 -1.2314
   90CHL1   C20 9116   5.202   1.768   7.986  0.5740 -0.8134  0.7214
   90CHL1   H20 9117   5.290   1.699   7.985  0.8583 -0.4658 -0.6496
   90CHL1   C21 9118   5.078   1.669   7.996 -0.5615  0.1196 -0.4550
   90CHL1  H21A 9119   4.980   1.719   7.983 -0.5745  1.1769  2.7311
   90CHL1  H21B 9120   5.080   1.632   8.101  2.2286  0.5348 -0.2653
   90CHL1  H21C 9121   5.095   1.582   7.929  0.0705 -0.5885  0.5803
   90CHL1   C22 9122   5.205   1.861   8.110 -0.2556 -0.4377  0.2611
   90CHL1  H22A 9123   5.278   1.943   8.089 -0.0976  0.0181  2.4166
   90CHL1  H22B 9124   5.107   1.913   8.115  0.0085  0.6854 -3.3183
   90CHL1   C23 9125   5.226   1.790   8.242  0.7249 -0.1065  0.2262
   90CHL1  H23A 9126   5.143   1.723   8.270 -0.0044  0.8499  0.4086
   90CHL1  H23B 9127   5.315   1.725   8.255 -2.2193 -4.4632  0.5891
   90CHL1   C24 9128   5.239   1.900   8.349 -0.9482  0.2353 -0.0113
   90CHL1  H24A 9129   5.286   1.992   8.309  0.3237 -0.4872 -0.2194
   90CHL1  H24B 9130   5.135   1.918   8.386 -1.1877 -1.5514  0.3004
   90CHL1   C25 9131   5.319   1.841   8.467 -0.2957 -0.3440  0.2238
   90CHL1   H25 9132   5.297   1.733   8.467  2.2690 -0.9426 -0.6002
   90CHL1   C26 9133   5.472   1.858   8.444 -0.2968  0.1281 -0.1706
   90CHL1  H26A 9134   5.498   1.964   8.423 -1.3960  0.8997  2.0792
   90CHL1  H26B 9135   5.519   1.822   8.537 -0.5317  0.7760  0.2062
   90CHL1  H26C 9136   5.506   1.798   8.356  2.5298 -0.5156  1.2714
   90CHL1   C27 9137   5.282   1.917   8.595 -0.3313  0.4704  0.2953
   90CHL1  H27A 9138   5.324   1.870   8.687 -0.1504  3.9711  2.1503
   90CHL1  H27B 9139   5.322   2.020   8.600 -1.7861  1.1166 -0.7291
   90CHL1  H27C 9140   5.173   1.920   8.614  0.0022  0.4623  2.5171
   91CHL1    C3 9141   6.470   4.300   7.104  0.5192 -0.0099 -0.5991
   91CHL1    H3 9142   6.403   4.213   7.118 -0.6501  1.0664  0.8110
   91CHL1    O3 9143   6.498   4.328   6.966 -0.0241 -0.6026 -0.1692
   91CHL1   H3' 9144   6.526   4.244   6.930 -0.9458 -1.1300  0.2993
   91CHL1    C4 9145   6.408   4.427   7.164 -0.2374 -0.6058 -0.0621
   91CHL1   H4A 9146   6.464   4.518   7.136  0.1807 -0.3045  1.6636
   91CHL1   H4B 9147   6.308   4.438   7.117  0.0426  0.6434 -0.3901
   91CHL1    C5 9148   6.400   4.396   7.312  0.1371 -0.1284  0.2634
   91CHL1    C6 9149   6.276   4.401   7.377 -0.2201 -0.6944  0.8256
   91CHL1    H6 9150   6.188   4.425   7.315  0.7396  1.6060  0.2570
   91CHL1    C7 9151   6.262   4.372   7.521  0.9059 -0.0931 -0.2381
   91CHL1   H7A 9152   6.190   4.444   7.565  0.0086 -0.6827 -0.7130
   91CHL1   H7B 9153   6.221   4.269   7.523 -1.4518  0.7871  0.6633
   91CHL1    C8 9154   6.394   4.388   7.601 -0.0602 -0.2298 -0.0665
   91CHL1    H8 9155   6.425   4.495   7.605  0.7842 -0.3957 -1.4775
   91CHL1   C14 9156   6.375   4.344   7.750 -0.5908  0.0634 -0.6721
   91CHL1   H14 9157   6.330   4.243   7.737 -0.1110 -0.1462 -0.7101
   91CHL1   C15 9158   6.256   4.405   7.835  0.4465  0.5702  0.7989
   91CHL1  H15A 9159   6.255   4.515   7.823 -0.3691  0.5518  0.5836
   91CHL1  H15B 9160   6.154   4.362   7.819 -0.8168  2.7536  2.4415
   91CHL1   C16 9161   6.303   4.361   7.974  0.4949 -0.5621  0.5332
   91CHL1  H16A 9162   6.318   4.449   8.041  0.5670  0.1907 -0.4464
   91CHL1  H16B 9163   6.223   4.301   8.023 -1.2246  0.2624 -1.1357
   91CHL1   C17 9164   6.433   4.275   7.967 -0.7944  0.0588 -0.5088
   91CHL1   H17 9165   6.407   4.169   7.946  4.4844 -1.2729 -1.9623
   91CHL1   C13 9166   6.503   4.330   7.836 -0.1493 -0.8089 -0.7220
   91CHL1   C18 9167   6.564   4.476   7.858  0.0966  0.0902 -0.5096
   91CHL1  H18A 9168   6.589   4.519   7.759  0.2390 -0.0528 -0.5370
   91CHL1  H18B 9169   6.487   4.541   7.904 -1.4399  0.3031 -3.1503
   91CHL1  H18C 9170   6.654   4.477   7.922 -0.1949 -0.2702 -0.0859
   91CHL1   C12 9171   6.603   4.241   7.768 -0.2705  0.5770 -0.5778
   91CHL1  H12A 9172   6.698   4.251   7.826 -0.5675  0.0006  0.0212
   91CHL1  H12B 9173   6.567   4.136   7.768 -0.2864  0.5830 -0.9549
   91CHL1   C11 9174   6.625   4.284   7.623 -0.1702 -0.1836  0.4839
   91CHL1  H11A 9175   6.685   4.377   7.635  1.6998 -1.4966  2.0119
   91CHL1  H11B 9176   6.699   4.223   7.565  0.4163  1.2424 -0.3123
   91CHL1    C9 9177   6.501   4.302   7.532  0.3393  0.0507 -0.8819
   91CHL1    H9 9178   6.455   4.201   7.526  0.5927 -0.0447 -1.2151
   91CHL1   C10 9179   6.533   4.355   7.387  0.9280 -0.1550  0.4914
   91CHL1   C19 9180   6.622   4.484   7.400  0.4253  0.2102 -0.8778
   91CHL1  H19A 9181   6.619   4.532   7.300  4.1318  0.6103 -0.9358
   91CHL1  H19B 9182   6.584   4.555   7.477 -1.3713 -0.0337 -1.4834
   91CHL1  H19C 9183   6.728   4.454   7.413  0.7297  1.2377 -0.9584
   91CHL1    C1 9184   6.594   4.243   7.310 -0.6173  0.3093 -0.4524
   91CHL1   H1A 9185   6.696   4.219   7.345  0.0669  1.9836 -1.1682
   91CHL1   H1B 9186   6.539   4.147   7.318  0.8961 -0.6871 -1.4248
   91CHL1    C2 9187   6.607   4.265   7.162  0.7609  0.3184 -0.2801
   91CHL1   H2A 9188   6.647   4.172   7.117  1.0647 -0.1955  1.0104
   91CHL1   H2B 9189   6.677   4.348   7.137 -0.5727  2.1425  1.6588
   91CHL1   C20 9190   6.515   4.271   8.096 -0.2874  0.2959  0.1128
   91CHL1   H20 9191   6.559   4.372   8.114 -1.2725  0.6100  0.9038
   91CHL1   C21 9192   6.630   4.172   8.087 -0.7473 -0.5238 -0.4516
   91CHL1  H21A 9193   6.714   4.215   8.029 -1.2968  2.3969  0.7820
   91CHL1  H21B 9194   6.608   4.078   8.032 -1.7948  0.0603 -1.0647
   91CHL1  H21C 9195   6.685   4.167   8.183  2.2107  2.8044 -1.7681
   91CHL1   C22 9196   6.422   4.245   8.214  0.1301  0.0842 -0.3814
   91CHL1  H22A 9197   6.320   4.287   8.213 -0.3136 -0.9748 -0.8636
   91CHL1  H22B 9198   6.401   4.136   8.225  1.8194 -0.1815  0.7185
   91CHL1   C23 9199   6.488   4.278   8.344 -0.0932  0.0705 -0.6030
   91CHL1  H23A 9200   6.578   4.217   8.365 -0.7197 -0.1246  1.8092
   91CHL1  H23B 9201   6.523   4.382   8.359  0.4446 -0.2372  0.3453
   91CHL1   C24 9202   6.398   4.235   8.470  0.5581 -0.2121  0.2812
   91CHL1  H24A 9203   6.311   4.304   8.464  0.2879 -0.5774 -0.0249
   91CHL1  H24B 9204   6.361   4.130   8.476 -2.0509  0.6735  1.0299
   91CHL1   C25 9205   6.467   4.267   8.607 -0.0050  0.3630  0.2898
   91CHL1   H25 9206   6.498   4.374   8.605  0.2003  0.3017 -0.0378
   91CHL1   C26 9207   6.378   4.256   8.731  1.0785  0.0659  0.2509
   91CHL1  H26A 9208   6.335   4.157   8.756  0.2513  0.5075  0.6394
   91CHL1  H26B 9209   6.425   4.299   8.822  0.0598  0.7957  0.4450
   91CHL1  H26C 9210   6.292   4.324   8.716  0.9357 -0.0941  0.3436
   91CHL1   C27 9211   6.591   4.183   8.617 -0.0552 -0.2852  0.0916
   91CHL1  H27A 9212   6.626   4.196   8.722  0.4265 -0.4474 -0.0452
   91CHL1  H27B 9213   6.559   4.076   8.611  0.1605 -0.4421  1.3851
   91CHL1  H27C 9214   6.672   4.200   8.544 -0.5529 -0.2970 -0.4666
   92CHL1    C3 9215   3.345   5.632   6.870 -0.1303  0.2334  0.3172
   92CHL1    H3 9216   3.430   5.680   6.924  0.2202  0.2640 -0.2575
   92CHL1    O3 9217   3.359   5.650   6.735  0.1378 -0.3110  0.3751
   92CHL1   H3' 9218   3.353   5.558   6.709  0.3577  0.2291 -1.8520
   92CHL1    C4 9219   3.375   5.479   6.902  0.3168 -0.9731  0.1902
   92CHL1   H4A 9220   3.321   5.408   6.835 -0.0526 -0.8321  0.3381
   92CHL1   H4B 9221   3.483   5.467   6.878  0.7078 -0.8391  1.7909
   92CHL1    C5 9222   3.360   5.445   7.046 -0.4758 -0.6706 -0.4617
   92CHL1    C6 9223   3.462   5.394   7.113 -0.0979  0.1845 -0.4132
   92CHL1    H6 9224   3.554   5.361   7.062  0.1334 -0.2211  0.2431
   92CHL1    C7 9225   3.457   5.371   7.263 -0.1994 -0.1653 -0.2400
   92CHL1   H7A 9226   3.504   5.272   7.275 -1.4581 -0.8588 -0.8123
   92CHL1   H7B 9227   3.525   5.443   7.314 -0.2811 -1.0233  1.1241
   92CHL1    C8 9228   3.313   5.356   7.317  0.0236  0.5635  0.0821
   92CHL1    H8 9229   3.278   5.265   7.263 -1.6674  0.0953  1.8429
   92CHL1   C14 9230   3.318   5.340   7.460  0.0645 -0.3225 -0.1763
   92CHL1   H14 9231   3.366   5.431   7.503 -1.7292  0.7695 -0.4044
   92CHL1   C15 9232   3.396   5.225   7.515  0.2989 -1.4883  0.0491
   92CHL1  H15A 9233   3.374   5.133   7.457  2.1101 -1.7250 -0.3397
   92CHL1  H15B 9234   3.505   5.246   7.518  0.0229 -0.0187  0.8761
   92CHL1   C16 9235   3.337   5.209   7.658  0.1928 -0.7179  0.3539
   92CHL1  H16A 9236   3.297   5.105   7.656  0.8383 -0.9825  0.6729
   92CHL1  H16B 9237   3.414   5.235   7.734  0.4377 -1.3545  0.3334
   92CHL1   C17 9238   3.223   5.308   7.672  0.1246 -0.0905 -0.2453
   92CHL1   H17 9239   3.270   5.401   7.710 -0.8850  0.2464  0.2142
   92CHL1   C13 9240   3.181   5.341   7.526  0.2928 -0.1154  0.2396
   92CHL1   C18 9241   3.092   5.225   7.466  0.3421  0.0325 -0.5079
   92CHL1  H18A 9242   3.000   5.223   7.529  1.1755  0.9738  0.7971
   92CHL1  H18B 9243   3.084   5.243   7.357  2.5951 -0.6249 -0.8199
   92CHL1  H18C 9244   3.151   5.131   7.465  1.7090  0.8826 -0.8219
   92CHL1   C12 9245   3.114   5.479   7.494  0.0489 -0.5167 -0.6865
   92CHL1  H12A 9246   3.008   5.487   7.527  0.3844 -1.4309  0.6866
   92CHL1  H12B 9247   3.181   5.554   7.541 -0.4837 -0.3816 -0.1398
   92CHL1   C11 9248   3.102   5.502   7.345 -0.2699  0.1255 -0.1465
   92CHL1  H11A 9249   3.024   5.431   7.309 -0.7938  1.6044 -2.1069
   92CHL1  H11B 9250   3.060   5.604   7.335  1.3478  0.8142 -0.1884
   92CHL1    C9 9251   3.238   5.482   7.268 -0.1191 -0.0499  0.1878
   92CHL1    H9 9252   3.294   5.570   7.307 -2.0859  0.6176  1.7101
   92CHL1   C10 9253   3.231   5.487   7.117 -0.3389  0.4861  0.1043
   92CHL1   C19 9254   3.130   5.381   7.062 -0.3025 -0.2808  0.8222
   92CHL1  H19A 9255   3.030   5.404   7.104 -0.9760 -0.2928 -0.6993
   92CHL1  H19B 9256   3.119   5.379   6.951  0.6733 -3.6566  0.6997
   92CHL1  H19C 9257   3.165   5.277   7.077  4.5043  0.5853 -2.0430
   92CHL1    C1 9258   3.192   5.629   7.068  0.0135 -0.3677  0.2424
   92CHL1   H1A 9259   3.088   5.640   7.106  0.3866  1.9819  0.7229
   92CHL1   H1B 9260   3.262   5.701   7.115  1.5866 -1.7742  0.1252
   92CHL1    C2 9261   3.195   5.658   6.918  0.3560 -0.8302 -0.4800
   92CHL1   H2A 9262   3.174   5.765   6.900 -0.3895 -0.6086  1.4571
   92CHL1   H2B 9263   3.125   5.591   6.863 -0.7968 -0.4813  0.5160
   92CHL1   C20 9264   3.111   5.263   7.767 -0.2521 -0.4852  1.0826
   92CHL1   H20 9265   3.058   5.175   7.726 -1.8069  0.8211  0.1468
   92CHL1   C21 9266   3.009   5.370   7.790 -0.1075  0.2007  0.2969
   92CHL1  H21A 9267   2.940   5.339   7.871  1.2158 -1.1145  0.9683
   92CHL1  H21B 9268   2.952   5.407   7.702  0.7734  1.7115  0.3140
   92CHL1  H21C 9269   3.049   5.464   7.832  0.7064 -0.1936  0.4286
   92CHL1   C22 9270   3.178   5.206   7.906 -0.1596  0.0532  0.5339
   92CHL1  H22A 9271   3.099   5.177   7.979  0.2346  0.3556  1.0844
   92CHL1  H22B 9272   3.235   5.115   7.881 -0.8914 -0.2975  0.0929
   92CHL1   C23 9273   3.268   5.313   7.969 -0.2522 -0.4212 -0.2927
   92CHL1  H23A 9274   3.340   5.364   7.901 -0.2248 -1.2172 -0.8734
   92CHL1  H23B 9275   3.197   5.394   7.998 -2.1699 -1.9883 -0.3675
   92CHL1   C24 9276   3.340   5.262   8.091 -0.6018  0.4355  0.2367
   92CHL1  H24A 9277   3.262   5.219   8.158  0.1307 -0.3354  0.6151
   92CHL1  H24B 9278   3.404   5.177   8.060  0.6975  1.9403 -1.3767
   92CHL1   C25 9279   3.418   5.375   8.159  0.3423  0.1525 -0.4037
   92CHL1   H25 9280   3.352   5.461   8.182 -1.6568 -1.0544 -1.2686
   92CHL1   C26 9281   3.476   5.319   8.286  0.1427  0.2312 -0.5161
   92CHL1  H26A 9282   3.546   5.237   8.263 -1.6783 -1.5887  0.1295
   92CHL1  H26B 9283   3.527   5.392   8.352  2.5698 -1.8485  0.0591
   92CHL1  H26C 9284   3.391   5.268   8.337 -2.4071  4.6107  0.1589
   92CHL1   C27 9285   3.524   5.432   8.071 -0.0693  0.0548  1.0966
   92CHL1  H27A 9286   3.594   5.504   8.118  0.0592 -0.1113  1.1624
   92CHL1  H27B 9287   3.595   5.354   8.037  1.6049  1.2667  1.6931
   92CHL1  H27C 9288   3.482   5.491   7.987  1.6305 -1.1270 -0.6718
   93CHL1    C3 9289   0.287   4.404   6.917 -0.0091 -1.2725  0.3174
   93CHL1    H3 9290   0.239   4.502   6.937 -0.0389 -1.1898 -0.1327
   93CHL1    O3 9291   0.313   4.386   6.778  0.1290  0.0526  0.0937
   93CHL1   H3' 9292   0.383   4.322   6.766  0.8989  1.0266 -0.7266
   93CHL1    C4 9293   0.416   4.421   7.001 -0.2683 -0.1891 -0.1721
   93CHL1   H4A 9294   0.493   4.345   6.976 -0.1657 -0.2129  0.2065
   93CHL1   H4B 9295   0.459   4.517   6.966 -1.3732  0.1688 -0.5886
   93CHL1    C5 9296   0.395   4.416   7.145  0.5803 -0.1016 -0.4741
   93CHL1    C6 9297   0.440   4.516   7.225 -0.4515  0.1227 -0.4129
   93CHL1    H6 9298   0.491   4.604   7.185  2.7110 -0.1047  2.6614
   93CHL1    C7 9299   0.424   4.508   7.375  0.0220  0.1043 -0.3416
   93CHL1   H7A 9300   0.507   4.552   7.433  1.6753 -1.7039 -1.2237
   93CHL1   H7B 9301   0.333   4.568   7.399  0.5448 -0.1664  2.5817
   93CHL1    C8 9302   0.394   4.369   7.429 -0.1530  0.5358  0.5975
   93CHL1    H8 9303   0.484   4.309   7.404  0.0839  1.0598  0.1608
   93CHL1   C14 9304   0.364   4.360   7.579 -0.1080  1.3628  0.2727
   93CHL1   H14 9305   0.283   4.432   7.603 -0.7273  1.1398 -1.0206
   93CHL1   C15 9306   0.473   4.403   7.683 -0.3010  0.2734  0.1497
   93CHL1  H15A 9307   0.565   4.357   7.642  1.7376  2.3215  2.0946
   93CHL1  H15B 9308   0.482   4.514   7.675  0.4817  0.2096  0.1474
   93CHL1   C16 9309   0.419   4.345   7.814 -0.5648 -0.3494 -1.4081
   93CHL1  H16A 9310   0.503   4.300   7.870 -1.5865 -1.2115 -0.5149
   93CHL1  H16B 9311   0.369   4.425   7.873  2.9394 -0.4869  2.1270
   93CHL1   C17 9312   0.306   4.242   7.782 -0.8465  0.8579 -0.2003
   93CHL1   H17 9313   0.215   4.305   7.770 -1.7125 -0.7907 -3.3545
   93CHL1   C13 9314   0.327   4.223   7.629 -0.0779  0.7278 -0.0829
   93CHL1   C18 9315   0.441   4.123   7.601 -0.1851 -0.0811  0.0075
   93CHL1  H18A 9316   0.405   4.025   7.639 -0.1689  0.8947  2.7343
   93CHL1  H18B 9317   0.465   4.127   7.493  0.1883  0.9582  0.1210
   93CHL1  H18C 9318   0.531   4.153   7.659  0.4838 -2.2194  0.1565
   93CHL1   C12 9319   0.200   4.177   7.564 -0.1229  0.8622 -0.6020
   93CHL1  H12A 9320   0.170   4.077   7.603  1.8992  1.6351  3.4343
   93CHL1  H12B 9321   0.124   4.255   7.589 -0.6782  0.6261 -1.5016
   93CHL1   C11 9322   0.208   4.179   7.405  0.5195 -0.2463 -0.0727
   93CHL1  H11A 9323   0.262   4.085   7.381  0.8473  0.2713 -1.4773
   93CHL1  H11B 9324   0.102   4.176   7.373 -0.1262  1.5925  1.6683
   93CHL1    C9 9325   0.281   4.311   7.349  0.5336  0.6524 -0.4605
   93CHL1    H9 9326   0.203   4.390   7.348  0.8880  1.1079  1.7405
   93CHL1   C10 9327   0.311   4.299   7.198  0.0750  0.7739 -0.0136
   93CHL1   C19 9328   0.404   4.166   7.174 -0.0353 -0.0572 -0.5255
   93CHL1  H19A 9329   0.453   4.155   7.075  0.9425  0.5472 -0.1245
   93CHL1  H19B 9330   0.486   4.168   7.249 -0.5744  2.1547  0.0496
   93CHL1  H19C 9331   0.341   4.077   7.196  0.3981  0.1112  1.5626
   93CHL1    C1 9332   0.179   4.284   7.118  0.8698  0.3715 -0.1507
   93CHL1   H1A 9333   0.134   4.186   7.146  1.1314  0.6843  1.4113
   93CHL1   H1B 9334   0.110   4.369   7.135 -1.1409 -1.6846  2.9410
   93CHL1    C2 9335   0.200   4.281   6.961 -0.2866  0.5132 -0.1815
   93CHL1   H2A 9336   0.104   4.277   6.905 -1.8671 -2.0302  2.4661
   93CHL1   H2B 9337   0.255   4.187   6.939 -0.0953 -0.2821  3.1826
   93CHL1   C20 9338   0.281   4.122   7.867 -0.0390  0.2201  0.4816
   93CHL1   H20 9339   0.244   4.039   7.804  2.0434 -1.1190  0.9436
   93CHL1   C21 9340   0.173   4.160   7.966  0.2206 -0.2917 -0.3135
   93CHL1  H21A 9341   0.076   4.172   7.913  0.1204 -2.1002 -0.5975
   93CHL1  H21B 9342   0.209   4.254   8.013 -0.4791 -0.3136  0.2947
   93CHL1  H21C 9343   0.160   4.088   8.050 -0.5410  0.9026  0.6273
   93CHL1   C22 9344   0.410   4.062   7.942 -0.0183 -0.4321  0.2885
   93CHL1  H22A 9345   0.491   4.059   7.865 -1.9757 -0.5415 -1.8629
   93CHL1  H22B 9346   0.449   4.140   8.010 -0.7699  2.2330 -2.1459
   93CHL1   C23 9347   0.397   3.929   8.016  0.3839 -0.0062 -0.1427
   93CHL1  H23A 9348   0.335   3.948   8.107  0.1574  0.0571 -0.3112
   93CHL1  H23B 9349   0.359   3.862   7.937 -2.5004  3.2952 -1.8522
   93CHL1   C24 9350   0.542   3.905   8.074  0.3190  0.1670  0.5483
   93CHL1  H24A 9351   0.601   3.858   7.992  1.2394 -0.6871  1.6781
   93CHL1  H24B 9352   0.584   4.004   8.102  2.2135 -1.0816  2.4258
   93CHL1   C25 9353   0.539   3.798   8.188 -0.6325  0.0318 -0.5101
   93CHL1   H25 9354   0.485   3.847   8.272 -0.3054 -1.4850  0.6416
   93CHL1   C26 9355   0.454   3.671   8.155  0.0434 -0.0821 -0.1241
   93CHL1  H26A 9356   0.497   3.611   8.072  0.4426 -1.1809  0.8598
   93CHL1  H26B 9357   0.443   3.619   8.252 -1.9332 -1.2580 -0.8975
   93CHL1  H26C 9358   0.350   3.702   8.132  0.0162  2.4073  2.7466
   93CHL1   C27 9359   0.677   3.771   8.250 -0.7539 -0.4895 -0.3190
   93CHL1  H27A 9360   0.742   3.708   8.186  0.9160  1.5086 -0.7071
   93CHL1  H27B 9361   0.744   3.859   8.258 -0.2863 -0.9802  1.7569
   93CHL1  H27C 9362   0.679   3.725   8.351  0.1109  0.8268  0.2860
   94CHL1    C3 9363   4.043   6.244   6.944 -0.1551  0.3046  0.2750
   94CHL1    H3 9364   4.148   6.209   6.952 -0.6357 -1.0909  0.6993
   94CHL1    O3 9365   4.017   6.247   6.802  0.4046  0.1628  0.1405
   94CHL1   H3' 9366   3.938   6.194   6.793  2.1271 -2.6095  0.4447
   94CHL1    C4 9367   3.955   6.135   7.010  0.0165 -0.3575 -0.6302
   94CHL1   H4A 9368   3.846   6.146   6.993 -0.4706 -1.6682  1.3152
   94CHL1   H4B 9369   3.994   6.043   6.961  1.4398 -0.2567  0.2520
   94CHL1    C5 9370   3.980   6.128   7.163 -0.0038  0.6290  0.2767
   94CHL1    C6 9371   4.013   6.021   7.233  0.2147 -0.0133  0.3507
   94CHL1    H6 9372   4.021   5.927   7.176 -0.2115  1.1718 -1.7971
   94CHL1    C7 9373   4.038   6.019   7.383  0.5988 -0.1651  0.5384
   94CHL1   H7A 9374   3.991   5.923   7.413  1.0135 -0.4184  0.3865
   94CHL1   H7B 9375   4.147   6.003   7.400  0.6364 -0.3501  0.1445
   94CHL1    C8 9376   3.984   6.136   7.460  0.6185 -0.1402 -0.8892
   94CHL1    H8 9377   3.873   6.135   7.460  0.6031  0.6637 -0.7879
   94CHL1   C14 9378   4.035   6.148   7.596 -0.0253  0.5299 -0.2075
   94CHL1   H14 9379   4.145   6.164   7.593  0.3250 -1.7053 -1.2133
   94CHL1   C15 9380   4.012   6.021   7.687 -0.2636  0.7754  1.2211
   94CHL1  H15A 9381   3.903   5.997   7.687 -0.0188 -0.4883 -0.0821
   94CHL1  H15B 9382   4.068   5.928   7.663 -0.9904  0.8768 -1.2167
   94CHL1   C16 9383   4.036   6.074   7.831  0.1205  0.4026  0.2075
   94CHL1  H16A 9384   3.954   6.048   7.901  0.7930  1.2929  1.3701
   94CHL1  H16B 9385   4.134   6.044   7.875 -0.6256 -1.2425  0.8189
   94CHL1   C17 9386   4.042   6.233   7.813 -0.1518 -0.4734 -0.0498
   94CHL1   H17 9387   4.151   6.256   7.817  0.4340 -2.9927  0.4501
   94CHL1   C13 9388   3.976   6.267   7.670 -0.6311 -0.4477  0.2690
   94CHL1   C18 9389   3.822   6.262   7.686  0.0683  0.0507  0.8798
   94CHL1  H18A 9390   3.794   6.363   7.723 -3.0792  0.2702 -1.5844
   94CHL1  H18B 9391   3.772   6.252   7.587 -0.4417  0.9332  1.0406
   94CHL1  H18C 9392   3.780   6.190   7.759  1.1808 -1.4887  0.0630
   94CHL1   C12 9393   4.023   6.401   7.609 -0.3381 -0.4272  0.0280
   94CHL1  H12A 9394   4.004   6.498   7.659 -0.5331 -0.4932  0.0799
   94CHL1  H12B 9395   4.133   6.401   7.590 -0.2854  2.2085  0.0417
   94CHL1   C11 9396   3.970   6.406   7.459 -0.8342  0.8249 -0.5526
   94CHL1  H11A 9397   3.859   6.400   7.455 -1.0002  1.8306  1.4720
   94CHL1  H11B 9398   4.003   6.493   7.396 -2.3204  1.8211 -0.0022
   94CHL1    C9 9399   4.015   6.272   7.381 -0.4099  0.0417 -0.4940
   94CHL1    H9 9400   4.126   6.274   7.375 -0.2712  0.4113  1.4667
   94CHL1   C10 9401   3.969   6.264   7.235 -0.3317 -0.6432  0.3552
   94CHL1   C19 9402   3.812   6.300   7.236 -0.1528  0.3573 -0.1907
   94CHL1  H19A 9403   3.759   6.244   7.315 -0.8140  1.5044  0.1948
   94CHL1  H19B 9404   3.788   6.404   7.265  0.8475  0.4838  0.2000
   94CHL1  H19C 9405   3.769   6.267   7.139 -1.0385 -0.5112  0.4755
   94CHL1    C1 9406   4.044   6.377   7.156 -0.3440  0.1799  0.1531
   94CHL1   H1A 9407   4.017   6.475   7.202 -1.6973 -0.3065  0.4478
   94CHL1   H1B 9408   4.153   6.366   7.177 -0.5170 -3.2783 -0.2574
   94CHL1    C2 9409   4.024   6.383   7.004 -0.1287  0.2347 -0.5669
   94CHL1   H2A 9410   4.099   6.449   6.954  1.9154 -0.2154  1.7064
   94CHL1   H2B 9411   3.925   6.428   6.981  0.8935  1.6200 -2.6253
   94CHL1   C20 9412   3.990   6.311   7.936  0.0478  0.4388 -0.6391
   94CHL1   H20 9413   3.885   6.276   7.944  0.9531 -2.3549  0.1118
   94CHL1   C21 9414   4.003   6.462   7.916 -0.0093 -0.2429 -0.0142
   94CHL1  H21A 9415   4.097   6.488   7.863 -1.2033  1.5529 -1.3536
   94CHL1  H21B 9416   4.006   6.517   8.013  1.6301 -1.2762  0.5653
   94CHL1  H21C 9417   3.910   6.501   7.870 -0.8984 -1.8061  0.4017
   94CHL1   C22 9418   4.060   6.269   8.072 -0.0604 -0.3437 -0.0384
   94CHL1  H22A 9419   4.081   6.160   8.077 -1.0381 -0.5861 -0.8205
   94CHL1  H22B 9420   4.160   6.317   8.082 -1.0595  1.5842  1.3960
   94CHL1   C23 9421   3.976   6.315   8.204 -0.6511  0.1742 -0.2525
   94CHL1  H23A 9422   4.035   6.301   8.297 -0.1393 -0.7417 -0.7042
   94CHL1  H23B 9423   3.967   6.426   8.198  1.6664  0.3381 -1.7420
   94CHL1   C24 9424   3.840   6.251   8.221  0.1362  0.2180  0.9230
   94CHL1  H24A 9425   3.770   6.316   8.277  1.6947  1.5568  1.3778
   94CHL1  H24B 9426   3.801   6.230   8.119 -1.8006  0.8902  1.4995
   94CHL1   C25 9427   3.842   6.116   8.287  0.7579 -0.7737  0.6211
   94CHL1   H25 9428   3.920   6.048   8.247  0.0109 -0.2567 -1.8802
   94CHL1   C26 9429   3.874   6.135   8.442  0.0043  0.8301 -0.1165
   94CHL1  H26A 9430   3.976   6.176   8.459  0.9761 -1.2539 -0.6400
   94CHL1  H26B 9431   3.790   6.197   8.480  0.3193 -0.8350  3.7769
   94CHL1  H26C 9432   3.864   6.045   8.507 -0.9103  2.5781  2.3132
   94CHL1   C27 9433   3.708   6.041   8.252 -0.0117  0.0749 -0.2133
   94CHL1  H27A 9434   3.700   5.999   8.150 -2.2110 -1.6926  0.5981
   94CHL1  H27B 9435   3.684   5.953   8.316 -1.1839  1.2390  1.0023
   94CHL1  H27C 9436   3.626   6.115   8.266 -0.5952 -0.7138  0.6975
   95CHL1    C3 9437   4.012   5.181   6.801  0.4556 -0.4333  0.3991
   95CHL1    H3 9438   3.908   5.142   6.800 -0.3736  1.6076  1.5160
   95CHL1    O3 9439   4.052   5.193   6.666 -0.2623 -0.1761 -0.0267
   95CHL1   H3' 9440   4.002   5.118   6.633  1.6115 -2.1059  1.1967
   95CHL1    C4 9441   4.008   5.318   6.869  0.6357 -0.2452  0.6119
   95CHL1   H4A 9442   4.100   5.377   6.846  0.1474  0.4094  0.2971
   95CHL1   H4B 9443   3.934   5.377   6.811  2.5730  0.6855 -1.0437
   95CHL1    C5 9444   3.975   5.312   7.015 -0.1526 -0.1358 -0.4075
   95CHL1    C6 9445   3.862   5.374   7.070 -0.3498 -0.2292  0.0212
   95CHL1    H6 9446   3.794   5.431   7.005  0.7100 -0.7196 -1.5783
   95CHL1    C7 9447   3.828   5.375   7.218  0.3971 -0.5905 -0.7531
   95CHL1   H7A 9448   3.771   5.468   7.237 -0.8213 -1.0794 -1.8482
   95CHL1   H7B 9449   3.745   5.303   7.238  1.1685 -0.7823  2.1615
   95CHL1    C8 9450   3.946   5.336   7.314 -0.2599  0.7944  0.3141
   95CHL1    H8 9451   4.019   5.421   7.314  1.4237 -0.4776 -3.1009
   95CHL1   C14 9452   3.899   5.309   7.456  0.1945 -0.2033  0.2388
   95CHL1   H14 9453   3.831   5.223   7.438  2.7290 -1.8690 -2.1274
   95CHL1   C15 9454   3.825   5.417   7.535  0.7296 -0.2751  0.1781
   95CHL1  H15A 9455   3.865   5.521   7.532  0.6236 -0.2480 -0.6019
   95CHL1  H15B 9456   3.718   5.420   7.504  0.7234 -0.4525  0.1821
   95CHL1   C16 9457   3.824   5.362   7.682 -0.0849  0.8419 -0.5993
   95CHL1  H16A 9458   3.869   5.436   7.752  1.1274 -1.0615  0.7205
   95CHL1  H16B 9459   3.726   5.338   7.728  0.0204 -0.2748 -0.9375
   95CHL1   C17 9460   3.908   5.232   7.676  0.0391  0.4377  0.3433
   95CHL1   H17 9461   3.846   5.141   7.665  0.3889  0.2070  0.2720
   95CHL1   C13 9462   4.002   5.252   7.553  0.4062 -0.1928  0.5611
   95CHL1   C18 9463   4.124   5.353   7.574 -0.6988 -0.1476  0.0226
   95CHL1  H18A 9464   4.091   5.449   7.618 -0.2563 -0.2647  0.6216
   95CHL1  H18B 9465   4.199   5.313   7.646 -0.5842 -0.7315 -0.4167
   95CHL1  H18C 9466   4.170   5.368   7.474  1.3119  0.0146  0.9218
   95CHL1   C12 9467   4.056   5.122   7.501  0.5573  0.2551  0.1670
   95CHL1  H12A 9468   4.144   5.089   7.561  1.0689 -0.6508 -1.0418
   95CHL1  H12B 9469   3.983   5.039   7.496  3.0217 -1.9961 -2.9207
   95CHL1   C11 9470   4.108   5.145   7.357 -0.3219  0.7425 -0.2608
   95CHL1  H11A 9471   4.203   5.202   7.362  0.3076  0.0335 -2.6493
   95CHL1  H11B 9472   4.139   5.046   7.315  0.0546  1.3986 -1.5852
   95CHL1    C9 9473   4.008   5.210   7.258  0.4086  0.6985 -0.1698
   95CHL1    H9 9474   3.921   5.143   7.245  0.2966  0.8901 -0.4091
   95CHL1   C10 9475   4.066   5.234   7.116 -0.5893  0.0171  0.2384
   95CHL1   C19 9476   4.206   5.284   7.123 -0.5072  0.4698  0.6073
   95CHL1  H19A 9477   4.221   5.353   7.209  1.5162 -0.1323  0.7829
   95CHL1  H19B 9478   4.267   5.196   7.152  0.4782  0.2434 -1.9010
   95CHL1  H19C 9479   4.250   5.334   7.034  0.8963 -0.1390  0.9387
   95CHL1    C1 9480   4.072   5.098   7.035  0.1336  1.0022 -0.0316
   95CHL1   H1A 9481   4.139   5.024   7.084 -0.1699 -0.3109 -1.5091
   95CHL1   H1B 9482   3.976   5.042   7.038  0.3997  0.5463  0.0945
   95CHL1    C2 9483   4.110   5.094   6.887  0.3301  0.4088  0.4579
   95CHL1   H2A 9484   4.141   5.002   6.835 -0.6027  0.6787 -0.6287
   95CHL1   H2B 9485   4.194   5.167   6.879 -0.2265  0.9440 -0.8064
   95CHL1   C20 9486   3.971   5.200   7.812 -0.1743 -0.0199 -0.2097
   95CHL1   H20 9487   4.063   5.258   7.834  0.5539 -1.2457  0.0848
   95CHL1   C21 9488   4.020   5.062   7.820  0.3278 -0.4236 -0.1860
   95CHL1  H21A 9489   4.032   5.012   7.721 -1.6587 -0.9415 -0.2041
   95CHL1  H21B 9490   3.957   4.988   7.874  1.5094 -0.5200  1.1164
   95CHL1  H21C 9491   4.116   5.060   7.877 -0.5392  2.0074  1.5244
   95CHL1   C22 9492   3.887   5.227   7.941 -0.0496  0.2145  0.4494
   95CHL1  H22A 9493   3.838   5.326   7.930 -0.8419 -0.3482 -1.7214
   95CHL1  H22B 9494   3.811   5.147   7.938 -0.6984  0.7293  2.0759
   95CHL1   C23 9495   3.958   5.232   8.081 -0.0423 -0.3292  1.1878
   95CHL1  H23A 9496   4.010   5.134   8.089  1.8090  0.5642  0.5216
   95CHL1  H23B 9497   4.044   5.302   8.081 -0.0864 -0.1625 -1.4365
   95CHL1   C24 9498   3.853   5.253   8.187  0.0049 -0.6107  0.4736
   95CHL1  H24A 9499   3.820   5.359   8.189  1.3273 -0.1686  3.4503
   95CHL1  H24B 9500   3.764   5.187   8.175 -0.1891 -0.1790 -0.6079
   95CHL1   C25 9501   3.898   5.224   8.330  0.2976 -0.1734 -0.0623
   95CHL1   H25 9502   3.893   5.113   8.338 -0.8950 -0.1336 -0.1714
   95CHL1   C26 9503   4.045   5.268   8.364 -0.0381  0.3198  0.0753
   95CHL1  H26A 9504   4.072   5.206   8.451 -1.2291 -0.4807 -0.1057
   95CHL1  H26B 9505   4.114   5.257   8.277  0.4416  1.7556  0.2504
   95CHL1  H26C 9506   4.036   5.374   8.397  3.0000  0.0827  1.9969
   95CHL1   C27 9507   3.802   5.274   8.436  0.1486  0.0235  0.0229
   95CHL1  H27A 9508   3.836   5.247   8.538  1.4589  0.3457 -0.3036
   95CHL1  H27B 9509   3.788   5.384   8.431  2.3513  0.3163 -1.1959
   95CHL1  H27C 9510   3.701   5.229   8.430  0.3738 -1.0462  2.8971
   96CHL1    C3 9511   2.274   2.023   6.708 -0.1009  0.4113 -0.6076
   96CHL1    H3 9512   2.259   1.914   6.697  0.3361  0.1448  1.2185
   96CHL1    O3 9513   2.294   2.076   6.578  0.1408 -0.1396  0.3375
   96CHL1   H3' 9514   2.379   2.043   6.547  0.5997  0.8917  0.4278
   96CHL1    C4 9515   2.160   2.093   6.770 -0.0115  0.1491  0.2097
   96CHL1   H4A 9516   2.170   2.202   6.750  1.2028  0.1386  0.6590
   96CHL1   H4B 9517   2.075   2.045   6.718 -0.4785  0.6776  0.4795
   96CHL1    C5 9518   2.148   2.066   6.917 -0.3045  0.9570 -0.2677
   96CHL1    C6 9519   2.034   2.032   6.973  1.3781  0.1412  0.0585
   96CHL1    H6 9520   1.944   2.020   6.911  1.6194 -1.0619 -0.0851
   96CHL1    C7 9521   2.001   2.001   7.119 -0.7876 -0.6635 -0.8294
   96CHL1   H7A 9522   1.916   2.062   7.156  0.0068  0.8309 -1.3915
   96CHL1   H7B 9523   1.989   1.892   7.137  0.2094 -0.4589  1.4246
   96CHL1    C8 9524   2.122   2.049   7.207 -0.6337  0.6243  1.2203
   96CHL1    H8 9525   2.114   2.159   7.216  0.8342  1.0506 -1.5506
   96CHL1   C14 9526   2.125   1.989   7.350  0.5625 -0.3948  0.0236
   96CHL1   H14 9527   2.136   1.879   7.341 -0.3160 -0.3590 -2.0678
   96CHL1   C15 9528   2.002   2.003   7.430  0.0366  0.0609  0.2986
   96CHL1  H15A 9529   1.959   2.105   7.423 -4.2551 -1.5768 -0.5044
   96CHL1  H15B 9530   1.918   1.933   7.413 -0.2923  0.9738 -2.3257
   96CHL1   C16 9531   2.056   1.987   7.574 -0.3938  0.2313  0.5737
   96CHL1  H16A 9532   2.041   2.077   7.637 -2.5606  0.6711 -0.4888
   96CHL1  H16B 9533   2.004   1.910   7.635  0.1424 -0.2655  0.4198
   96CHL1   C17 9534   2.210   1.975   7.574  0.0863  0.4594  0.0573
   96CHL1   H17 9535   2.243   1.869   7.566  2.5387  1.2820 -2.3391
   96CHL1   C13 9536   2.242   2.030   7.435 -0.0149  0.1297  0.4664
   96CHL1   C18 9537   2.255   2.183   7.453 -0.0535 -0.3657  0.0713
   96CHL1  H18A 9538   2.345   2.215   7.511  1.1203  0.5154 -2.0953
   96CHL1  H18B 9539   2.256   2.237   7.356 -0.1828 -1.9140 -0.8185
   96CHL1  H18C 9540   2.167   2.216   7.511 -1.2396 -1.5507 -1.0041
   96CHL1   C12 9541   2.363   1.965   7.367  0.3328  0.4771 -0.6550
   96CHL1  H12A 9542   2.445   1.975   7.442  0.3297 -1.8577 -0.2690
   96CHL1  H12B 9543   2.345   1.856   7.360 -2.1481  0.7433  0.4049
   96CHL1   C11 9544   2.383   2.026   7.236 -0.0725 -0.7090  0.2451
   96CHL1  H11A 9545   2.428   2.128   7.244 -0.2781 -0.5930 -0.0405
   96CHL1  H11B 9546   2.465   1.968   7.189 -0.9661 -0.6063 -1.5200
   96CHL1    C9 9547   2.258   2.008   7.139 -0.0828  0.0452 -0.0901
   96CHL1    H9 9548   2.247   1.898   7.137 -2.3050  0.2307 -0.2098
   96CHL1   C10 9549   2.285   2.066   7.000  0.6462 -1.0048  0.1877
   96CHL1   C19 9550   2.331   2.212   7.016  0.5180 -0.0839 -0.2096
   96CHL1  H19A 9551   2.270   2.265   7.092 -2.6176  1.4041 -3.4486
   96CHL1  H19B 9552   2.438   2.207   7.045  0.2532  1.9867  1.3522
   96CHL1  H19C 9553   2.333   2.264   6.918 -1.1216  0.6260  0.1007
   96CHL1    C1 9554   2.396   1.981   6.932  0.1277  0.0609 -0.8152
   96CHL1   H1A 9555   2.494   2.010   6.975  0.3426 -0.2347 -1.0950
   96CHL1   H1B 9556   2.370   1.876   6.958 -0.2222  0.3331 -0.0649
   96CHL1    C2 9557   2.409   2.023   6.786  0.0253 -0.5748  0.4620
   96CHL1   H2A 9558   2.483   1.959   6.733 -2.2812 -1.4645 -1.9209
   96CHL1   H2B 9559   2.448   2.127   6.779 -1.2713  0.1080  2.4011
   96CHL1   C20 9560   2.274   2.031   7.705  0.4308 -0.3489  0.0016
   96CHL1   H20 9561   2.250   2.139   7.714  1.7674  0.0453 -0.8726
   96CHL1   C21 9562   2.428   2.022   7.706  0.1439 -0.1596  0.4543
   96CHL1  H21A 9563   2.466   2.091   7.784  1.2089 -0.8886  0.6056
   96CHL1  H21B 9564   2.469   2.064   7.612  1.0681 -0.0629  0.8889
   96CHL1  H21C 9565   2.465   1.918   7.720  0.8922  0.0669  0.2241
   96CHL1   C22 9566   2.229   1.956   7.832  0.8860 -0.1410  0.1026
   96CHL1  H22A 9567   2.121   1.935   7.841  1.0139 -1.9714 -1.9021
   96CHL1  H22B 9568   2.274   1.855   7.827 -0.8757 -1.0138  0.9460
   96CHL1   C23 9569   2.282   2.024   7.965  0.7670  1.4071  0.1282
   96CHL1  H23A 9570   2.392   2.024   7.980  0.6526  1.4780  0.9993
   96CHL1  H23B 9571   2.265   2.134   7.962  1.2239  1.4603 -1.6077
   96CHL1   C24 9572   2.213   1.966   8.091  0.1822  0.4989  0.4487
   96CHL1  H24A 9573   2.111   2.009   8.093  0.1307  0.4199 -0.2802
   96CHL1  H24B 9574   2.210   1.856   8.072 -0.3795  0.9746 -2.7675
   96CHL1   C25 9575   2.294   2.005   8.215 -0.1515  0.3232  0.2620
   96CHL1   H25 9576   2.390   1.949   8.212 -0.7096 -0.9276  2.5514
   96CHL1   C26 9577   2.318   2.157   8.223  0.3872  0.2259 -0.2102
   96CHL1  H26A 9578   2.224   2.213   8.202  0.8101  1.0559  0.0730
   96CHL1  H26B 9579   2.355   2.185   8.324 -1.7992 -0.7357  0.9169
   96CHL1  H26C 9580   2.397   2.187   8.151 -0.5781  0.9638 -0.9837
   96CHL1   C27 9581   2.220   1.954   8.335 -0.2794 -0.0672  0.1481
   96CHL1  H27A 9582   2.204   1.845   8.317  2.1866 -0.4915  0.1538
   96CHL1  H27B 9583   2.275   1.958   8.431 -0.2399 -0.3274  0.1371
   96CHL1  H27C 9584   2.116   1.990   8.340 -0.1713  0.3991 -0.7844
   97OSM      N 9585   3.674   0.918  11.000 -0.4183  0.8106  0.4470
   97OSM    C15 9586   3.672   1.033  11.088  0.3976 -0.1672 -0.4199
   97OSM   H15A 9587   3.649   1.124  11.035  0.6633 -0.7585 -1.5741
   97OSM   H15B 9588   3.764   1.043  11.145 -0.9328  2.2626  1.4663
   97OSM   H15C 9589   3.592   1.039  11.160  0.3069  4.4997 -0.6120
   97OSM    C14 9590   3.542   0.893  10.944 -0.6247  0.3159  0.4498
   97OSM   H14A 9591   3.473   0.868  11.023 -0.4236 -1.4291  0.1223
   97OSM   H14B 9592   3.549   0.815  10.870  0.6272  2.7052 -2.1207
   97OSM   H14C 9593   3.502   0.981  10.897 -0.2778 -0.1140 -0.6922
   97OSM    C13 9594   3.773   0.948  10.891 -0.3449 -0.0608 -0.2872
   97OSM   H13A 9595   3.740   1.032  10.832 -0.9208 -0.3060 -0.3183
   97OSM   H13B 9596   3.768   0.869  10.816  0.1267  0.2250 -0.6237
   97OSM   H13C 9597   3.871   0.967  10.932 -0.2622  1.2054 -1.0233
   97OSM    C12 9598   3.733   0.795  11.077  1.0940  0.0659 -0.4185
   97OSM   H12A 9599   3.830   0.816  11.120 -0.2084 -2.0339  4.1966
   97OSM   H12B 9600   3.745   0.712  11.009  4.3879  2.1962 -2.6957
   97OSM    C11 9601   3.655   0.738  11.196  0.1293  0.2420 -0.2142
   97OSM   H11A 9602   3.557   0.697  11.165 -0.3586  0.4865  0.9565
   97OSM   H11B 9603   3.645   0.817  11.273 -3.4534 -2.6943  2.6921
   97OSM      P 9604   3.692   0.585  11.393 -0.5550 -0.0445 -0.1105
   97OSM    O13 9605   3.784   0.475  11.435  0.1185 -0.1623 -0.2254
   97OSM    O14 9606   3.693   0.710  11.478 -0.5152 -0.4511 -0.0627
   97OSM    O11 9607   3.544   0.529  11.372  0.5969 -0.2637  0.7272
   97OSM    O12 9608   3.729   0.624  11.238 -0.4096 -0.3361 -0.3461
   97OSM    C1S 9609   3.476   0.464  11.484 -0.2156 -0.1006  0.1881
   97OSM    H1S 9610   3.553   0.406  11.538  0.4352  0.1048 -0.4978
   97OSM    H1T 9611   3.407   0.385  11.446  0.4888 -0.6395  0.0138
   97OSM     NF 9612   3.325   0.507  11.681 -0.5290  0.0617  0.2152
   97OSM    HNF 9613   3.229   0.479  11.679 -1.0101  1.6055 -0.5050
   97OSM    C2S 9614   3.386   0.571  11.565 -0.0957  0.1448  0.3225
   97OSM    H2S 9615   3.457   0.644  11.609  1.2018 -1.3319  0.7688
   97OSM    C3S 9616   3.284   0.645  11.469  0.7833  0.1620  0.1264
   97OSM    H3S 9617   3.191   0.592  11.440 -0.1329  0.9005  1.6152
   97OSM     O3 9618   3.332   0.678  11.339  0.6193 -0.3619  0.1662
   97OSM    HO3 9619   3.400   0.612  11.329  0.2688 -0.4885 -1.9260
   97OSM    C4S 9620   3.224   0.763  11.544 -0.5407 -0.3520  0.3069
   97OSM    H4S 9621   3.144   0.740  11.615 -0.5740  1.1038  0.7836
   97OSM    C5S 9622   3.255   0.893  11.536 -0.4391  0.5810  0.7847
   97OSM    H5S 9623   3.327   0.921  11.459 -0.8602  1.9366  0.8566
   97OSM    C6S 9624   3.200   0.996  11.632 -0.0728 -0.1581  0.2148
   97OSM    H6S 9625   3.121   1.043  11.570  0.5535 -0.6634 -1.0102
   97OSM    H6T 9626   3.271   1.079  11.655 -1.0927  0.3809  1.5274
   97OSM    C7S 9627   3.128   0.950  11.760 -0.7971  0.2076 -0.2022
   97OSM    H7S 9628   3.207   0.894  11.814 -1.2984 -2.4443 -2.0215
   97OSM    H7T 9629   3.040   0.889  11.731  0.0547 -1.2437  0.1526
   97OSM    C8S 9630   3.068   1.056  11.851 -0.7386 -0.1854  0.2610
   97OSM    H8S 9631   3.002   1.127  11.796 -0.4208  0.4330  0.6665
   97OSM    H8T 9632   3.156   1.107  11.895  1.0038 -4.1947  1.8966
   97OSM    C9S 9633   2.972   1.003  11.958 -0.9208 -0.2169  0.1476
   97OSM    H9S 9634   3.036   0.924  12.003 -0.9251 -0.6798 -0.6324
   97OSM    H9T 9635   2.893   0.948  11.903  0.1240 -0.7055 -0.9193
   97OSM   C10S 9636   2.923   1.113  12.049 -0.7167  0.0705  0.2572
   97OSM   H10S 9637   2.853   1.182  11.998 -1.6834 -1.1674 -0.1466
   97OSM   H10T 9638   3.022   1.155  12.077  0.6632 -2.6097 -0.2001
   97OSM   C11S 9639   2.864   1.072  12.185  0.3505  1.2687 -0.1906
   97OSM   H11S 9640   2.771   1.012  12.184  1.3266 -0.2808 -0.5197
   97OSM   H11T 9641   2.841   1.167  12.239 -2.2251  2.1017 -2.5243
   97OSM   C12S 9642   2.972   0.995  12.275  0.5315 -0.2510  0.5245
   97OSM   H12S 9643   3.061   1.061  12.271  0.6691 -0.4889 -0.9308
   97OSM   H12T 9644   2.993   0.892  12.238  2.6303  0.7733 -1.3181
   97OSM   C13S 9645   2.918   0.989  12.421 -1.2790  0.0864 -0.1304
   97OSM   H13S 9646   2.825   0.929  12.434 -1.0064  0.0873  2.2100
   97OSM   H13T 9647   2.899   1.090  12.464 -1.0507 -1.0471  2.8643
   97OSM   C14S 9648   3.022   0.925  12.515  0.2106 -1.1330  0.2780
   97OSM   H14S 9649   2.982   0.936  12.618 -3.9867 -0.3720 -1.2327
   97OSM   H14T 9650   3.121   0.975  12.525 -0.8204  0.8793  1.1245
   97OSM   C15S 9651   3.052   0.787  12.484 -0.2314 -0.4600 -0.2113
   97OSM   H15S 9652   3.117   0.766  12.397 -0.7938 -0.2109 -0.6938
   97OSM   H15T 9653   2.963   0.729  12.449  0.5105 -0.9396 -1.3687
   97OSM   C16S 9654   3.122   0.712  12.597 -0.0963  0.3558  0.6480
   97OSM   H16S 9655   3.057   0.721  12.687 -0.1187 -0.6401  0.7394
   97OSM   H16T 9656   3.220   0.760  12.618  1.0170 -1.8990  0.8837
   97OSM   C17S 9657   3.146   0.568  12.549 -0.4045  0.1505 -0.1554
   97OSM   H17S 9658   3.232   0.566  12.479 -1.5543 -0.6977 -1.6100
   97OSM   H17T 9659   3.062   0.534  12.484  0.9953  0.4861 -2.2132
   97OSM   C18S 9660   3.170   0.469  12.669 -0.1750  0.1115  0.6729
   97OSM   H18S 9661   3.269   0.493  12.713 -1.7200  2.7973  2.9966
   97OSM   H18T 9662   3.178   0.363  12.636 -3.3500 -0.2743  0.8645
   97OSM   H18U 9663   3.091   0.479  12.746 -0.6044  0.1171  0.2375
   97OSM    C1F 9664   3.386   0.467  11.788  0.0035  0.4217 -0.2092
   97OSM     OF 9665   3.508   0.479  11.788 -0.3767 -0.5795 -0.1920
   97OSM    C2F 9666   3.308   0.406  11.900 -0.2669  0.1273  0.6037
   97OSM    H2F 9667   3.304   0.297  11.879  1.7057  0.0388  0.5263
   97OSM    H2G 9668   3.206   0.449  11.896  0.2319  1.2541 -0.5380
   97OSM    C3F 9669   3.370   0.405  12.038  0.1540  0.3924  0.1552
   97OSM    H3F 9670   3.470   0.357  12.036  0.4672  0.8358  2.2407
   97OSM    H3G 9671   3.304   0.355  12.112  3.6486 -1.1138  2.5313
   97OSM    C4F 9672   3.407   0.547  12.090 -0.0655  0.1372 -0.1019
   97OSM    H4F 9673   3.487   0.590  12.026 -0.0730 -1.5901 -1.3444
   97OSM    H4G 9674   3.462   0.534  12.185  2.7458 -1.1197 -1.7716
   97OSM    C5F 9675   3.289   0.647  12.089 -0.8419  0.0434  0.5359
   97OSM    H5F 9676   3.230   0.621  12.179  1.2704 -0.3050  1.8902
   97OSM    H5G 9677   3.235   0.629  11.994  0.3336 -0.2878 -0.0995
   97OSM    C6F 9678   3.317   0.801  12.093  0.1151  0.1943  0.1437
   97OSM    H6F 9679   3.224   0.856  12.117 -0.3669 -0.7641  0.4821
   97OSM    H6G 9680   3.353   0.832  11.992  0.4101  2.3871  0.8550
   97OSM    C7F 9681   3.424   0.840  12.195  0.1086 -0.2497 -0.1551
   97OSM    H7F 9682   3.530   0.819  12.170 -0.5890 -1.7461 -2.0680
   97OSM    H7G 9683   3.414   0.784  12.290  4.6373  1.7112  1.7679
   97OSM    C8F 9684   3.414   0.988  12.239 -0.4772  0.5180 -0.6353
   97OSM    H8F 9685   3.489   1.002  12.320  1.5607  2.0950 -2.6655
   97OSM    H8G 9686   3.309   1.000  12.272 -0.7608 -1.9730 -0.4043
   97OSM    C9F 9687   3.444   1.086  12.128  0.2777  0.4458 -0.4402
   97OSM    H9F 9688   3.379   1.066  12.041 -0.4252 -0.0837  0.2026
   97OSM   C10F 9689   3.532   1.189  12.119  0.0201  0.3083  0.0055
   97OSM   H10F 9690   3.542   1.240  12.022  3.9273  1.5983  0.9318
   97OSM   C11F 9691   3.627   1.236  12.224  0.2781  0.8073 -0.3260
   97OSM   H11F 9692   3.614   1.172  12.315 -1.2171 -0.5382 -1.4232
   97OSM   H11G 9693   3.620   1.342  12.254 -0.0770  0.2309  1.7879
   97OSM   C12F 9694   3.769   1.198  12.174 -0.1090 -0.3411  0.0849
   97OSM   H12F 9695   3.770   1.096  12.130  2.9693 -1.0965  1.6384
   97OSM   H12G 9696   3.846   1.199  12.254 -0.1432  0.4868  0.1139
   97OSM   C13F 9697   3.821   1.291  12.060  0.1032  0.3840 -0.3122
   97OSM   H13F 9698   3.838   1.392  12.103  3.1250 -1.0414  2.1565
   97OSM   H13G 9699   3.746   1.286  11.977 -0.5125 -1.1227  0.2985
   97OSM   C14F 9700   3.949   1.253  11.988  0.1536  0.0637 -0.5815
   97OSM   H14F 9701   3.944   1.164  11.922  0.3342 -0.7550  0.4828
   97OSM   H14G 9702   4.020   1.215  12.066  0.2967  0.1582 -0.6645
   97OSM   C15F 9703   4.000   1.362  11.898  0.0387  0.1312  0.7209
   97OSM   H15F 9704   4.095   1.323  11.854 -1.8331 -2.1433 -1.5949
   97OSM   H15G 9705   4.016   1.457  11.954  0.2206 -0.4779  1.7169
   97OSM   C16F 9706   3.902   1.401  11.782 -0.4003  0.3372  0.2001
   97OSM   H16F 9707   3.803   1.417  11.829 -0.4310 -2.2469  1.1455
   97OSM   H16G 9708   3.883   1.317  11.712  2.5252 -0.5973  0.3979
   97OSM   C17F 9709   3.942   1.519  11.696 -0.1857  0.0747  0.0543
   97OSM   H17F 9710   3.872   1.527  11.610  0.2935  4.7600 -0.1671
   97OSM   H17G 9711   4.044   1.497  11.660 -0.1915 -0.6279  0.4373
   97OSM   C18F 9712   3.938   1.647  11.780  0.1657 -0.5738  0.3249
   97OSM   H18F 9713   3.973   1.734  11.721  1.2810  0.0405  1.8130
   97OSM   H18G 9714   4.007   1.644  11.867 -0.7065  2.1805  1.2352
   97OSM   H18H 9715   3.839   1.664  11.828 -0.5404 -1.5466 -0.7541
   98OSM      N 9716   3.819   5.656  11.159  0.4495  0.6609  0.3082
   98OSM    C15 9717   3.701   5.742  11.185 -0.0156 -0.0810  0.2518
   98OSM   H15A 9718   3.660   5.798  11.102 -0.2052 -1.9392 -0.9634
   98OSM   H15B 9719   3.733   5.802  11.269  2.6339 -1.2790  0.2201
   98OSM   H15C 9720   3.623   5.677  11.222 -0.0371 -0.1627  0.0622
   98OSM    C14 9721   3.921   5.752  11.097  0.5008 -0.3201  0.2984
   98OSM   H14A 9722   4.013   5.699  11.076  0.0411 -1.0777  0.1477
   98OSM   H14B 9723   3.943   5.844  11.150 -2.0221 -0.0142  0.9346
   98OSM   H14C 9724   3.898   5.781  10.996  0.7592  0.3672  0.4334
   98OSM    C13 9725   3.873   5.597  11.290  1.1638 -0.0139  0.7244
   98OSM   H13A 9726   3.920   5.677  11.346  1.1027 -0.7731  1.8872
   98OSM   H13B 9727   3.954   5.531  11.263  0.2043 -0.7174 -0.5541
   98OSM   H13C 9728   3.796   5.555  11.353 -0.6484  2.5847  0.4080
   98OSM    C12 9729   3.778   5.538  11.065 -0.6595 -0.1617 -0.4052
   98OSM   H12A 9730   3.708   5.481  11.124 -0.1482  1.2833  1.7210
   98OSM   H12B 9731   3.862   5.470  11.062 -0.4108  0.0859  0.5022
   98OSM    C11 9732   3.728   5.572  10.920 -0.5418  0.2888 -0.3849
   98OSM   H11A 9733   3.754   5.480  10.862  1.6600 -0.2394  1.3012
   98OSM   H11B 9734   3.796   5.653  10.885  1.4009 -0.3692  1.6422
   98OSM      P 9735   3.486   5.473  10.921  0.4031  0.1156 -0.2871
   98OSM    O13 9736   3.554   5.354  10.968 -0.0864 -0.4458  0.4380
   98OSM    O14 9737   3.367   5.510  11.002  0.1734 -0.1785 -0.3913
   98OSM    O11 9738   3.436   5.448  10.774  0.1981  0.2411 -0.1963
   98OSM    O12 9739   3.589   5.593  10.921  0.6639 -0.1142 -0.0550
   98OSM    C1S 9740   3.481   5.523  10.661  0.7811  0.5061 -0.1698
   98OSM    H1S 9741   3.586   5.496  10.638  0.8577  1.1580 -0.6241
   98OSM    H1T 9742   3.469   5.632  10.678  2.0674  0.6214  0.0773
   98OSM     NF 9743   3.468   5.546  10.410  0.0687  0.3368  0.2401
   98OSM    HNF 9744   3.457   5.645  10.397  1.8801  0.4072 -1.1319
   98OSM    C2S 9745   3.396   5.494  10.530  0.2624 -0.3609 -0.2090
   98OSM    H2S 9746   3.375   5.387  10.508 -2.5415  0.3353 -1.4028
   98OSM    C3S 9747   3.258   5.557  10.553 -0.1750 -0.0228 -0.1320
   98OSM    H3S 9748   3.272   5.667  10.548 -1.5324  0.3281  2.3433
   98OSM     O3 9749   3.197   5.551  10.685  0.9495 -0.4287  0.2286
   98OSM    HO3 9750   3.274   5.527  10.737  1.3495 -1.1937 -0.6802
   98OSM    C4S 9751   3.164   5.504  10.448 -0.2445 -0.4426 -0.4843
   98OSM    H4S 9752   3.171   5.550  10.348  0.3659  0.8135  0.1181
   98OSM    C5S 9753   3.066   5.412  10.475 -0.6224 -0.0881  0.3496
   98OSM    H5S 9754   3.044   5.382  10.578 -2.6133 -1.8893 -0.5206
   98OSM    C6S 9755   2.957   5.357  10.384  0.2367 -0.3290  0.1005
   98OSM    H6S 9756   2.859   5.373  10.432  1.0477 -0.6252  1.9647
   98OSM    H6T 9757   2.958   5.246  10.381 -0.6876 -0.3176 -0.7992
   98OSM    C7S 9758   2.951   5.422  10.248  0.0215  0.2294  0.7607
   98OSM    H7S 9759   3.050   5.410  10.199 -0.2498 -0.8424  0.4297
   98OSM    H7T 9760   2.918   5.527  10.260 -0.3988  0.4172 -1.4933
   98OSM    C8S 9761   2.851   5.355  10.157  0.1865 -0.0598 -0.1188
   98OSM    H8S 9762   2.744   5.382  10.173 -0.9933 -3.5246 -1.1930
   98OSM    H8T 9763   2.862   5.244  10.156  0.1140 -0.0684 -1.2436
   98OSM    C9S 9764   2.880   5.384  10.003  0.3135  0.7506  0.3149
   98OSM    H9S 9765   2.788   5.338   9.960 -0.6963  2.2453  0.8056
   98OSM    H9T 9766   2.968   5.323   9.974  0.3987  1.4826 -1.0207
   98OSM   C10S 9767   2.891   5.532   9.962  0.3203 -0.6320  0.6923
   98OSM   H10S 9768   2.992   5.570   9.989  0.5665  0.0222 -1.0204
   98OSM   H10T 9769   2.817   5.579  10.031 -1.0029 -0.7061 -0.6404
   98OSM   C11S 9770   2.847   5.553   9.822  0.5583 -0.3190  0.3708
   98OSM   H11S 9771   2.814   5.659   9.813  0.5627 -0.2984  0.5906
   98OSM   H11T 9772   2.775   5.472   9.796  1.3146 -1.3754  1.4572
   98OSM   C12S 9773   2.958   5.527   9.717 -0.3195  0.1984  0.1566
   98OSM   H12S 9774   2.999   5.425   9.733  0.1771  0.5312  1.1006
   98OSM   H12T 9775   3.046   5.594   9.730  0.8542 -1.1039 -0.7673
   98OSM   C13S 9776   2.908   5.541   9.572  0.1732 -0.5574 -0.3627
   98OSM   H13S 9777   2.856   5.638   9.561  0.5530 -0.3617 -0.4399
   98OSM   H13T 9778   2.834   5.461   9.550 -0.1340 -1.0176  2.0361
   98OSM   C14S 9779   3.021   5.546   9.464 -0.0768 -0.2871  0.4093
   98OSM   H14S 9780   3.045   5.441   9.437  0.1841  0.0956 -0.9599
   98OSM   H14T 9781   3.110   5.603   9.497 -0.9298  1.5193 -0.2727
   98OSM   C15S 9782   2.958   5.595   9.333 -0.0778  0.2370 -0.1803
   98OSM   H15S 9783   2.930   5.702   9.348 -0.3827  0.1254  0.0636
   98OSM   H15T 9784   2.871   5.531   9.309  1.4633 -2.8113  1.7330
   98OSM   C16S 9785   3.052   5.589   9.213 -0.6057  0.1686 -0.3823
   98OSM   H16S 9786   3.055   5.480   9.188 -2.1892  0.4984 -2.1949
   98OSM   H16T 9787   3.146   5.637   9.246 -0.3445 -1.7886  2.0028
   98OSM   C17S 9788   3.011   5.669   9.091  0.6429  0.0531 -0.1904
   98OSM   H17S 9789   2.966   5.763   9.128  1.1633  0.1493  0.2007
   98OSM   H17T 9790   2.930   5.612   9.040  0.7779 -1.3102  1.0616
   98OSM   C18S 9791   3.118   5.710   8.999  0.3740 -0.4899  0.5088
   98OSM   H18S 9792   3.156   5.814   9.009 -0.4303 -0.2323  0.9986
   98OSM   H18T 9793   3.084   5.721   8.894 -0.5868 -0.1570  0.8459
   98OSM   H18U 9794   3.198   5.633   8.992 -0.6248 -1.4048 -2.7426
   98OSM    C1F 9795   3.575   5.485  10.372  0.2804  0.6944  0.3242
   98OSM     OF 9796   3.595   5.381  10.436 -0.3496 -0.9671 -0.1313
   98OSM    C2F 9797   3.663   5.543  10.267 -0.0524 -0.3345 -0.2257
   98OSM    H2F 9798   3.727   5.619  10.317  0.2559 -0.0613 -1.0097
   98OSM    H2G 9799   3.605   5.592  10.186  1.9407  0.4128 -1.2702
   98OSM    C3F 9800   3.757   5.437  10.202  0.0061  0.5508  0.6100
   98OSM    H3F 9801   3.696   5.354  10.162 -1.8041  1.5230  1.2405
   98OSM    H3G 9802   3.825   5.396  10.281  0.9697  0.4046 -0.2702
   98OSM    C4F 9803   3.830   5.491  10.076 -0.1551  0.3366  0.5010
   98OSM    H4F 9804   3.906   5.414  10.050  0.7974  0.4743  2.6272
   98OSM    H4G 9805   3.884   5.586  10.096  0.5948  0.1872 -0.7253
   98OSM    C5F 9806   3.746   5.514   9.947  0.4178  0.0472 -0.2478
   98OSM    H5F 9807   3.672   5.596   9.961  0.7999  0.2866  0.4173
   98OSM    H5G 9808   3.682   5.423   9.938 -1.6049  1.3673 -0.0222
   98OSM    C6F 9809   3.833   5.536   9.825  0.0373  0.3677 -0.3616
   98OSM    H6F 9810   3.909   5.456   9.828  1.1846  1.3197 -2.1570
   98OSM    H6G 9811   3.881   5.636   9.818 -1.9149  1.3032 -1.3573
   98OSM    C7F 9812   3.755   5.528   9.689  0.6270 -0.4789 -0.3058
   98OSM    H7F 9813   3.686   5.614   9.696  1.5424  0.3690 -1.2759
   98OSM    H7G 9814   3.686   5.441   9.684  0.5909 -0.4984  0.3985
   98OSM    C8F 9815   3.835   5.526   9.559  0.6057 -0.1739 -0.0641
   98OSM    H8F 9816   3.892   5.622   9.554 -0.3483  0.3668 -0.8886
   98OSM    H8G 9817   3.765   5.544   9.475  1.7684 -0.6193 -1.1722
   98OSM    C9F 9818   3.931   5.405   9.542  0.3324 -0.6346 -0.0100
   98OSM    H9F 9819   3.981   5.370   9.633 -0.6113 -0.9034  0.4276
   98OSM   C10F 9820   3.964   5.351   9.425  0.4987 -0.0796  0.9337
   98OSM   H10F 9821   4.046   5.277   9.424  0.6476  0.0865  0.7983
   98OSM   C11F 9822   3.916   5.399   9.289 -0.3983 -0.2254 -0.3996
   98OSM   H11F 9823   3.834   5.474   9.286 -1.8260 -1.7044 -3.7932
   98OSM   H11G 9824   3.890   5.311   9.228  0.7933 -0.1647 -1.0227
   98OSM   C12F 9825   4.027   5.482   9.218 -0.3735  0.0207  0.0084
   98OSM   H12F 9826   4.110   5.411   9.199 -0.7866 -0.2122 -1.0092
   98OSM   H12G 9827   4.061   5.564   9.284  0.3327 -0.1508 -0.1339
   98OSM   C13F 9828   3.988   5.534   9.074  0.3284  0.5800 -0.4477
   98OSM   H13F 9829   4.076   5.589   9.037 -0.3854  1.7408 -0.4556
   98OSM   H13G 9830   3.909   5.612   9.078 -0.4240  0.1393 -3.9181
   98OSM   C14F 9831   3.939   5.415   8.979 -0.9226 -0.6809  0.2518
   98OSM   H14F 9832   3.858   5.364   9.034 -1.5923 -0.1095 -0.1794
   98OSM   H14G 9833   4.024   5.345   8.965  0.3998  0.5846  1.6221
   98OSM   C15F 9834   3.895   5.472   8.840 -0.5198 -0.3802 -0.1678
   98OSM   H15F 9835   3.795   5.514   8.864 -0.2041 -0.1709  0.8109
   98OSM   H15G 9836   3.884   5.377   8.783 -1.3418 -1.0506  1.0562
   98OSM   C16F 9837   4.003   5.563   8.779  0.2758 -0.9416  0.5688
   98OSM   H16F 9838   4.097   5.538   8.832 -1.6145 -2.6527  3.3616
   98OSM   H16G 9839   3.988   5.672   8.796 -0.2860 -0.8623 -0.3324
   98OSM   C17F 9840   4.012   5.544   8.629  0.5426  0.6668  0.6659
   98OSM   H17F 9841   3.927   5.593   8.577  0.2333 -0.5116  0.0290
   98OSM   H17G 9842   4.018   5.436   8.603  2.5275  0.6873  0.8803
   98OSM   C18F 9843   4.141   5.616   8.585  0.2030 -0.3185  0.1526
   98OSM   H18F 9844   4.131   5.725   8.608  0.3822 -0.5458  1.3569
   98OSM   H18G 9845   4.164   5.611   8.476 -1.3430  1.5125 -0.3298
   98OSM   H18H 9846   4.231   5.574   8.635  1.5490  0.6313 -1.3294
   99OSM      N 9847   2.019   5.114  11.111 -0.1412  0.1811 -0.5464
   99OSM    C15 9848   2.163   5.158  11.142  0.0337  0.4754  0.2505
   99OSM   H15A 9849   2.191   5.245  11.085  0.0484  1.8601  2.2730
   99OSM   H15B 9850   2.225   5.073  11.120  1.7494  1.5117  0.8902
   99OSM   H15C 9851   2.176   5.179  11.247 -0.6568  0.4621  0.3423
   99OSM    C14 9852   1.933   5.227  11.119  0.1515  0.1341 -0.7087
   99OSM   H14A 9853   1.948   5.287  11.207 -0.3352  2.4351 -2.1171
   99OSM   H14B 9854   1.832   5.190  11.113 -0.1160  0.9568 -1.3516
   99OSM   H14C 9855   1.956   5.288  11.033  2.7564 -0.8484 -0.7958
   99OSM    C13 9856   2.022   5.063  10.971  0.4507 -0.1793 -0.2704
   99OSM   H13A 9857   2.078   5.125  10.902 -0.5622  1.5231  0.3739
   99OSM   H13B 9858   1.920   5.050  10.938 -0.3946  1.2407  1.6092
   99OSM   H13C 9859   2.071   4.967  10.972 -1.1754 -1.0550 -0.9578
   99OSM    C12 9860   1.979   5.003  11.201  0.9412 -0.1245 -0.3094
   99OSM   H12A 9861   1.990   5.040  11.301  0.5743  1.8116 -0.9510
   99OSM   H12B 9862   2.044   4.917  11.193  1.8942  0.5637 -0.1074
   99OSM    C11 9863   1.838   4.943  11.182 -0.4975  0.2813 -0.5251
   99OSM   H11A 9864   1.837   4.870  11.266  0.0871  0.6279 -0.2040
   99OSM   H11B 9865   1.852   4.882  11.091 -0.2004  1.2378 -1.1332
   99OSM      P 9866   1.609   5.035  11.085 -0.2159  0.4117 -0.1986
   99OSM    O13 9867   1.547   4.901  11.101 -0.4272  0.9085  0.6854
   99OSM    O14 9868   1.522   5.156  11.099  1.0467 -0.2164  0.3636
   99OSM    O11 9869   1.690   5.046  10.947  0.0798  0.3311 -0.0480
   99OSM    O12 9870   1.729   5.035  11.188  0.1666 -0.1555  0.5066
   99OSM    C1S 9871   1.622   5.084  10.823 -0.6524  0.0496  0.2069
   99OSM    H1S 9872   1.593   5.192  10.822  0.5392  0.3832  0.4541
   99OSM    H1T 9873   1.529   5.026  10.805 -1.7132  1.1123  1.9745
   99OSM     NF 9874   1.676   5.118  10.575 -0.4771  0.1540  0.1138
   99OSM    HNF 9875   1.627   5.066  10.506  0.0272  1.5265 -1.3294
   99OSM    C2S 9876   1.712   5.046  10.700  0.1411  1.2336  0.3026
   99OSM    H2S 9877   1.811   5.088  10.731  0.4494 -0.1124  1.2126
   99OSM    C3S 9878   1.736   4.894  10.678  0.2259  0.2913 -0.0624
   99OSM    H3S 9879   1.638   4.843  10.670  0.8486 -1.4040  2.1400
   99OSM     O3 9880   1.816   4.831  10.782  0.0576 -0.0445  0.2063
   99OSM    HO3 9881   1.798   4.892  10.854 -0.7590  1.3710 -1.1397
   99OSM    C4S 9882   1.821   4.874  10.559 -0.1905 -0.4907  0.8295
   99OSM    H4S 9883   1.912   4.936  10.554 -2.0996  2.4085 -0.6029
   99OSM    C5S 9884   1.776   4.802  10.458 -0.4068  1.0270  0.1614
   99OSM    H5S 9885   1.673   4.763  10.459  0.0616 -0.3082 -0.9708
   99OSM    C6S 9886   1.856   4.776  10.339 -0.5513  0.4511 -0.0792
   99OSM    H6S 9887   1.958   4.784  10.382  0.2530 -0.7400 -1.6762
   99OSM    H6T 9888   1.850   4.859  10.266  0.1056 -0.4251 -1.1619
   99OSM    C7S 9889   1.834   4.637  10.270 -0.0984 -0.0147  0.4443
   99OSM    H7S 9890   1.736   4.632  10.219 -0.4706 -2.1853  1.2662
   99OSM    H7T 9891   1.841   4.559  10.349  0.3343  1.7058  2.1744
   99OSM    C8S 9892   1.936   4.606  10.163  0.0732  0.0087 -0.1864
   99OSM    H8S 9893   2.037   4.602  10.209 -1.0544 -1.3021  2.3613
   99OSM    H8T 9894   1.927   4.699  10.102 -0.3069  0.5858  0.7160
   99OSM    C9S 9895   1.911   4.473  10.088  0.6597  0.2121 -0.1968
   99OSM    H9S 9896   1.814   4.479  10.035  0.0416 -0.7527  0.7947
   99OSM    H9T 9897   1.894   4.394  10.164  2.7882  0.7117  0.8723
   99OSM   C10S 9898   2.022   4.426   9.996  0.3179  0.2635 -0.8755
   99OSM   H10S 9899   1.992   4.323   9.966  1.6131  0.0998 -1.6848
   99OSM   H10T 9900   2.120   4.423  10.049 -0.2264  1.5123  0.2703
   99OSM   C11S 9901   2.029   4.498   9.862  0.4012 -0.5511 -0.1217
   99OSM   H11S 9902   2.043   4.605   9.888  2.7728 -0.6903 -0.5929
   99OSM   H11T 9903   1.931   4.501   9.810 -1.1252  1.6630  2.5878
   99OSM   C12S 9904   2.146   4.461   9.772  0.3216 -0.3792 -0.3460
   99OSM   H12S 9905   2.242   4.488   9.821 -0.3655  0.5092  0.5465
   99OSM   H12T 9906   2.149   4.351   9.752  1.3068 -0.4660  0.2080
   99OSM   C13S 9907   2.138   4.513   9.628  0.7348  0.2597 -0.2330
   99OSM   H13S 9908   2.188   4.612   9.621  0.7879  0.1614 -1.5152
   99OSM   H13T 9909   2.031   4.517   9.600  0.8061 -1.4823 -0.8554
   99OSM   C14S 9910   2.222   4.439   9.526  0.7029 -0.8011  0.2212
   99OSM   H14S 9911   2.188   4.334   9.517  1.6853 -0.9653 -2.3184
   99OSM   H14T 9912   2.328   4.442   9.557  0.7955 -1.9992  0.0494
   99OSM   C15S 9913   2.224   4.514   9.388  0.1191  0.0286  0.0224
   99OSM   H15S 9914   2.248   4.620   9.409  1.6050 -0.3589  0.4367
   99OSM   H15T 9915   2.128   4.515   9.332  0.7946 -0.1590 -1.1803
   99OSM   C16S 9916   2.317   4.458   9.285  0.0680  0.0127  0.7350
   99OSM   H16S 9917   2.295   4.350   9.269  1.9927 -0.3660  0.4002
   99OSM   H16T 9918   2.417   4.469   9.332  1.4582  2.8272 -2.4549
   99OSM   C17S 9919   2.329   4.531   9.138 -0.0213 -0.0476 -0.1601
   99OSM   H17S 9920   2.335   4.640   9.159 -2.3815  0.1390 -0.1197
   99OSM   H17T 9921   2.230   4.511   9.092 -1.6952  0.4257  2.9801
   99OSM   C18S 9922   2.445   4.472   9.057  0.0839  0.4578 -0.1439
   99OSM   H18S 9923   2.422   4.365   9.039 -4.3187  1.1616  0.2273
   99OSM   H18T 9924   2.542   4.484   9.111 -1.3596 -0.0179  2.7598
   99OSM   H18U 9925   2.455   4.526   8.961  0.2077  0.7152  0.0124
   99OSM    C1F 9926   1.696   5.251  10.557 -0.4288 -0.1471  0.5789
   99OSM     OF 9927   1.754   5.323  10.643 -0.0156 -0.4085 -0.1855
   99OSM    C2F 9928   1.645   5.297  10.422 -0.2075  0.1067  0.4079
   99OSM    H2F 9929   1.617   5.404  10.414  0.8986  0.2731 -2.6077
   99OSM    H2G 9930   1.543   5.254  10.413 -0.3338  0.2914  0.9269
   99OSM    C3F 9931   1.719   5.236  10.299 -0.0499 -0.1513 -0.4568
   99OSM    H3F 9932   1.684   5.131  10.292 -0.5879  0.0345 -0.5531
   99OSM    H3G 9933   1.672   5.287  10.213 -0.3592  0.6213  0.1523
   99OSM    C4F 9934   1.866   5.238  10.303 -0.4838 -0.3272 -0.4292
   99OSM    H4F 9935   1.906   5.150  10.358  1.0267  0.0511 -0.8624
   99OSM    H4G 9936   1.896   5.331  10.356  1.4672 -1.6547  0.9164
   99OSM    C5F 9937   1.925   5.235  10.161 -0.1751 -0.7217  0.1918
   99OSM    H5F 9938   2.034   5.256  10.162 -0.4599  0.9594 -0.9444
   99OSM    H5G 9939   1.880   5.310  10.093  4.5446  0.9059 -1.4942
   99OSM    C6F 9940   1.911   5.096  10.091 -0.2453  0.3342  0.2663
   99OSM    H6F 9941   1.803   5.083  10.068 -0.0174 -3.0986  0.5576
   99OSM    H6G 9942   1.941   5.013  10.159 -1.9847  0.7672  1.6060
   99OSM    C7F 9943   1.993   5.084   9.956  0.1381 -0.2165 -0.2424
   99OSM    H7F 9944   2.067   5.167   9.958 -0.6755  0.5092  0.2800
   99OSM    H7G 9945   1.914   5.111   9.882  1.1180  4.8435  0.1916
   99OSM    C8F 9946   2.084   4.953   9.939 -0.2438  0.1974 -0.6034
   99OSM    H8F 9947   2.016   4.871   9.970  0.7288 -0.3215  0.2237
   99OSM    H8G 9948   2.168   4.952  10.011 -0.5897 -0.2871 -0.2005
   99OSM    C9F 9949   2.139   4.911   9.805  0.0821  0.0625 -0.2269
   99OSM    H9F 9950   2.169   4.805   9.811 -0.5134 -0.1370 -0.6919
   99OSM   C10F 9951   2.137   4.985   9.692 -0.1706  0.1458  0.2635
   99OSM   H10F 9952   2.178   4.935   9.603 -0.3970  0.0029  0.2407
   99OSM   C11F 9953   2.084   5.119   9.671  0.4951 -0.0514  0.0447
   99OSM   H11F 9954   2.111   5.183   9.758 -0.1478  1.9752 -1.1673
   99OSM   H11G 9955   1.975   5.103   9.655  0.9123 -1.2564 -2.0421
   99OSM   C12F 9956   2.139   5.179   9.537 -0.9060  0.4220 -0.3931
   99OSM   H12F 9957   2.250   5.170   9.536 -1.0820 -3.4177 -0.5075
   99OSM   H12G 9958   2.122   5.289   9.539  0.8761  0.7488 -1.3533
   99OSM   C13F 9959   2.091   5.106   9.409 -0.5532 -0.7696 -0.2176
   99OSM   H13F 9960   1.981   5.096   9.412 -0.4705 -2.7337 -1.5799
   99OSM   H13G 9961   2.120   4.998   9.408  0.5606 -0.4994 -2.3705
   99OSM   C14F 9962   2.138   5.174   9.283 -0.4373 -0.0014  0.1971
   99OSM   H14F 9963   2.247   5.193   9.294 -0.2826 -0.3599 -0.6512
   99OSM   H14G 9964   2.075   5.264   9.267 -3.2329 -2.1372 -1.7621
   99OSM   C15F 9965   2.101   5.089   9.158 -0.6475  0.3561  0.0313
   99OSM   H15F 9966   2.101   5.149   9.065  0.3850 -1.8282 -1.4516
   99OSM   H15G 9967   1.997   5.050   9.166 -0.7362  0.6472  0.3520
   99OSM   C16F 9968   2.194   4.967   9.133  0.1536  0.3429  0.2229
   99OSM   H16F 9969   2.169   4.892   9.211  0.6542  0.7413  0.7727
   99OSM   H16G 9970   2.298   4.997   9.154  0.6670 -2.1470  1.6757
   99OSM   C17F 9971   2.174   4.897   8.996  0.0617  0.4304  0.5224
   99OSM   H17F 9972   2.197   4.790   9.018  0.9138  0.9026  2.1257
   99OSM   H17G 9973   2.254   4.935   8.929 -0.8789 -1.5542 -1.8687
   99OSM   C18F 9974   2.030   4.909   8.931 -1.1023  0.3815  0.2983
   99OSM   H18F 9975   2.025   4.845   8.840 -0.8182 -2.0308  1.8959
   99OSM   H18G 9976   2.017   5.012   8.892  0.1217 -0.3427 -2.2268
   99OSM   H18H 9977   1.947   4.882   9.000  0.5384 -1.0168  1.8158
  100OSM      N 9978   2.938   6.187  10.938 -0.7457  0.7082 -0.0494
  100OSM    C15 9979   2.971   6.298  11.028 -0.4515  0.3383 -0.8790
  100OSM   H15A 9980   3.073   6.332  11.015  0.3610 -2.0572 -1.4471
  100OSM   H15B 9981   2.949   6.273  11.131  1.9333 -2.4275 -0.9167
  100OSM   H15C 9982   2.905   6.377  10.997 -1.3184 -0.0559 -0.0808
  100OSM    C14 9983   3.026   6.070  10.956 -0.2659 -0.2791 -0.0245
  100OSM   H14A 9984   3.129   6.092  10.929 -0.5264 -1.0722 -1.7910
  100OSM   H14B 9985   2.997   5.999  10.880  2.5037  1.0088 -2.4672
  100OSM   H14C 9986   3.019   6.023  11.053  0.1280  0.3154  0.2994
  100OSM    C13 9987   2.800   6.139  10.977 -0.1638 -0.4707  0.2099
  100OSM   H13A 9988   2.733   6.216  11.012 -1.3211 -1.4409  0.1853
  100OSM   H13B 9989   2.811   6.086  11.071 -3.6142  1.8050  2.1416
  100OSM   H13C 9990   2.754   6.075  10.903  2.3164 -1.6785 -0.3856
  100OSM    C12 9991   2.940   6.229  10.793 -0.9338  0.2557 -0.3143
  100OSM   H12A 9992   2.921   6.141  10.734 -0.5036 -1.1905  1.6127
  100OSM   H12B 9993   3.039   6.261  10.764 -1.4773  2.9479  0.4676
  100OSM    C11 9994   2.838   6.338  10.737  0.4696 -0.1217 -0.3857
  100OSM   H11A 9995   2.741   6.291  10.709 -0.3294  1.3242 -0.1663
  100OSM   H11B 9996   2.885   6.370  10.642  1.9037 -0.0896  0.3094
  100OSM      P 9997   2.699   6.505  10.870 -0.2413  0.2926  0.4108
  100OSM    O13 9998   2.620   6.395  10.927  0.0360 -0.3950 -0.1032
  100OSM    O14 9999   2.715   6.618  10.959  0.0026 -0.3578 -0.0537
  100OSM    O1110000   2.622   6.550  10.740  0.1100 -0.0368  0.2507
  100OSM    O1210001   2.831   6.460  10.812 -0.2586 -0.2358 -0.6685
  100OSM    C1S10002   2.489   6.599  10.752  1.0832 -0.0298  0.1576
  100OSM    H1S10003   2.493   6.691  10.816  1.4345 -0.4799  0.7931
  100OSM    H1T10004   2.413   6.530  10.793 -0.2653 -1.3807 -4.0876
  100OSM     NF10005   2.337   6.736  10.631  0.4870 -0.1629 -0.7102
  100OSM    HNF10006   2.244   6.706  10.648  0.6715 -1.8520 -2.3737
  100OSM    C2S10007   2.429   6.633  10.615 -0.2746  0.3562  0.3131
  100OSM    H2S10008   2.501   6.679  10.544 -0.6736 -0.2441 -0.4866
  100OSM    C3S10009   2.376   6.508  10.543 -0.2360 -0.3613  0.4612
  100OSM    H3S10010   2.289   6.472  10.601 -2.2389  1.8612 -0.9746
  100OSM     O310011   2.466   6.395  10.531 -0.0446 -0.5820  0.3974
  100OSM    HO310012   2.530   6.405  10.602  1.9924  0.9924 -1.5183
  100OSM    C4S10013   2.319   6.550  10.408  0.9461  0.2565 -0.0443
  100OSM    H4S10014   2.209   6.556  10.399  0.9517  1.0548  0.2780
  100OSM    C5S10015   2.383   6.571  10.285 -0.7463  0.4153 -0.2134
  100OSM    H5S10016   2.487   6.537  10.270 -0.5836  1.2654 -1.0906
  100OSM    C6S10017   2.317   6.612  10.158 -0.3168 -0.1703 -0.2290
  100OSM    H6S10018   2.365   6.705  10.121 -1.1459  0.4158  0.1109
  100OSM    H6T10019   2.214   6.651  10.174 -0.3179 -0.9205  1.9201
  100OSM    C7S10020   2.310   6.507  10.042 -0.2371  0.3854 -0.2885
  100OSM    H7S10021   2.245   6.422  10.070  0.0659 -0.1751 -1.2478
  100OSM    H7T10022   2.405   6.452  10.024  0.0242  0.5236  0.6414
  100OSM    C8S10023   2.228   6.562   9.918  0.3325 -0.1400  0.6681
  100OSM    H8S10024   2.263   6.664   9.891  1.6513 -0.8173 -0.2756
  100OSM    H8T10025   2.119   6.555   9.939  0.3937  0.1181  1.0801
  100OSM    C9S10026   2.246   6.492   9.783  0.1862 -0.0667  0.2281
  100OSM    H9S10027   2.227   6.383   9.793 -0.3166  0.1669  2.2585
  100OSM    H9T10028   2.356   6.496   9.768  0.2705 -0.3967  0.7188
  100OSM   C10S10029   2.162   6.531   9.665  0.0246 -0.6277 -0.3276
  100OSM   H10S10030   2.186   6.634   9.632  0.1593 -1.3229 -2.6238
  100OSM   H10T10031   2.056   6.529   9.697 -0.1430  0.7854 -0.7407
  100OSM   C11S10032   2.180   6.442   9.537  0.1159 -0.0030  0.4764
  100OSM   H11S10033   2.145   6.338   9.549 -0.5044  0.2950  1.3638
  100OSM   H11T10034   2.289   6.444   9.513 -0.0465  1.5809 -0.2697
  100OSM   C12S10035   2.095   6.503   9.426  0.0649  0.1072  0.6155
  100OSM   H12S10036   2.069   6.611   9.427  1.0318  0.3545  0.1083
  100OSM   H12T10037   1.997   6.452   9.439 -1.8451  3.3682  0.0863
  100OSM   C13S10038   2.147   6.473   9.281 -0.4871 -0.0473  0.0791
  100OSM   H13S10039   2.189   6.370   9.276  0.0809  0.2049 -4.1112
  100OSM   H13T10040   2.234   6.541   9.264  0.1197 -1.1337 -1.4123
  100OSM   C14S10041   2.052   6.500   9.166  0.5510  0.4487 -0.2613
  100OSM   H14S10042   1.994   6.593   9.183  0.6959  0.2633  1.3514
  100OSM   H14T10043   1.982   6.413   9.166 -0.1203  0.9781 -1.0816
  100OSM   C15S10044   2.121   6.509   9.030  0.1096  0.4081  0.7387
  100OSM   H15S10045   2.161   6.408   9.008  1.5307  1.2216 -0.6477
  100OSM   H15T10046   2.199   6.588   9.040  1.0869 -0.6364  1.7225
  100OSM   C16S10047   2.034   6.542   8.914  0.0903 -0.3538  0.7579
  100OSM   H16S10048   1.959   6.460   8.910 -0.0806 -0.1734  0.0862
  100OSM   H16T10049   2.098   6.552   8.823  2.5376  2.0508  2.5607
  100OSM   C17S10050   1.958   6.681   8.918 -0.3668  0.2050  0.0455
  100OSM   H17S10051   2.042   6.753   8.907 -0.9194  0.9786  0.6933
  100OSM   H17T10052   1.904   6.699   9.014  1.5163  1.6346  0.9068
  100OSM   C18S10053   1.874   6.692   8.792  0.4852  0.2514  0.5262
  100OSM   H18S10054   1.927   6.651   8.703 -1.4096  0.4255 -0.7354
  100OSM   H18T10055   1.843   6.797   8.772  3.9291  1.4850  1.0373
  100OSM   H18U10056   1.783   6.629   8.804 -0.4816  1.4255 -0.3702
  100OSM    C1F10057   2.370   6.864  10.655 -0.0219 -0.9314  0.0824
  100OSM     OF10058   2.486   6.897  10.665  0.3140 -0.2375 -0.3386
  100OSM    C2F10059   2.262   6.969  10.675  1.0254  0.0727 -0.0261
  100OSM    H2F10060   2.301   7.033  10.757  1.2822  0.6667 -0.6018
  100OSM    H2G10061   2.163   6.924  10.696  0.7808 -2.1631 -4.6300
  100OSM    C3F10062   2.249   7.051  10.545  0.3152  0.1824 -0.5562
  100OSM    H3F10063   2.353   7.084  10.525  0.2122  0.1709 -1.1178
  100OSM    H3G10064   2.197   7.145  10.573  0.0585  0.1831 -1.0221
  100OSM    C4F10065   2.182   6.982  10.429  0.3089 -0.0448 -0.2305
  100OSM    H4F10066   2.226   6.885  10.398  0.0261 -0.3080  0.1656
  100OSM    H4G10067   2.187   7.053  10.344  2.2806  0.3636  0.1798
  100OSM    C5F10068   2.035   6.945  10.458 -0.4352 -0.2436  0.5938
  100OSM    H5F10069   1.979   7.027  10.508  0.1543  0.9490 -0.6405
  100OSM    H5G10070   2.027   6.854  10.522  2.0797 -0.7190  0.3569
  100OSM    C6F10071   1.951   6.925  10.328 -0.2961  1.0646 -0.6579
  100OSM    H6F10072   1.976   7.004  10.254  0.8358 -0.0702 -1.5405
  100OSM    H6G10073   1.841   6.926  10.345 -0.5902 -1.1065 -1.9359
  100OSM    C7F10074   1.981   6.787  10.261 -0.4492 -0.5295  0.5172
  100OSM    H7F10075   1.914   6.708  10.300  0.0935 -1.2057  0.1041
  100OSM    H7G10076   2.086   6.772  10.293  0.3286  4.1681  0.8916
  100OSM    C8F10077   1.985   6.793  10.109 -0.3551  0.0901 -0.7635
  100OSM    H8F10078   2.007   6.689  10.075 -1.7956  0.3725 -2.7017
  100OSM    H8G10079   2.066   6.860  10.074 -0.1228 -0.5801 -1.5436
  100OSM    C9F10080   1.860   6.842  10.047  0.0106  0.0347 -0.2208
  100OSM    H9F10081   1.764   6.796  10.076 -0.5498  0.1281 -1.8518
  100OSM   C10F10082   1.846   6.934   9.948 -0.8588 -0.0708 -0.1796
  100OSM   H10F10083   1.740   6.948   9.920 -1.1911 -1.6173  0.1856
  100OSM   C11F10084   1.963   7.006   9.887  0.0540 -0.0356  0.6295
  100OSM   H11F10085   2.056   6.945   9.886  0.2932  0.3099 -0.8969
  100OSM   H11G10086   1.990   7.093   9.950 -0.5324  1.0688 -0.6044
  100OSM   C12F10087   1.951   7.063   9.738  0.0592 -0.3692  0.0327
  100OSM   H12F10088   2.032   7.136   9.720 -1.9651  2.2574  0.8275
  100OSM   H12G10089   1.857   7.123   9.736 -0.8164 -1.3744  3.3549
  100OSM   C13F10090   1.940   6.954   9.627 -0.4946  0.7793 -0.0648
  100OSM   H13F10091   1.848   6.892   9.641 -0.0093  0.2818  1.0419
  100OSM   H13G10092   2.028   6.889   9.645 -1.3122 -0.7291 -1.2508
  100OSM   C14F10093   1.942   6.999   9.470  0.3708 -0.3095 -0.2787
  100OSM   H14F10094   2.035   7.056   9.449  1.0098 -1.8698 -1.9406
  100OSM   H14G10095   1.845   7.053   9.459 -0.8364 -2.2117  0.5275
  100OSM   C15F10096   1.942   6.886   9.376 -0.1561 -0.0518  0.3174
  100OSM   H15F10097   1.873   6.815   9.425 -1.6139  0.9769 -0.1486
  100OSM   H15G10098   2.041   6.838   9.363  0.4331  1.1653  0.1083
  100OSM   C16F10099   1.883   6.922   9.241  0.1000  0.0439 -1.2372
  100OSM   H16F10100   1.801   6.995   9.254 -0.1403  0.3414 -3.8959
  100OSM   H16G10101   1.855   6.823   9.198 -0.4572 -1.6301  2.5292
  100OSM   C17F10102   1.992   6.986   9.149  0.1731 -0.0388  0.3525
  100OSM   H17F10103   2.077   6.915   9.145 -1.1302 -1.6404 -0.5728
  100OSM   H17G10104   2.010   7.081   9.203 -0.6048  0.8088 -0.8207
  100OSM   C18F10105   1.934   7.018   9.005 -0.0817  0.0351 -0.1021
  100OSM   H18F10106   2.021   7.034   8.938  1.5321 -0.2873  1.8135
  100OSM   H18G10107   1.886   7.118   9.005 -0.3742 -0.1007 -0.5969
  100OSM   H18H10108   1.856   6.944   8.974  0.7071 -0.2773 -1.4224
  101OSM      N10109   6.131   6.140  11.189 -0.3893 -0.4949 -0.0602
  101OSM    C1510110   6.263   6.174  11.261 -0.4650  0.1091 -0.0794
  101OSM   H15A10111   6.257   6.201  11.365 -1.3356 -1.1833  0.2185
  101OSM   H15B10112   6.299   6.262  11.209  0.3205  0.0609  0.3594
  101OSM   H15C10113   6.332   6.091  11.268 -0.9965 -0.4295 -1.0634
  101OSM    C1410114   6.068   6.032  11.269  0.2087 -0.1273  0.6378
  101OSM   H14A10115   5.970   6.016  11.226 -0.6144  4.0350  0.5146
  101OSM   H14B10116   6.054   6.061  11.372  2.4754 -1.1268  1.2922
  101OSM   H14C10117   6.122   5.938  11.275 -0.6567 -0.5591  1.9731
  101OSM    C1310118   6.038   6.252  11.189  0.5545  0.2621 -0.0743
  101OSM   H13A10119   5.943   6.239  11.141 -0.1916  1.3904  1.0177
  101OSM   H13B10120   6.080   6.339  11.140  4.0668 -2.4155 -2.2680
  101OSM   H13C10121   5.999   6.271  11.288 -2.1489 -0.6224 -0.8850
  101OSM    C1210122   6.178   6.100  11.048  0.4254  0.8818 -0.1327
  101OSM   H12A10123   6.260   6.032  11.062  0.1402  0.3406 -1.0273
  101OSM   H12B10124   6.220   6.190  11.004 -1.0822  0.8628 -1.7334
  101OSM    C1110125   6.079   6.040  10.945 -0.0876  0.5207  0.0273
  101OSM   H11A10126   6.141   6.022  10.854  0.9812  4.7050 -0.2727
  101OSM   H11B10127   6.007   6.119  10.918  0.2734  0.6958 -0.4456
  101OSM      P10128   6.095   5.778  10.993 -0.1012  0.0141 -0.0992
  101OSM    O1310129   6.230   5.787  11.057 -0.1734 -0.0733 -0.1769
  101OSM    O1410130   6.001   5.675  11.045 -0.2083 -0.2761 -0.5056
  101OSM    O1110131   6.113   5.764  10.845 -0.2980 -0.2054  0.4417
  101OSM    O1210132   6.017   5.920  11.000 -0.1707  0.0106  0.0817
  101OSM    C1S10133   6.001   5.780  10.750 -0.4162  1.0424 -0.0333
  101OSM    H1S10134   5.942   5.873  10.767  0.1385  1.8370 -2.1827
  101OSM    H1T10135   5.933   5.694  10.762  0.3830  0.4231  0.1512
  101OSM     NF10136   5.948   5.800  10.512  0.2551  0.4313 -0.0544
  101OSM    HNF10137   5.912   5.728  10.453 -0.5691  0.7994 -0.0155
  101OSM    C2S10138   6.055   5.773  10.603 -0.3380  0.0356 -0.1923
  101OSM    H2S10139   6.126   5.859  10.602  0.2255 -0.3159  2.3672
  101OSM    C3S10140   6.134   5.644  10.581 -0.4316 -0.4190  0.4263
  101OSM    H3S10141   6.076   5.550  10.588 -0.2530 -0.4369  1.9778
  101OSM     O310142   6.248   5.630  10.672 -0.4895 -0.4291  0.2526
  101OSM    HO310143   6.227   5.691  10.743 -2.3429 -1.4779  0.6788
  101OSM    C4S10144   6.182   5.631  10.439  0.4175  0.4004 -0.3819
  101OSM    H4S10145   6.112   5.572  10.378  0.4738 -0.6962  0.5914
  101OSM    C5S10146   6.290   5.676  10.374  0.3533 -0.6311 -1.0606
  101OSM    H5S10147   6.360   5.731  10.440 -1.1831 -0.4265  0.4773
  101OSM    C6S10148   6.322   5.646  10.236  0.2364 -0.6876  0.1001
  101OSM    H6S10149   6.264   5.561  10.192  0.8895 -0.9469 -0.2895
  101OSM    H6T10150   6.427   5.610  10.231  0.8477  1.1610 -2.8862
  101OSM    C7S10151   6.309   5.763  10.140  0.7938  0.4932  0.1864
  101OSM    H7S10152   6.372   5.851  10.165 -0.7016  1.9777 -1.0203
  101OSM    H7T10153   6.202   5.793  10.131  0.3978 -1.2292 -1.5035
  101OSM    C8S10154   6.344   5.706   9.999 -0.3005 -0.1491  0.4572
  101OSM    H8S10155   6.270   5.624   9.985 -0.3185 -0.3355  1.5220
  101OSM    H8T10156   6.450   5.673   9.999 -0.8003 -1.8843 -0.7849
  101OSM    C9S10157   6.319   5.819   9.907 -0.2011 -0.3285  0.5714
  101OSM    H9S10158   6.371   5.912   9.938  1.0801  0.0588 -2.3524
  101OSM    H9T10159   6.209   5.837   9.911 -0.0603  0.4107  1.3642
  101OSM   C10S10160   6.369   5.788   9.756 -0.2412 -0.4340  0.4002
  101OSM   H10S10161   6.392   5.679   9.753 -2.5518 -0.9689 -1.4279
  101OSM   H10T10162   6.468   5.833   9.734  0.4679 -2.0508  0.0725
  101OSM   C11S10163   6.260   5.832   9.661 -0.4760  0.1347 -0.3031
  101OSM   H11S10164   6.240   5.940   9.679  2.0550  0.4767  1.0241
  101OSM   H11T10165   6.174   5.767   9.688 -0.3374  0.2239  0.3737
  101OSM   C12S10166   6.295   5.807   9.518 -0.1940  1.0504 -0.2176
  101OSM   H12S10167   6.202   5.837   9.466 -0.4518  0.9692  0.1971
  101OSM   H12T10168   6.309   5.700   9.490 -0.2972  1.0380 -0.2198
  101OSM   C13S10169   6.415   5.895   9.463  0.4612  0.3552  0.5187
  101OSM   H13S10170   6.502   5.862   9.525  2.6744  1.8280 -1.6439
  101OSM   H13T10171   6.403   5.999   9.499  0.8440 -0.3444  2.8312
  101OSM   C14S10172   6.441   5.861   9.316  0.8106  0.2495  0.2938
  101OSM   H14S10173   6.474   5.756   9.307 -0.9211 -0.3895  0.9289
  101OSM   H14T10174   6.517   5.927   9.268  1.9308 -1.9008 -1.0504
  101OSM   C15S10175   6.314   5.880   9.224 -0.4987  0.1217 -0.5003
  101OSM   H15S10176   6.253   5.966   9.260 -0.9122 -0.1683 -0.5049
  101OSM   H15T10177   6.251   5.789   9.221  1.9120 -1.6302 -2.2810
  101OSM   C16S10178   6.346   5.900   9.075  0.3958 -0.0055 -0.0630
  101OSM   H16S10179   6.405   5.992   9.053 -0.3132 -0.3988 -4.5335
  101OSM   H16T10180   6.253   5.902   9.015  0.0584  1.6241  0.4544
  101OSM   C17S10181   6.433   5.789   9.006 -0.4379  0.9256  0.1932
  101OSM   H17S10182   6.383   5.690   9.011  1.5512 -0.1826 -0.6121
  101OSM   H17T10183   6.530   5.781   9.059 -1.3767  3.9122  2.6292
  101OSM   C18S10184   6.464   5.823   8.856 -0.0114  0.4824  0.7025
  101OSM   H18S10185   6.366   5.854   8.815 -0.1213  1.2868  1.5578
  101OSM   H18T10186   6.520   5.748   8.796 -0.1210  0.2248  0.9223
  101OSM   H18U10187   6.524   5.916   8.867  1.8700 -0.2508 -2.0256
  101OSM    C1F10188   5.891   5.925  10.522 -0.4912 -0.0776  0.4546
  101OSM     OF10189   5.929   6.015  10.590 -0.1631  0.5014 -0.2440
  101OSM    C2F10190   5.775   5.940  10.430  0.5887 -0.4331 -0.0632
  101OSM    H2F10191   5.699   6.003  10.482 -0.3343  0.0618 -1.9133
  101OSM    H2G10192   5.737   5.838  10.407  0.7849 -0.6880  0.7198
  101OSM    C3F10193   5.824   6.012  10.299 -0.0983  0.3396  0.2830
  101OSM    H3F10194   5.914   5.959  10.260 -0.0525  1.4660 -1.2381
  101OSM    H3G10195   5.872   6.110  10.319  2.0573 -0.3232 -1.1716
  101OSM    C4F10196   5.714   6.024  10.195 -0.2890  0.5778  0.2800
  101OSM    H4F10197   5.620   6.050  10.247 -1.6881 -1.5782 -0.9995
  101OSM    H4G10198   5.697   5.923  10.152  2.8099 -0.0810  0.3492
  101OSM    C5F10199   5.755   6.102  10.077  0.1211 -1.3170  0.1599
  101OSM    H5F10200   5.849   6.052  10.045 -0.1232 -1.3300 -0.5442
  101OSM    H5G10201   5.772   6.207  10.110 -2.0035 -0.4000 -1.4709
  101OSM    C6F10202   5.651   6.094   9.967  0.0287 -0.1109 -0.1479
  101OSM    H6F10203   5.648   5.986   9.938 -0.4086 -0.5932  1.5958
  101OSM    H6G10204   5.554   6.116  10.015 -0.4214  0.0033 -1.0959
  101OSM    C7F10205   5.675   6.190   9.850 -0.2343  0.2657 -0.3004
  101OSM    H7F10206   5.779   6.179   9.814  0.7128  1.3495  1.9321
  101OSM    H7G10207   5.667   6.294   9.889 -0.4611  0.5575 -1.1080
  101OSM    C8F10208   5.581   6.160   9.736  0.1668 -0.6823  0.2575
  101OSM    H8F10209   5.474   6.169   9.764 -0.0826 -1.2549 -0.4624
  101OSM    H8G10210   5.602   6.060   9.692  2.1181 -0.6290  0.9698
  101OSM    C9F10211   5.607   6.263   9.628 -0.0378 -0.0731  0.1937
  101OSM    H9F10212   5.705   6.313   9.625  1.0500 -2.0705  0.2406
  101OSM   C10F10213   5.524   6.294   9.527 -0.2062  1.0803  0.1504
  101OSM   H10F10214   5.547   6.377   9.458  0.8060  0.3727 -0.3937
  101OSM   C11F10215   5.390   6.228   9.509 -0.0863 -0.8444 -0.5204
  101OSM   H11F10216   5.321   6.282   9.577  2.5014  0.7536  1.0360
  101OSM   H11G10217   5.393   6.121   9.539 -1.9717 -0.6394  0.5524
  101OSM   C12F10218   5.326   6.226   9.370 -0.1348  0.2324 -0.1001
  101OSM   H12F10219   5.294   6.328   9.341  0.7650  0.0369 -1.8737
  101OSM   H12G10220   5.235   6.164   9.385  1.4621 -2.1070  0.5758
  101OSM   C13F10221   5.415   6.170   9.255 -0.0033 -0.5097  0.2101
  101OSM   H13F10222   5.443   6.067   9.286 -0.4032 -0.3880  1.0040
  101OSM   H13G10223   5.511   6.224   9.240 -1.1448  1.9129  1.1147
  101OSM   C14F10224   5.341   6.162   9.127 -0.3516 -0.5758  0.1499
  101OSM   H14F10225   5.236   6.138   9.153  0.0797 -1.5460  1.0610
  101OSM   H14G10226   5.390   6.091   9.057  1.6225  1.2346 -0.4270
  101OSM   C15F10227   5.353   6.300   9.059  0.3650 -0.2408  0.0289
  101OSM   H15F10228   5.461   6.300   9.036  0.6678  1.2847  1.2656
  101OSM   H15G10229   5.325   6.381   9.130 -0.4170  0.6173 -1.2267
  101OSM   C16F10230   5.262   6.333   8.939  0.2902 -0.1652  0.4601
  101OSM   H16F10231   5.283   6.256   8.861 -0.8176 -1.6419  1.5393
  101OSM   H16G10232   5.307   6.422   8.891  3.7467 -1.6921  0.5720
  101OSM   C17F10233   5.113   6.338   8.978  0.6039  0.0730  0.1286
  101OSM   H17F10234   5.097   6.427   9.043 -1.5783  0.4062 -0.7982
  101OSM   H17G10235   5.090   6.256   9.050  0.7735 -0.2856 -0.2205
  101OSM   C18F10236   5.020   6.330   8.862  0.9952  0.1344 -0.2141
  101OSM   H18F10237   4.919   6.302   8.899  0.4301 -1.3211 -2.6440
  101OSM   H18G10238   5.055   6.250   8.793 -0.6675 -1.3694  0.6132
  101OSM   H18H10239   5.007   6.427   8.809  3.7984  1.4363  1.2755
  102OSM      N10240   0.225   0.395  11.045  0.1580  0.4180  0.0045
  102OSM    C1510241   0.262   0.451  11.175  0.2565 -0.3171 -0.4635
  102OSM   H15A10242   0.361   0.430  11.211 -0.0498 -0.1090  0.5281
  102OSM   H15B10243   0.191   0.415  11.247 -1.0317  0.8479 -1.0981
  102OSM   H15C10244   0.246   0.557  11.187 -1.7813 -0.6495  0.1710
  102OSM    C1410245   0.233   0.246  11.051  0.0572 -0.3487 -0.5496
  102OSM   H14A10246   0.163   0.199  11.119  1.9213 -3.0176 -0.3125
  102OSM   H14B10247   0.339   0.228  11.060  0.1992  0.0375 -1.3809
  102OSM   H14C10248   0.200   0.198  10.961 -0.4621 -0.8490 -0.1029
  102OSM    C1310249   0.084   0.440  11.026  1.0778  0.5402  0.3798
  102OSM   H13A10250   0.039   0.430  10.928  1.6938 -1.5969  0.2546
  102OSM   H13B10251   0.079   0.543  11.056 -0.0081  0.3227  0.9961
  102OSM   H13C10252   0.019   0.380  11.089 -1.0374  0.3824 -1.8077
  102OSM    C1210253   0.310   0.440  10.925 -0.1349  0.5020 -0.1478
  102OSM   H12A10254   0.413   0.413  10.942 -0.7658 -1.8088  0.2586
  102OSM   H12B10255   0.310   0.548  10.915  1.3732  0.3357 -2.5215
  102OSM    C1110256   0.264   0.395  10.785  0.3673  0.7858  0.0191
  102OSM   H11A10257   0.304   0.464  10.708  0.0255 -0.0960 -0.9770
  102OSM   H11B10258   0.153   0.387  10.775  0.3159  0.5200  0.7199
  102OSM      P10259   0.457   0.236  10.711 -0.3728  0.2035 -0.1434
  102OSM    O1310260   0.524   0.361  10.676 -0.0041 -0.2782 -0.4682
  102OSM    O1410261   0.519   0.150  10.811  0.3817  0.6464 -0.3076
  102OSM    O1110262   0.430   0.155  10.579  0.3180  0.5457 -0.1735
  102OSM    O1210263   0.309   0.266  10.752 -0.1697 -0.2272  0.0813
  102OSM    C1S10264   0.335   0.197  10.489  0.0825 -0.1985 -0.4800
  102OSM    H1S10265   0.257   0.265  10.529  0.1576  0.1299 -0.8797
  102OSM    H1T10266   0.282   0.104  10.458 -1.6045  0.3839  0.5421
  102OSM     NF10267   0.286   0.252  10.255 -0.6769  0.3762  0.0534
  102OSM    HNF10268   0.297   0.169  10.200  1.3269  0.5893  0.0670
  102OSM    C2S10269   0.393   0.263  10.354  0.4539  1.1182  0.5783
  102OSM    H2S10270   0.416   0.368  10.380  1.7070  0.6464  1.4649
  102OSM    C3S10271   0.526   0.196  10.326  0.4882 -0.2382 -0.3904
  102OSM    H3S10272   0.504   0.087  10.324 -1.1901  0.0523 -2.6926
  102OSM     O310273   0.627   0.225  10.422 -0.4005  0.1132 -0.0769
  102OSM    HO310274   0.577   0.262  10.495 -0.3731  1.2662 -0.6094
  102OSM    C4S10275   0.576   0.238  10.186 -0.2890  0.3162 -0.1942
  102OSM    H4S10276   0.603   0.344  10.180 -1.6237  0.6137 -1.4721
  102OSM    C5S10277   0.596   0.153  10.086  0.2069  0.6093  0.7158
  102OSM    H5S10278   0.563   0.048  10.094 -0.1536  0.5950 -0.6606
  102OSM    C6S10279   0.663   0.191   9.954  0.5900  0.7755  0.2297
  102OSM    H6S10280   0.716   0.100   9.920 -1.7116 -1.2369  1.6731
  102OSM    H6T10281   0.729   0.278   9.977 -0.3615  2.2674 -2.2483
  102OSM    C7S10282   0.563   0.237   9.841  0.4345  1.0337 -0.1840
  102OSM    H7S10283   0.496   0.317   9.876 -1.3813  0.1883 -1.5747
  102OSM    H7T10284   0.500   0.150   9.814  2.1049 -0.7589  1.3883
  102OSM    C8S10285   0.647   0.271   9.713 -0.8898 -0.1213  0.7759
  102OSM    H8S10286   0.726   0.197   9.689  0.9953  2.1322 -0.3283
  102OSM    H8T10287   0.697   0.365   9.745 -0.5636  0.2677 -0.7970
  102OSM    C9S10288   0.555   0.280   9.600  0.3334 -0.4994 -0.5162
  102OSM    H9S10289   0.484   0.364   9.615  1.6851  0.9688 -2.0871
  102OSM    H9T10290   0.486   0.192   9.602  0.5668 -0.6953  1.4128
  102OSM   C10S10291   0.624   0.294   9.465 -0.6097 -0.2163 -0.8200
  102OSM   H10S10292   0.672   0.198   9.437  2.1491  0.4713  1.1802
  102OSM   H10T10293   0.710   0.363   9.474 -1.0312  0.5085 -2.0176
  102OSM   C11S10294   0.532   0.340   9.343 -0.0828  0.1722 -0.0113
  102OSM   H11S10295   0.478   0.429   9.383 -0.4355  0.5575 -1.2970
  102OSM   H11T10296   0.459   0.259   9.319  0.5853 -0.3875 -0.1928
  102OSM   C12S10297   0.613   0.371   9.221 -0.1471 -0.9838 -0.0636
  102OSM   H12S10298   0.673   0.458   9.254  0.6689 -0.9748 -1.5009
  102OSM   H12T10299   0.544   0.421   9.150 -0.6875  1.1055  1.8099
  102OSM   C13S10300   0.672   0.251   9.151 -0.2256 -0.0569 -0.6370
  102OSM   H13S10301   0.597   0.176   9.118  0.7159 -1.0871 -0.5150
  102OSM   H13T10302   0.740   0.213   9.230 -0.7414  1.0229  0.3654
  102OSM   C14S10303   0.750   0.288   9.035  1.0009  0.0266  0.5634
  102OSM   H14S10304   0.823   0.367   9.062  0.7953  0.2974  0.3371
  102OSM   H14T10305   0.677   0.323   8.959  1.4193  0.3387  0.2948
  102OSM   C15S10306   0.833   0.168   8.966  0.8162  0.4826  0.2590
  102OSM   H15S10307   0.903   0.124   9.041  1.6719  1.1778 -0.1219
  102OSM   H15T10308   0.899   0.216   8.891  0.1593 -0.5406 -1.0037
  102OSM   C16S10309   0.750   0.056   8.900 -0.2976  0.2341 -0.2658
  102OSM   H16S10310   0.657   0.024   8.952 -0.1110  0.1125 -0.0048
  102OSM   H16T10311   0.808  -0.039   8.906  0.5027  0.5429 -2.4366
  102OSM   C17S10312   0.731   0.086   8.751 -0.0565  0.4326  0.0177
  102OSM   H17S10313   0.828   0.096   8.698 -0.2661  1.9432 -0.1146
  102OSM   H17T10314   0.684   0.187   8.752 -2.6238 -0.6906 -0.3870
  102OSM   C18S10315   0.636  -0.007   8.665 -1.0698  0.6955 -0.5833
  102OSM   H18S10316   0.690  -0.102   8.645  1.4196  1.7726  0.5491
  102OSM   H18T10317   0.611   0.048   8.572  1.3042  1.1222 -1.0165
  102OSM   H18U10318   0.544  -0.029   8.724  0.2504  0.6557  1.5714
  102OSM    C1F10319   0.212   0.352  10.230  0.4940  0.4801 -0.5686
  102OSM     OF10320   0.200   0.445  10.309 -0.3674  0.3461 -0.1666
  102OSM    C2F10321   0.127   0.355  10.109 -0.1555  0.2245 -0.4645
  102OSM    H2F10322   0.039   0.418  10.132 -1.3342 -1.8153  1.0084
  102OSM    H2G10323   0.092   0.250  10.106 -0.3946  0.1696  1.9618
  102OSM    C3F10324   0.192   0.404   9.982 -0.8811 -0.2876  0.4967
  102OSM    H3F10325   0.285   0.344   9.964 -0.0549  1.4185 -1.3584
  102OSM    H3G10326   0.220   0.511   9.987 -0.1016 -0.4827  0.5387
  102OSM    C4F10327   0.104   0.396   9.853  0.4822  0.2316  0.2184
  102OSM    H4F10328   0.023   0.471   9.853 -0.0239 -0.1940  2.9346
  102OSM    H4G10329   0.078   0.290   9.874 -0.6854  0.6665  1.0295
  102OSM    C5F10330   0.194   0.412   9.724  0.6126  0.1804  0.1181
  102OSM    H5F10331   0.249   0.315   9.721  0.7164  0.1771  1.4257
  102OSM    H5G10332   0.271   0.490   9.743  2.2762 -1.3273 -0.1563
  102OSM    C6F10333   0.108   0.441   9.599  0.0725  0.9210  0.2558
  102OSM    H6F10334   0.052   0.535   9.620 -0.9256  0.1652  1.1029
  102OSM    H6G10335   0.028   0.364   9.588  0.5791  0.5899 -1.3016
  102OSM    C7F10336   0.180   0.429   9.460 -0.2065 -0.1779 -0.3419
  102OSM    H7F10337   0.253   0.345   9.466  0.2086  0.3075  2.7153
  102OSM    H7G10338   0.239   0.521   9.445 -1.7814  0.7080 -1.4631
  102OSM    C8F10339   0.073   0.405   9.351 -0.6159  0.7312  0.4761
  102OSM    H8F10340   0.020   0.311   9.376  1.5884 -0.6578  0.1812
  102OSM    H8G10341   0.135   0.373   9.264 -0.7280 -0.4645  0.8234
  102OSM    C9F10342  -0.013   0.523   9.321  0.3675  0.9268 -0.5034
  102OSM    H9F10343  -0.113   0.524   9.367  0.7514  1.7218  0.3646
  102OSM   C10F10344   0.029   0.625   9.249  0.3195 -0.1896  0.2433
  102OSM   H10F10345  -0.041   0.710   9.240 -0.1795 -0.6510 -0.3303
  102OSM   C11F10346   0.170   0.640   9.188 -0.4433  0.8623  0.5118
  102OSM   H11F10347   0.237   0.552   9.200 -0.5189  0.8349  0.7392
  102OSM   H11G10348   0.225   0.711   9.254 -1.3631  0.5806  1.6163
  102OSM   C12F10349   0.179   0.686   9.040  0.0955 -0.7708  0.7067
  102OSM   H12F10350   0.285   0.695   9.007  0.1573  1.3453  1.3518
  102OSM   H12G10351   0.129   0.783   9.022  0.5159 -0.3981  1.4816
  102OSM   C13F10352   0.114   0.582   8.945  0.1566  0.2315 -0.2133
  102OSM   H13F10353   0.006   0.586   8.970  0.1812  0.0143 -0.0672
  102OSM   H13G10354   0.135   0.475   8.967 -1.4187  0.2691  1.7217
  102OSM   C14F10355   0.136   0.603   8.788  0.0153 -0.7357  0.8482
  102OSM   H14F10356   0.244   0.610   8.763 -0.3583  1.0808 -0.4475
  102OSM   H14G10357   0.093   0.704   8.772  0.8097 -0.7368 -1.7391
  102OSM   C15F10358   0.096   0.495   8.688  0.4748  0.2160 -0.3432
  102OSM   H15F10359   0.168   0.410   8.692 -0.7985 -1.1236 -3.0612
  102OSM   H15G10360   0.096   0.530   8.582 -0.6171  3.0206  0.4849
  102OSM   C16F10361  -0.040   0.435   8.723  0.0559  0.2480 -0.3566
  102OSM   H16F10362  -0.062   0.442   8.832  3.5802  2.9027  0.3860
  102OSM   H16G10363  -0.044   0.333   8.681  0.0532 -0.3913  1.1355
  102OSM   C17F10364  -0.163   0.510   8.663  0.1788 -0.7670  0.2513
  102OSM   H17F10365  -0.181   0.466   8.562 -0.9309  0.3413 -0.0679
  102OSM   H17G10366  -0.130   0.615   8.651 -0.0324 -0.7772 -0.5302
  102OSM   C18F10367  -0.288   0.490   8.752  0.2271  0.1262 -0.1678
  102OSM   H18F10368  -0.331   0.387   8.748 -0.9358  0.6476 -1.4855
  102OSM   H18G10369  -0.367   0.561   8.722 -0.3414 -0.0500  0.8431
  102OSM   H18H10370  -0.261   0.503   8.859  0.7290 -1.5028 -0.0719
  103OSM      N10371   0.745   2.439  11.329  0.2317  0.4127 -0.4481
  103OSM    C1510372   0.644   2.338  11.305 -0.3895 -0.5159  0.5152
  103OSM   H15A10373   0.640   2.256  11.376  1.2044 -1.6435 -0.6155
  103OSM   H15B10374   0.679   2.295  11.212  2.7467 -1.0909  1.8246
  103OSM   H15C10375   0.542   2.374  11.308  0.4035  1.8632  0.8707
  103OSM    C1410376   0.745   2.464  11.476  0.2217 -0.0712  0.3171
  103OSM   H14A10377   0.806   2.552  11.493  0.9567 -0.3929 -0.5945
  103OSM   H14B10378   0.784   2.381  11.532 -1.8727 -0.3710  1.4267
  103OSM   H14C10379   0.644   2.486  11.510 -0.0330 -0.6683 -0.0446
  103OSM    C1310380   0.880   2.379  11.307 -0.1959  0.3074  1.0367
  103OSM   H13A10381   0.887   2.356  11.202  3.1184 -0.4097  1.2892
  103OSM   H13B10382   0.892   2.288  11.364 -0.3099 -0.9659 -0.8934
  103OSM   H13C10383   0.954   2.455  11.327 -1.0559  1.2530  0.7165
  103OSM    C1210384   0.711   2.560  11.254 -0.2764  0.0142  0.2042
  103OSM   H12A10385   0.772   2.647  11.271 -2.9668  2.1139 -0.0783
  103OSM   H12B10386   0.617   2.597  11.292 -0.2561  0.8213 -0.4911
  103OSM    C1110387   0.707   2.535  11.099  0.3160 -0.8182  0.0493
  103OSM   H11A10388   0.668   2.630  11.055  1.0277  0.5780  2.2592
  103OSM   H11B10389   0.644   2.449  11.068  0.2064 -0.3468 -1.1273
  103OSM      P10390   0.953   2.630  11.056  0.0321 -0.2181 -0.5575
  103OSM    O1310391   0.934   2.725  11.167 -0.7014  0.9651  0.3596
  103OSM    O1410392   1.084   2.565  11.039  0.1243  0.7237 -0.1688
  103OSM    O1110393   0.918   2.704  10.921  0.1276 -0.6544 -0.4099
  103OSM    O1210394   0.841   2.519  11.057 -0.1439 -0.5271  0.1131
  103OSM    C1S10395   0.888   2.637  10.803  0.1978  0.0796  1.1066
  103OSM    H1S10396   0.801   2.569  10.815  2.0686 -2.3964  1.2824
  103OSM    H1T10397   0.979   2.577  10.781  0.6973  0.1553  2.8899
  103OSM     NF10398   0.770   2.704  10.585 -0.7331 -0.1347  0.1014
  103OSM    HNF10399   0.810   2.718  10.495 -0.8923 -0.2123  0.0186
  103OSM    C2S10400   0.853   2.748  10.697  0.1651 -0.3035 -0.3248
  103OSM    H2S10401   0.791   2.826  10.746  1.5018  0.8063 -0.3665
  103OSM    C3S10402   0.992   2.814  10.655  0.0608 -0.2950  0.3180
  103OSM    H3S10403   1.049   2.754  10.581  0.6057  0.4014  0.1619
  103OSM     O310404   1.088   2.843  10.757 -0.0223 -0.0669 -0.4793
  103OSM    HO310405   1.051   2.805  10.837 -0.1789  0.9601 -0.0464
  103OSM    C4S10406   0.967   2.945  10.574  0.3599 -0.1512  0.1677
  103OSM    H4S10407   1.005   2.942  10.471 -0.9442 -0.1923 -0.3350
  103OSM    C5S10408   0.919   3.063  10.619  0.9144  0.3554  0.5010
  103OSM    H5S10409   0.901   3.072  10.727  0.0912  0.1337  0.3917
  103OSM    C6S10410   0.883   3.191  10.543 -0.2132 -0.4242  0.3932
  103OSM    H6S10411   0.910   3.277  10.608 -0.0556 -2.9465  3.9479
  103OSM    H6T10412   0.775   3.209  10.523 -0.1940 -0.2886  0.4099
  103OSM    C7S10413   0.954   3.202  10.405 -0.1278 -0.7376  0.1290
  103OSM    H7S10414   0.923   3.121  10.336 -0.0595 -0.2927 -0.4308
  103OSM    H7T10415   1.061   3.192  10.432 -0.2288  1.8509  1.7955
  103OSM    C8S10416   0.942   3.343  10.336 -1.3823 -0.1673 -0.1044
  103OSM    H8S10417   0.983   3.407  10.417 -3.3965  0.0506  0.8247
  103OSM    H8T10418   0.836   3.379  10.340 -0.5682  2.4669 -0.0759
  103OSM    C9S10419   1.014   3.376  10.204  0.4318  0.4616  0.1900
  103OSM    H9S10420   1.015   3.487  10.196  0.5732  0.4337 -0.1875
  103OSM    H9T10421   0.955   3.340  10.117 -1.4198 -1.6123  2.1390
  103OSM   C10S10422   1.162   3.324  10.205 -0.0549 -0.0538 -0.2833
  103OSM   H10S10423   1.146   3.216  10.187 -0.8126 -0.3055  1.6401
  103OSM   H10T10424   1.201   3.347  10.306 -1.2977  2.3392 -0.2721
  103OSM   C11S10425   1.262   3.386  10.112  0.4317 -1.0236 -0.3215
  103OSM   H11S10426   1.361   3.337  10.124  1.2186  0.3022 -1.2383
  103OSM   H11T10427   1.278   3.492  10.141 -1.2371 -1.3838  2.2325
  103OSM   C12S10428   1.234   3.377   9.963 -0.1641 -0.1539 -0.3517
  103OSM   H12S10429   1.142   3.436   9.945  1.2416  2.3936  0.3605
  103OSM   H12T10430   1.232   3.267   9.950  0.6889 -0.4203  1.4575
  103OSM   C13S10431   1.355   3.426   9.882  0.1153 -0.1313  0.1994
  103OSM   H13S10432   1.448   3.369   9.902  0.8596  1.2882  0.9401
  103OSM   H13T10433   1.381   3.517   9.940  0.6305  0.2573 -0.6259
  103OSM   C14S10434   1.324   3.448   9.741  0.0346 -0.6637  0.1170
  103OSM   H14S10435   1.349   3.552   9.710 -2.5748 -0.0768 -0.2241
  103OSM   H14T10436   1.218   3.429   9.716  0.7073 -0.5135 -3.3134
  103OSM   C15S10437   1.410   3.361   9.650  0.0188  0.8458 -0.2169
  103OSM   H15S10438   1.427   3.259   9.691 -2.4777  0.8807  1.0549
  103OSM   H15T10439   1.505   3.415   9.631 -0.2391  1.2259 -0.4193
  103OSM   C16S10440   1.351   3.337   9.503  0.2128  0.0713  0.0855
  103OSM   H16S10441   1.258   3.278   9.519  0.8399 -0.6073  1.4929
  103OSM   H16T10442   1.422   3.264   9.459 -1.2022  0.5312 -3.2738
  103OSM   C17S10443   1.346   3.450   9.413  1.2059 -0.6575 -0.3422
  103OSM   H17S10444   1.447   3.488   9.387  1.3257 -0.0150  1.0115
  103OSM   H17T10445   1.305   3.537   9.468  1.7506 -1.5579  1.5706
  103OSM   C18S10446   1.266   3.427   9.275 -0.5035  0.4120 -0.3841
  103OSM   H18S10447   1.160   3.407   9.302 -0.0920 -0.5621  0.6064
  103OSM   H18T10448   1.301   3.334   9.225  0.4781  0.3459  0.4056
  103OSM   H18U10449   1.280   3.523   9.221 -0.8853  1.7927  1.8542
  103OSM    C1F10450   0.647   2.660  10.582 -0.7217 -0.3999  0.8271
  103OSM     OF10451   0.584   2.625  10.681  0.0329  0.2707  0.2818
  103OSM    C2F10452   0.592   2.653  10.446  0.9950 -0.1220 -0.2863
  103OSM    H2F10453   0.659   2.579  10.397  2.1853  2.3841 -2.6582
  103OSM    H2G10454   0.598   2.748  10.390 -1.2419  0.0838 -0.2537
  103OSM    C3F10455   0.449   2.593  10.442  0.0481  0.7033 -0.1991
  103OSM    H3F10456   0.376   2.642  10.510 -1.3996 -1.3104 -0.2181
  103OSM    H3G10457   0.445   2.496  10.495 -0.1625  0.3711 -0.8163
  103OSM    C4F10458   0.402   2.566  10.296 -0.3984  0.1501 -0.5446
  103OSM    H4F10459   0.347   2.470  10.291  2.1181 -1.3331 -1.5035
  103OSM    H4G10460   0.495   2.558  10.236  0.4360 -2.5587  0.9315
  103OSM    C5F10461   0.320   2.685  10.243  0.4907 -0.4351  0.0658
  103OSM    H5F10462   0.391   2.770  10.245 -0.4905  0.4165 -0.4604
  103OSM    H5G10463   0.232   2.706  10.307  0.6441 -1.1920  0.5406
  103OSM    C6F10464   0.283   2.666  10.103 -0.9323  0.9903  0.6917
  103OSM    H6F10465   0.185   2.613  10.107 -2.3653  2.9890 -3.2502
  103OSM    H6G10466   0.355   2.596  10.055 -2.2288  0.1521 -0.0892
  103OSM    C7F10467   0.272   2.793  10.017 -0.2046  0.2711 -0.9919
  103OSM    H7F10468   0.354   2.861  10.048 -0.0562  0.2958 -1.4335
  103OSM    H7G10469   0.177   2.843  10.046 -0.2910 -0.6186  0.3469
  103OSM    C8F10470   0.275   2.748   9.873 -0.5225 -0.5717 -0.2547
  103OSM    H8F10471   0.190   2.684   9.843 -0.1018 -1.0629 -0.4240
  103OSM    H8G10472   0.371   2.694   9.859 -0.3928 -0.0848 -1.3247
  103OSM    C9F10473   0.285   2.869   9.788  0.3984  0.5987 -0.1623
  103OSM    H9F10474   0.352   2.948   9.826 -0.7878  1.1589  0.8113
  103OSM   C10F10475   0.239   2.891   9.668  0.1189  0.0472 -0.2530
  103OSM   H10F10476   0.245   2.994   9.629  0.2151 -0.5322 -1.7979
  103OSM   C11F10477   0.156   2.798   9.589 -0.7786  0.4431  0.6643
  103OSM   H11F10478   0.122   2.709   9.646 -1.7250  0.0236 -0.5008
  103OSM   H11G10479   0.208   2.762   9.497 -1.2220  0.0209  0.5730
  103OSM   C12F10480   0.027   2.862   9.520  0.3208  0.4688  0.5591
  103OSM   H12F10481  -0.037   2.921   9.590 -1.3524  0.4566 -0.9062
  103OSM   H12G10482  -0.027   2.777   9.475 -0.1100  1.1392 -0.2057
  103OSM   C13F10483   0.060   2.964   9.412 -0.2753  0.4267 -0.3701
  103OSM   H13F10484   0.119   2.901   9.341 -2.4383 -0.4709 -1.4488
  103OSM   H13G10485   0.125   3.040   9.461 -1.6323 -0.2585  2.7200
  103OSM   C14F10486  -0.062   3.021   9.341  0.5920 -0.1080  0.1916
  103OSM   H14F10487  -0.096   3.115   9.390  4.3989  1.4638  0.1682
  103OSM   H14G10488  -0.157   2.964   9.332  0.0813  0.3249  2.3364
  103OSM   C15F10489  -0.034   3.074   9.186 -0.3367 -0.8059  0.3242
  103OSM   H15F10490   0.049   3.009   9.151  1.4086  2.0272 -1.1126
  103OSM   H15G10491   0.021   3.170   9.194 -0.4151 -0.7651  0.3772
  103OSM   C16F10492  -0.148   3.078   9.083 -0.6624  0.3942 -0.2486
  103OSM   H16F10493  -0.233   3.122   9.140  0.6700  0.3200  1.9200
  103OSM   H16G10494  -0.175   2.973   9.056  2.0692 -0.9990  1.9500
  103OSM   C17F10495  -0.132   3.147   8.948 -0.2399 -0.3089  0.0602
  103OSM   H17F10496  -0.114   3.255   8.963  0.1095 -0.0918 -1.7105
  103OSM   H17G10497  -0.225   3.129   8.888 -0.1675  0.2852 -0.2332
  103OSM   C18F10498  -0.016   3.104   8.855 -0.2434  0.1859  0.3800
  103OSM   H18F10499   0.079   3.135   8.904 -0.7161  0.0224  1.4193
  103OSM   H18G10500  -0.010   3.166   8.762  2.8217  0.4817  0.6743
  103OSM   H18H10501  -0.011   2.995   8.839 -0.5867  0.5232 -2.7733
  104OSM      N10502   2.537   3.714  11.031 -0.2425 -0.4299  0.5506
  104OSM    C1510503   2.549   3.841  10.946  0.0662 -0.8523 -1.0391
  104OSM   H15A10504   2.454   3.875  10.910  1.6537  2.9784 -2.1338
  104OSM   H15B10505   2.619   3.830  10.865  1.9284 -0.7683  0.4747
  104OSM   H15C10506   2.569   3.931  11.003 -1.8166  0.6021 -2.5381
  104OSM    C1410507   2.673   3.673  11.063 -0.1550  0.7582 -0.4881
  104OSM   H14A10508   2.734   3.736  11.126  1.7633 -1.0258 -0.4824
  104OSM   H14B10509   2.737   3.669  10.976 -1.0557 -0.1797 -1.1305
  104OSM   H14C10510   2.667   3.575  11.107 -2.3689  1.3275  0.6568
  104OSM    C1310511   2.472   3.758  11.159  0.9022 -1.0566  0.2439
  104OSM   H13A10512   2.440   3.684  11.229 -1.5552  0.3478  0.7161
  104OSM   H13B10513   2.380   3.806  11.129  1.4882 -1.6757 -2.9188
  104OSM   H13C10514   2.520   3.848  11.197 -0.4084  0.9827 -2.5458
  104OSM    C1210515   2.457   3.600  10.966 -0.0067  0.2680  0.1606
  104OSM   H12A10516   2.359   3.641  10.943 -1.3968 -2.8812 -0.0569
  104OSM   H12B10517   2.449   3.522  11.040  1.8332 -1.5899 -1.4789
  104OSM    C1110518   2.511   3.536  10.839 -0.1035  0.0773  0.0014
  104OSM   H11A10519   2.521   3.626  10.774 -2.2687  0.0711 -0.4288
  104OSM   H11B10520   2.430   3.471  10.801  1.0511 -1.5375  0.1956
  104OSM      P10521   2.633   3.323  10.894 -0.9088 -0.3242 -0.4199
  104OSM    O1310522   2.751   3.301  10.989 -0.1056 -0.3304 -0.2353
  104OSM    O1410523   2.502   3.284  10.951  0.1012  0.3005 -0.3545
  104OSM    O1110524   2.658   3.252  10.759 -0.0563  0.3092 -0.9253
  104OSM    O1210525   2.637   3.479  10.853  0.4835  0.5396  0.1684
  104OSM    C1S10526   2.650   3.316  10.632  0.6173 -0.2611  0.1067
  104OSM    H1S10527   2.722   3.400  10.621  0.4168  0.0589  1.1428
  104OSM    H1T10528   2.546   3.347  10.609  0.8308 -0.1673 -0.7883
  104OSM     NF10529   2.646   3.259  10.404  0.4234 -0.1242 -0.5929
  104OSM    HNF10530   2.559   3.227  10.367  0.5324 -0.2520 -0.7405
  104OSM    C2S10531   2.673   3.202  10.530 -0.4698  0.3625  0.5343
  104OSM    H2S10532   2.779   3.175  10.548 -0.7970 -1.0547  0.4297
  104OSM    C3S10533   2.581   3.073  10.554 -0.9156 -0.0726  0.4331
  104OSM    H3S10534   2.473   3.101  10.554 -0.7086  0.7371  0.3520
  104OSM     O310535   2.601   3.007  10.678  0.5966  0.3786 -0.6128
  104OSM    HO310536   2.662   3.070  10.717  0.8820 -0.7858  0.9072
  104OSM    C4S10537   2.600   2.978  10.440 -0.2975 -0.0400  0.4147
  104OSM    H4S10538   2.528   2.989  10.358 -1.1597 -1.8440  0.8845
  104OSM    C5S10539   2.676   2.865  10.436  0.7563  0.1791 -0.0655
  104OSM    H5S10540   2.732   2.833  10.525  0.9388 -0.2353 -0.3270
  104OSM    C6S10541   2.692   2.771  10.320 -0.1286  0.1643 -1.1079
  104OSM    H6S10542   2.661   2.671  10.359 -0.9636  1.0685  0.6373
  104OSM    H6T10543   2.798   2.754  10.294 -0.0048 -4.0587  1.1235
  104OSM    C7S10544   2.604   2.795  10.199 -0.0678  0.1693 -0.3373
  104OSM    H7S10545   2.496   2.816  10.218 -0.2439 -0.2712 -0.8182
  104OSM    H7T10546   2.605   2.699  10.144 -1.5565  0.0264 -0.1672
  104OSM    C8S10547   2.667   2.911  10.112 -0.3530  0.4637  0.1190
  104OSM    H8S10548   2.743   2.859  10.049 -0.5882  0.2458  0.0111
  104OSM    H8T10549   2.715   2.992  10.171  1.7126 -0.7156  0.1804
  104OSM    C9S10550   2.565   2.972  10.018 -0.3055  0.1844 -0.4503
  104OSM    H9S10551   2.488   3.019  10.082  1.7647 -0.4203  2.7587
  104OSM    H9T10552   2.524   2.888   9.958  2.3034 -0.6109 -1.2981
  104OSM   C10S10553   2.631   3.071   9.918 -0.4711 -0.2850  0.3433
  104OSM   H10S10554   2.721   3.027   9.871 -1.0327 -1.4110  0.3019
  104OSM   H10T10555   2.668   3.157   9.979 -2.3683  1.0157 -0.2502
  104OSM   C11S10556   2.543   3.128   9.808  0.2713  0.0465  0.4577
  104OSM   H11S10557   2.457   3.179   9.856 -0.9879 -0.4609 -1.1666
  104OSM   H11T10558   2.504   3.062   9.728 -0.6165  0.5193  0.4866
  104OSM   C12S10559   2.627   3.233   9.738  0.0701 -0.5899 -0.2044
  104OSM   H12S10560   2.733   3.202   9.744  0.2510 -1.1411 -3.8318
  104OSM   H12T10561   2.605   3.333   9.781 -1.0551 -0.9050 -0.0052
  104OSM   C13S10562   2.597   3.240   9.589  0.3103  0.0757  0.2382
  104OSM   H13S10563   2.495   3.278   9.569  0.8134  1.5982  0.4069
  104OSM   H13T10564   2.589   3.131   9.568 -1.9278 -0.1154  1.7003
  104OSM   C14S10565   2.703   3.302   9.509 -0.1089 -0.2292 -0.1010
  104OSM   H14S10566   2.797   3.245   9.520  0.3607  0.7735  1.4663
  104OSM   H14T10567   2.721   3.405   9.546 -1.1782  0.8563 -2.3870
  104OSM   C15S10568   2.655   3.306   9.362  0.4835  0.4027 -0.2408
  104OSM   H15S10569   2.582   3.386   9.334 -0.2670 -0.9713 -2.5123
  104OSM   H15T10570   2.595   3.218   9.332  1.1643  0.7134 -2.8105
  104OSM   C16S10571   2.772   3.316   9.261  0.4979 -0.7121  0.2200
  104OSM   H16S10572   2.729   3.329   9.160 -1.0180 -1.3215  0.7539
  104OSM   H16T10573   2.837   3.227   9.270  0.2075 -0.9406  0.0722
  104OSM   C17S10574   2.876   3.428   9.298 -0.2854 -0.1665 -1.0612
  104OSM   H17S10575   2.932   3.396   9.389 -2.2184  1.2775  0.7440
  104OSM   H17T10576   2.834   3.528   9.320  0.4001  0.1783 -1.2833
  104OSM   C18S10577   2.986   3.452   9.191  1.0754  0.9724  0.2956
  104OSM   H18S10578   2.950   3.464   9.087  2.5864 -1.2851 -0.5757
  104OSM   H18T10579   3.052   3.364   9.175 -0.0569  0.4708 -1.9858
  104OSM   H18U10580   3.038   3.546   9.221  1.3523  1.0247 -0.3290
  104OSM    C1F10581   2.720   3.353  10.344 -0.0368  0.3301 -0.4842
  104OSM     OF10582   2.822   3.394  10.392 -0.3939 -0.1300 -0.0906
  104OSM    C2F10583   2.676   3.396  10.208  0.0463 -0.4921 -0.7936
  104OSM    H2F10584   2.588   3.463  10.219 -0.7293 -0.7373 -4.3449
  104OSM    H2G10585   2.656   3.306  10.146  0.9657  0.6429 -2.8348
  104OSM    C3F10586   2.787   3.485  10.135  0.0667 -0.0766  0.2976
  104OSM    H3F10587   2.881   3.429  10.112  0.9941  0.5423  2.3347
  104OSM    H3G10588   2.829   3.571  10.192  0.9634  0.0712 -0.5421
  104OSM    C4F10589   2.738   3.557  10.002 -0.1374 -0.5625 -0.2170
  104OSM    H4F10590   2.687   3.475   9.948 -0.0924 -0.5902 -0.2172
  104OSM    H4G10591   2.826   3.597   9.946  0.8498 -0.4009  1.4035
  104OSM    C5F10592   2.647   3.679  10.013 -0.1876 -0.1655 -0.0047
  104OSM    H5F10593   2.677   3.744  10.098 -2.0881  0.2159  0.4235
  104OSM    H5G10594   2.543   3.651  10.038  0.2363 -0.7083  1.2565
  104OSM    C6F10595   2.651   3.760   9.887  0.2524 -0.0529 -0.1862
  104OSM    H6F10596   2.755   3.795   9.870  0.2266  1.5126  2.4829
  104OSM    H6G10597   2.589   3.851   9.897 -1.1617 -1.0176  0.1302
  104OSM    C7F10598   2.587   3.683   9.770 -0.0300  0.9203  0.5126
  104OSM    H7F10599   2.491   3.655   9.817  0.1602  1.4789  1.2448
  104OSM    H7G10600   2.659   3.599   9.755  2.2987  2.5951  1.7299
  104OSM    C8F10601   2.575   3.742   9.624 -0.6579 -0.3535 -0.0967
  104OSM    H8F10602   2.678   3.769   9.595 -0.5627 -0.1869  0.3814
  104OSM    H8G10603   2.522   3.840   9.630  2.2631  1.2613  1.2713
  104OSM    C9F10604   2.503   3.652   9.523 -0.5253  0.0175  0.2171
  104OSM    H9F10605   2.467   3.558   9.568 -1.0114 -0.2080 -0.6139
  104OSM   C10F10606   2.492   3.662   9.384 -0.3961 -1.0047  0.2227
  104OSM   H10F10607   2.433   3.585   9.333 -0.7779 -1.0193  0.6801
  104OSM   C11F10608   2.550   3.776   9.303  0.6369  0.2223  0.5079
  104OSM   H11F10609   2.610   3.843   9.369 -0.4074 -0.9956  2.8043
  104OSM   H11G10610   2.475   3.845   9.257 -0.1524 -0.1088  1.2890
  104OSM   C12F10611   2.649   3.720   9.193 -0.3932 -0.8323  0.2836
  104OSM   H12F10612   2.742   3.672   9.230 -1.2647 -2.0210  1.0176
  104OSM   H12G10613   2.683   3.810   9.138 -0.0655  0.8972  3.1023
  104OSM   C13F10614   2.580   3.621   9.098 -0.2196 -0.2293 -0.1459
  104OSM   H13F10615   2.472   3.638   9.080 -0.4515 -1.1581  0.2917
  104OSM   H13G10616   2.583   3.525   9.154  0.1021  0.7302  1.5595
  104OSM   C14F10617   2.641   3.620   8.952 -0.1253 -0.5282 -0.5152
  104OSM   H14F10618   2.734   3.563   8.974 -0.1274 -0.6592 -0.8329
  104OSM   H14G10619   2.654   3.725   8.918  3.2482 -1.2108 -1.7223
  104OSM   C15F10620   2.566   3.541   8.852  0.6938  0.7150 -0.2667
  104OSM   H15F10621   2.480   3.598   8.812  0.5346  1.9112  1.6945
  104OSM   H15G10622   2.527   3.445   8.893  2.0985 -0.0257 -0.5791
  104OSM   C16F10623   2.652   3.494   8.731  0.4948  0.6844 -0.5926
  104OSM   H16F10624   2.596   3.425   8.665 -0.4249 -0.2423  1.1028
  104OSM   H16G10625   2.738   3.430   8.763 -1.3599 -1.7721 -0.2449
  104OSM   C17F10626   2.700   3.614   8.641  0.4084  0.0640 -0.2446
  104OSM   H17F10627   2.752   3.686   8.708  1.7708 -1.9209  0.9374
  104OSM   H17G10628   2.611   3.660   8.593 -0.6074 -1.5367  0.0064
  104OSM   C18F10629   2.791   3.574   8.530 -0.4023  0.0577  1.1873
  104OSM   H18F10630   2.829   3.672   8.494 -1.9631  0.0332 -0.7102
  104OSM   H18G10631   2.747   3.515   8.447  2.1517  2.1193 -1.8387
  104OSM   H18H10632   2.879   3.520   8.571  0.1765 -0.3209 -0.4936
  105OSM      N10633   4.545   6.667  10.997 -0.1035  0.5708 -0.2906
  105OSM    C1510634   4.605   6.719  10.874  0.3744  0.3440 -0.5743
  105OSM   H15A10635   4.550   6.803  10.835 -1.2076  0.0860  1.0011
  105OSM   H15B10636   4.609   6.645  10.795 -0.7061  0.5708 -0.8508
  105OSM   H15C10637   4.708   6.747  10.894  0.0077  1.4766 -0.2342
  105OSM    C1410638   4.490   6.784  11.080  0.2123 -0.9281 -0.5010
  105OSM   H14A10639   4.441   6.851  11.012 -1.5360 -0.1330  1.4329
  105OSM   H14B10640   4.574   6.841  11.117  0.4774 -0.9494 -1.0511
  105OSM   H14C10641   4.427   6.758  11.164  0.0757  2.3278  0.5466
  105OSM    C1310642   4.419   6.602  10.947 -0.3194  0.4317  0.4626
  105OSM   H13A10643   4.443   6.516  10.887 -0.4895  0.4701  0.3366
  105OSM   H13B10644   4.369   6.678  10.889  1.1324 -0.1913 -1.7078
  105OSM   H13C10645   4.349   6.571  11.023  0.5678 -0.6913  0.8475
  105OSM    C1210646   4.647   6.582  11.072 -0.0514  0.2376 -0.6285
  105OSM   H12A10647   4.593   6.548  11.159 -1.5321  3.1542 -0.2809
  105OSM   H12B10648   4.717   6.652  11.116 -0.6303 -0.0795  0.8530
  105OSM    C1110649   4.708   6.473  10.981 -0.0130 -0.4506 -0.1516
  105OSM   H11A10650   4.745   6.511  10.883  1.1375 -0.0960  0.4055
  105OSM   H11B10651   4.624   6.408  10.948 -0.0162  0.6663 -2.5016
  105OSM      P10652   4.878   6.278  11.011  0.0962 -0.0053 -0.0906
  105OSM    O1310653   4.996   6.253  11.102  0.0746  0.0007  0.6407
  105OSM    O1410654   4.777   6.174  11.015 -0.1049  0.2259  0.2356
  105OSM    O1110655   4.919   6.310  10.863  0.0740  0.4886 -0.6470
  105OSM    O1210656   4.802   6.403  11.066  0.3017 -0.0344 -0.1275
  105OSM    C1S10657   5.054   6.348  10.824  0.4686 -0.0198  0.5376
  105OSM    H1S10658   5.128   6.274  10.862  0.6278  0.2850  0.8229
  105OSM    H1T10659   5.072   6.447  10.869 -1.5228  0.1918  0.9752
  105OSM     NF10660   5.203   6.361  10.612  0.3167 -0.0626 -0.0563
  105OSM    HNF10661   5.249   6.447  10.589 -0.2887  0.3346  0.2084
  105OSM    C2S10662   5.063   6.373  10.664 -0.1240  0.7134 -0.1519
  105OSM    H2S10663   5.012   6.290  10.610  0.4134 -0.3072  0.8700
  105OSM    C3S10664   4.992   6.504  10.623 -0.3562 -0.6888  0.6205
  105OSM    H3S10665   5.049   6.592  10.660  1.5328 -2.2542  1.6062
  105OSM     O310666   4.860   6.509  10.678 -0.1889 -0.8547  0.3252
  105OSM    HO310667   4.865   6.455  10.758 -1.9395 -1.7426 -0.1172
  105OSM    C4S10668   4.966   6.514  10.475 -0.2429 -0.2984 -0.4671
  105OSM    H4S10669   4.879   6.460  10.435 -1.7030  1.2904  0.4476
  105OSM    C5S10670   5.020   6.602  10.390 -0.4650 -0.3366 -0.2352
  105OSM    H5S10671   5.105   6.658  10.432  0.5642 -2.6911  1.0646
  105OSM    C6S10672   4.984   6.621  10.242 -0.1921  0.1880  0.3085
  105OSM    H6S10673   5.066   6.574  10.183  0.8862  2.0451  0.2443
  105OSM    H6T10674   4.992   6.728  10.215  0.0170  0.3970  1.1486
  105OSM    C7S10675   4.840   6.576  10.199  0.0276  0.2956 -0.5166
  105OSM    H7S10676   4.775   6.646  10.255 -0.7704  0.3077 -1.4201
  105OSM    H7T10677   4.832   6.468  10.222  0.8105  0.2865 -0.2686
  105OSM    C8S10678   4.799   6.592  10.057 -0.1415  0.1542 -0.2398
  105OSM    H8S10679   4.873   6.539   9.994  0.9893 -1.2364  2.1428
  105OSM    H8T10680   4.800   6.697  10.021 -0.8607  1.3546  2.9337
  105OSM    C9S10681   4.648   6.550  10.035 -0.3353 -0.0154  0.1256
  105OSM    H9S10682   4.597   6.632  10.089  0.0050  0.4309 -0.2148
  105OSM    H9T10683   4.621   6.458  10.091 -0.6846 -0.2358 -0.3917
  105OSM   C10S10684   4.609   6.537   9.887 -0.7633  0.2040  0.0292
  105OSM   H10S10685   4.697   6.484   9.844 -1.1136  0.6569 -1.2830
  105OSM   H10T10686   4.609   6.638   9.840  0.3350  0.3382  0.2801
  105OSM   C11S10687   4.486   6.459   9.868 -0.4814 -0.2476 -0.1074
  105OSM   H11S10688   4.389   6.507   9.895  0.7973  1.0940  2.4922
  105OSM   H11T10689   4.507   6.364   9.921 -1.1326 -0.9388 -1.0580
  105OSM   C12S10690   4.480   6.422   9.718 -0.1008  0.8852 -0.1667
  105OSM   H12S10691   4.397   6.348   9.709 -1.0004  1.6459  1.3999
  105OSM   H12T10692   4.574   6.379   9.677  0.4350  1.5483  0.3481
  105OSM   C13S10693   4.452   6.546   9.629  0.0514 -0.3125  0.1050
  105OSM   H13S10694   4.505   6.641   9.652  0.8896 -0.7835  0.1232
  105OSM   H13T10695   4.348   6.585   9.639  0.2528  0.2200  0.1430
  105OSM   C14S10696   4.472   6.502   9.477  0.7413 -0.4685 -0.9305
  105OSM   H14S10697   4.439   6.396   9.467  0.6777 -0.7111  1.3346
  105OSM   H14T10698   4.581   6.511   9.456  0.4584  0.9312 -1.9004
  105OSM   C15S10699   4.390   6.584   9.372  0.1194  0.3120  0.1989
  105OSM   H15S10700   4.434   6.686   9.372 -0.1149  0.4162  0.4317
  105OSM   H15T10701   4.284   6.604   9.400  0.7306  1.2388  2.0282
  105OSM   C16S10702   4.392   6.518   9.234 -0.2557  0.6999 -0.0141
  105OSM   H16S10703   4.322   6.433   9.249 -0.8835  1.4574  1.6527
  105OSM   H16T10704   4.498   6.498   9.207 -0.4146  0.5090 -0.5173
  105OSM   C17S10705   4.346   6.606   9.116  0.1388  0.3875  0.2737
  105OSM   H17S10706   4.239   6.634   9.131 -0.0138  0.0290 -0.1359
  105OSM   H17T10707   4.343   6.554   9.018  2.7829  0.9011 -0.1644
  105OSM   C18S10708   4.432   6.735   9.113  0.3929 -0.2591 -0.2627
  105OSM   H18S10709   4.525   6.731   9.174  0.2791 -0.6408 -0.1064
  105OSM   H18T10710   4.376   6.821   9.155  2.5467  0.5006  1.2098
  105OSM   H18U10711   4.463   6.761   9.010  0.5398  0.2251 -0.0973
  105OSM    C1F10712   5.270   6.249  10.614  0.1759 -0.2258  0.1603
  105OSM     OF10713   5.231   6.151  10.677 -0.0485 -0.4348  0.1078
  105OSM    C2F10714   5.400   6.250  10.538 -0.2491  0.6631 -0.2063
  105OSM    H2F10715   5.470   6.180  10.587 -0.2500  1.4878  1.0090
  105OSM    H2G10716   5.448   6.350  10.547  0.4597  0.2106  1.3029
  105OSM    C3F10717   5.403   6.220  10.388 -1.1045  0.5710  0.3457
  105OSM    H3F10718   5.363   6.117  10.382 -0.9833  0.5689 -0.5357
  105OSM    H3G10719   5.510   6.207  10.364 -1.3690  0.9436 -1.1565
  105OSM    C4F10720   5.353   6.338  10.300  0.4484  0.2246 -0.3013
  105OSM    H4F10721   5.341   6.430  10.360 -3.7412 -0.6186  0.4517
  105OSM    H4G10722   5.254   6.293  10.279 -0.1297  0.8263  1.0661
  105OSM    C5F10723   5.428   6.360  10.168 -0.0663 -0.3443 -0.2084
  105OSM    H5F10724   5.483   6.273  10.127 -0.6998 -1.5817  1.4822
  105OSM    H5G10725   5.492   6.448  10.189 -1.9811  0.8248  1.1121
  105OSM    C6F10726   5.334   6.406  10.057  0.1170  0.0508  0.2381
  105OSM    H6F10727   5.259   6.477  10.098 -1.3195 -1.8004  0.9320
  105OSM    H6G10728   5.281   6.323  10.006 -0.6933  1.2366 -0.9061
  105OSM    C7F10729   5.407   6.480   9.945 -0.8278  0.2353 -0.0348
  105OSM    H7F10730   5.491   6.422   9.901  0.0952  2.7016 -1.7556
  105OSM    H7G10731   5.459   6.569   9.989 -2.0038  1.6676 -1.4388
  105OSM    C8F10732   5.319   6.529   9.822 -0.6307 -0.0255 -0.4322
  105OSM    H8F10733   5.287   6.438   9.766  2.0228 -1.3843  0.0949
  105OSM    H8G10734   5.383   6.579   9.747  2.2706 -0.1801  1.7536
  105OSM    C9F10735   5.215   6.628   9.861  0.0689 -0.5842  0.8717
  105OSM    H9F10736   5.245   6.711   9.925 -0.5163  0.5812 -0.3025
  105OSM   C10F10737   5.087   6.636   9.817  0.0709  2.0139  0.1805
  105OSM   H10F10738   5.008   6.702   9.856 -1.5858  0.3896 -0.2305
  105OSM   C11F10739   5.031   6.542   9.712  0.3927 -0.0047 -0.1786
  105OSM   H11F10740   4.937   6.508   9.759 -1.4887  2.3048 -2.0693
  105OSM   H11G10741   5.083   6.446   9.688 -1.6136 -0.7421 -1.8737
  105OSM   C12F10742   5.008   6.626   9.581  0.2432  0.6061 -0.3852
  105OSM   H12F10743   5.111   6.658   9.556  0.0173  0.9790 -0.8626
  105OSM   H12G10744   4.946   6.715   9.606  0.7743  1.3436 -1.6269
  105OSM   C13F10745   4.957   6.540   9.467 -0.2160  0.1663 -0.1864
  105OSM   H13F10746   4.859   6.491   9.484  0.6844 -0.9711  2.2790
  105OSM   H13G10747   5.028   6.458   9.441 -0.5174  0.2704 -1.3601
  105OSM   C14F10748   4.955   6.615   9.340 -0.2661 -0.8689  0.4563
  105OSM   H14F10749   5.059   6.636   9.306 -1.0157  2.0955 -0.2663
  105OSM   H14G10750   4.908   6.712   9.367 -0.5771 -0.3930 -1.5977
  105OSM   C15F10751   4.858   6.555   9.240  0.0929 -0.0672  0.1576
  105OSM   H15F10752   4.766   6.523   9.294  2.4206 -2.1382  3.2177
  105OSM   H15G10753   4.902   6.459   9.205  0.9375 -0.1208  1.3469
  105OSM   C16F10754   4.839   6.646   9.119 -0.5633 -0.0974 -0.3306
  105OSM   H16F10755   4.937   6.683   9.083 -0.7925  0.8828 -0.0090
  105OSM   H16G10756   4.778   6.735   9.147  1.1186  0.7612  0.7918
  105OSM   C17F10757   4.766   6.581   9.005  1.0554 -0.6099  0.3979
  105OSM   H17F10758   4.666   6.535   9.019  0.0988  0.5206 -2.2471
  105OSM   H17G10759   4.834   6.501   8.967  0.7938 -0.6983  0.1163
  105OSM   C18F10760   4.750   6.686   8.888  0.3405  0.3049  0.0119
  105OSM   H18F10761   4.681   6.768   8.917  0.7171  0.3725  0.7290
  105OSM   H18G10762   4.708   6.633   8.800  1.2372 -2.1533  0.9633
  105OSM   H18H10763   4.852   6.723   8.864 -0.5499  1.7325 -1.7512
  106OSM      N10764   4.465   1.350  11.192  0.4558 -0.8477 -0.0675
  106OSM    C1510765   4.416   1.467  11.272  0.3699 -0.0705  0.2994
  106OSM   H15A10766   4.327   1.506  11.225  0.0811 -2.7614 -1.5859
  106OSM   H15B10767   4.488   1.548  11.273 -0.4446  0.6674  1.7633
  106OSM   H15C10768   4.400   1.442  11.376  0.0139  0.8860  0.4953
  106OSM    C1410769   4.558   1.269  11.271 -0.2850  0.3291 -0.6620
  106OSM   H14A10770   4.610   1.205  11.201  0.7206  0.8535 -0.4075
  106OSM   H14B10771   4.500   1.216  11.345 -1.1952  0.9285 -0.9269
  106OSM   H14C10772   4.632   1.325  11.325  1.0057 -0.2517 -1.7637
  106OSM    C1310773   4.353   1.254  11.162  1.0462  0.2085  0.1883
  106OSM   H13A10774   4.335   1.184  11.242  0.8130 -0.6935 -0.6373
  106OSM   H13B10775   4.382   1.193  11.078  2.5651 -0.9264  1.4927
  106OSM   H13C10776   4.259   1.302  11.138  0.6882  0.1881  1.4795
  106OSM    C1210777   4.528   1.400  11.062 -0.0495  0.0035  0.6168
  106OSM   H12A10778   4.608   1.470  11.081  0.5899 -0.9074  1.3687
  106OSM   H12B10779   4.461   1.464  11.007  2.7605  2.0357 -0.6578
  106OSM    C1110780   4.586   1.304  10.958 -0.2392 -0.5012  0.1418
  106OSM   H11A10781   4.654   1.237  11.015 -0.2536  1.9177  3.2875
  106OSM   H11B10782   4.645   1.362  10.885 -0.5850 -0.3996 -0.0572
  106OSM      P10783   4.433   1.221  10.763 -0.2538 -0.4373 -0.1438
  106OSM    O1310784   4.374   1.090  10.717 -0.0151  0.0557  0.0659
  106OSM    O1410785   4.347   1.340  10.762  0.5461 -0.4426  0.0680
  106OSM    O1110786   4.563   1.253  10.681  0.1339 -0.5031 -0.0348
  106OSM    O1210787   4.489   1.216  10.907  0.4984  0.0306 -0.2013
  106OSM    C1S10788   4.664   1.156  10.660 -0.3142  0.1232  0.1615
  106OSM    H1S10789   4.628   1.052  10.680  0.1987 -0.4633 -1.7927
  106OSM    H1T10790   4.749   1.182  10.726 -1.5619 -0.3763  2.0473
  106OSM     NF10791   4.826   1.064  10.483 -0.3532 -0.2036 -0.1916
  106OSM    HNF10792   4.920   1.092  10.467 -1.2462  3.6794  0.3012
  106OSM    C2S10793   4.726   1.169  10.518  0.3181 -0.7325  0.3465
  106OSM    H2S10794   4.646   1.163  10.442  0.6639  0.2655 -0.1130
  106OSM    C3S10795   4.787   1.312  10.502  0.6232 -0.7308 -0.0690
  106OSM    H3S10796   4.886   1.309  10.554 -0.0527  0.9595  1.4313
  106OSM     O310797   4.715   1.420  10.561 -0.0905 -0.3421 -0.4523
  106OSM    HO310798   4.640   1.376  10.603  1.2863 -0.9577  1.5079
  106OSM    C4S10799   4.817   1.332  10.349  0.7374  0.1174  0.1173
  106OSM    H4S10800   4.921   1.303  10.324  1.1018 -0.4406  2.1516
  106OSM    C5S10801   4.731   1.370  10.248 -0.2974  1.3793  0.0693
  106OSM    H5S10802   4.622   1.368  10.267 -0.2678 -1.5568  0.4981
  106OSM    C6S10803   4.764   1.389  10.104 -0.6097  0.0679 -0.1138
  106OSM    H6S10804   4.871   1.411  10.084 -0.0700 -1.3485  0.9742
  106OSM    H6T10805   4.714   1.484  10.079  2.8839  2.9864  2.8468
  106OSM    C7S10806   4.729   1.275   9.998  0.5062  0.2112 -0.2294
  106OSM    H7S10807   4.618   1.266  10.004  0.5187 -0.2450 -0.5707
  106OSM    H7T10808   4.779   1.179  10.023 -0.6356  0.0089  1.4702
  106OSM    C8S10809   4.760   1.309   9.849  0.1995  0.2520  0.3956
  106OSM    H8S10810   4.754   1.221   9.782  1.6435 -0.3566  1.0142
  106OSM    H8T10811   4.869   1.329   9.838  0.3094 -0.8235 -0.6254
  106OSM    C9S10812   4.669   1.422   9.787  0.2701  0.0506 -1.0341
  106OSM    H9S10813   4.660   1.512   9.851  1.2592  0.9380 -2.1065
  106OSM    H9T10814   4.566   1.381   9.778  0.6185 -1.6037  1.3245
  106OSM   C10S10815   4.714   1.472   9.653 -0.1971  0.0214  0.8832
  106OSM   H10S10816   4.822   1.500   9.652 -0.2066  0.0477  0.1650
  106OSM   H10T10817   4.658   1.566   9.632 -1.8208 -0.8372  1.1900
  106OSM   C11S10818   4.677   1.384   9.538 -0.5885 -0.1340 -0.1802
  106OSM   H11S10819   4.569   1.360   9.547 -0.8177  1.4996  2.7577
  106OSM   H11T10820   4.726   1.285   9.543 -1.4274 -0.5847 -0.7606
  106OSM   C12S10821   4.707   1.455   9.397 -0.3195 -0.2834  0.1143
  106OSM   H12S10822   4.703   1.376   9.319 -3.1041 -1.8408  1.6614
  106OSM   H12T10823   4.812   1.489   9.400 -0.3169 -0.1149 -1.1936
  106OSM   C13S10824   4.611   1.566   9.361  0.2254 -0.1729  0.8728
  106OSM   H13S10825   4.580   1.632   9.445  0.0518  0.0922  0.5991
  106OSM   H13T10826   4.525   1.502   9.330  0.6663 -0.1672 -0.3986
  106OSM   C14S10827   4.648   1.639   9.233  0.2137  0.0309  0.3957
  106OSM   H14S10828   4.557   1.693   9.200  1.2966  1.1812 -0.8438
  106OSM   H14T10829   4.687   1.573   9.152  1.1336  0.7818  0.2012
  106OSM   C15S10830   4.746   1.751   9.257  0.3980  0.1088  0.9986
  106OSM   H15S10831   4.826   1.701   9.315  0.0531 -1.1726  0.3940
  106OSM   H15T10832   4.699   1.821   9.330  0.0063 -0.1292  0.9800
  106OSM   C16S10833   4.784   1.825   9.130 -0.1690 -0.4891  0.6433
  106OSM   H16S10834   4.850   1.910   9.157 -1.8074  0.8998  0.4427
  106OSM   H16T10835   4.699   1.884   9.090  0.1738  0.8399  1.7648
  106OSM   C17S10836   4.867   1.737   9.027  0.0403 -0.1117 -0.0713
  106OSM   H17S10837   4.891   1.810   8.947  0.0902  0.4216  0.4259
  106OSM   H17T10838   4.807   1.655   8.981 -0.7814  0.1627  0.4876
  106OSM   C18S10839   4.996   1.690   9.087 -0.0552 -0.1128 -0.0285
  106OSM   H18S10840   5.058   1.773   9.127  1.0809 -0.7606 -0.3921
  106OSM   H18T10841   5.058   1.637   9.011 -1.0349  0.4153 -1.2250
  106OSM   H18U10842   4.975   1.618   9.170  0.5355  0.8090  0.9474
  106OSM    C1F10843   4.789   0.938  10.473 -0.2681  0.1015 -0.0727
  106OSM     OF10844   4.669   0.904  10.470 -0.2779  0.3083 -0.4701
  106OSM    C2F10845   4.904   0.840  10.461  0.5102 -0.0871  0.4464
  106OSM    H2F10846   4.882   0.754  10.528  1.5285  0.3037  1.3062
  106OSM    H2G10847   4.999   0.880  10.502  0.5312  0.0867  0.2310
  106OSM    C3F10848   4.919   0.779  10.316  0.1028 -0.6735  0.3434
  106OSM    H3F10849   4.823   0.724  10.311 -0.2228 -0.2997  1.9088
  106OSM    H3G10850   5.005   0.708  10.317  0.4925 -0.2010  0.7302
  106OSM    C4F10851   4.963   0.884  10.214  0.2264 -0.2545 -0.2187
  106OSM    H4F10852   5.058   0.937  10.234  0.6409 -0.1726 -2.2341
  106OSM    H4G10853   4.888   0.966  10.208  0.8991  0.2972 -1.3550
  106OSM    C5F10854   4.973   0.824  10.077 -0.0273  0.1605  0.7732
  106OSM    H5F10855   4.870   0.797  10.044  0.0196  0.8819 -0.0165
  106OSM    H5G10856   5.037   0.734  10.084  0.2068  0.2255 -0.3764
  106OSM    C6F10857   5.035   0.925   9.973  0.6637 -0.0408  0.5115
  106OSM    H6F10858   5.140   0.944  10.004  0.7797 -0.0928  0.1608
  106OSM    H6G10859   4.974   1.017   9.961  1.7838  0.7080  0.4064
  106OSM    C7F10860   5.035   0.856   9.828  0.6702 -0.5153 -0.3973
  106OSM    H7F10861   4.927   0.847   9.804  1.3110 -2.7345 -2.8671
  106OSM    H7G10862   5.088   0.759   9.821 -1.0390 -1.6525  1.2707
  106OSM    C8F10863   5.093   0.960   9.725 -0.5467  1.0894 -0.2231
  106OSM    H8F10864   5.130   0.909   9.634  0.7483 -0.7671  1.2316
  106OSM    H8G10865   5.175   1.019   9.772 -1.0827  1.5074  0.2056
  106OSM    C9F10866   4.987   1.055   9.676  0.1069 -1.0908  0.0904
  106OSM    H9F10867   4.888   1.009   9.689  0.3933 -1.4382  1.1995
  106OSM   C10F10868   5.010   1.174   9.624  0.8807 -0.5607  0.4789
  106OSM   H10F10869   4.929   1.236   9.582 -0.6060 -2.4543  0.3691
  106OSM   C11F10870   5.146   1.235   9.609  0.2112 -0.8463 -0.1313
  106OSM   H11F10871   5.231   1.194   9.669  1.0051 -0.1660 -0.7687
  106OSM   H11G10872   5.141   1.341   9.642 -2.5153 -0.9010 -0.1658
  106OSM   C12F10873   5.197   1.244   9.464  0.3608 -1.1808 -0.9965
  106OSM   H12F10874   5.224   1.141   9.430  0.9296 -0.4688 -2.8283
  106OSM   H12G10875   5.297   1.292   9.473 -0.0928 -0.1050 -1.5558
  106OSM   C13F10876   5.099   1.315   9.371  0.1611 -0.3839  0.2368
  106OSM   H13F10877   5.081   1.413   9.419  2.8098 -0.5634  1.7822
  106OSM   H13G10878   5.001   1.264   9.367 -1.0406  1.8837 -1.6097
  106OSM   C14F10879   5.132   1.320   9.224 -0.0888 -0.1182  0.7404
  106OSM   H14F10880   5.235   1.361   9.215 -0.7673  1.4854 -0.3177
  106OSM   H14G10881   5.058   1.390   9.178  0.3252 -0.8374 -1.0843
  106OSM   C15F10882   5.138   1.183   9.150  0.5438 -0.0877  0.0716
  106OSM   H15F10883   5.187   1.107   9.214 -1.1214  0.1077  1.6557
  106OSM   H15G10884   5.200   1.182   9.057  0.1310 -2.4274 -0.2413
  106OSM   C16F10885   4.998   1.122   9.129  0.6274 -0.1387  0.3891
  106OSM   H16F10886   4.945   1.199   9.070  1.7114  1.2485  1.1576
  106OSM   H16G10887   4.939   1.111   9.223  1.3428 -0.0833  0.8553
  106OSM   C17F10888   5.001   0.987   9.058  0.5216 -0.4134  0.6936
  106OSM   H17F10889   5.065   0.915   9.113 -0.1541 -0.2326  1.7470
  106OSM   H17G10890   5.060   1.014   8.968  1.7332  0.3149  1.6680
  106OSM   C18F10891   4.864   0.915   9.039 -0.7071 -0.4319 -0.2764
  106OSM   H18F10892   4.845   0.873   9.140 -2.2590  1.5234  0.3073
  106OSM   H18G10893   4.861   0.838   8.958  2.1865 -1.4818  0.4945
  106OSM   H18H10894   4.781   0.985   9.015  0.9877  1.5306 -0.6972
  107OSM      N10895   6.563   2.775  11.065 -0.5478 -0.7611 -0.1941
  107OSM    C1510896   6.514   2.921  11.040  0.1952  0.3404 -0.1729
  107OSM   H15A10897   6.596   2.989  11.058  1.0762 -0.4205 -1.1474
  107OSM   H15B10898   6.431   2.957  11.099  0.4419  2.1432 -0.8718
  107OSM   H15C10899   6.468   2.925  10.942  1.8510  1.4833 -0.9572
  107OSM    C1410900   6.611   2.736  10.933 -0.0921  0.7277  0.5457
  107OSM   H14A10901   6.656   2.817  10.877  1.1939 -0.8970 -0.9186
  107OSM   H14B10902   6.531   2.693  10.874  1.6294 -1.9078 -0.0820
  107OSM   H14C10903   6.684   2.656  10.939  0.7433  1.5817  2.5401
  107OSM    C1310904   6.678   2.776  11.161  0.6428 -0.5119  0.1472
  107OSM   H13A10905   6.648   2.803  11.261  0.2854  0.0126 -0.1002
  107OSM   H13B10906   6.751   2.845  11.122  0.8222 -1.8437 -2.0869
  107OSM   H13C10907   6.732   2.683  11.170  0.9205 -0.4429 -0.7573
  107OSM    C1210908   6.454   2.682  11.111 -0.3995  0.0189 -0.5414
  107OSM   H12A10909   6.369   2.699  11.046 -0.6734 -1.6162 -0.6502
  107OSM   H12B10910   6.423   2.716  11.209  1.5701  0.6139 -0.0759
  107OSM    C1110911   6.473   2.527  11.109  0.4260 -0.2898  0.0922
  107OSM   H11A10912   6.396   2.477  11.172  0.0027 -0.4005 -0.5004
  107OSM   H11B10913   6.568   2.512  11.163  1.7055  0.8946 -1.7104
  107OSM      P10914   6.342   2.448  10.904  0.1629 -0.1944 -0.2026
  107OSM    O1310915   6.313   2.307  10.922  0.0407  0.5420  0.1083
  107OSM    O1410916   6.237   2.544  10.942 -0.1143  0.1098  0.2029
  107OSM    O1110917   6.386   2.469  10.754 -0.0892 -0.1894  0.2689
  107OSM    O1210918   6.479   2.479  10.974 -0.0266  0.3228  0.6247
  107OSM    C1S10919   6.501   2.402  10.701  0.1480 -0.5014  0.2601
  107OSM    H1S10920   6.482   2.294  10.717  0.0941 -0.3837  1.0026
  107OSM    H1T10921   6.590   2.429  10.760 -0.3141 -2.1371  1.7543
  107OSM     NF10922   6.599   2.338  10.487 -1.3025  0.5957 -0.0993
  107OSM    HNF10923   6.698   2.344  10.501 -1.3427  1.4628 -0.1326
  107OSM    C2S10924   6.524   2.438  10.550 -0.2229 -0.3544  0.3120
  107OSM    H2S10925   6.421   2.445  10.510 -0.4722  0.3151  1.0404
  107OSM    C3S10926   6.591   2.576  10.541  0.2064 -0.7311 -0.2782
  107OSM    H3S10927   6.682   2.575  10.604 -0.1121  2.0873  0.3568
  107OSM     O310928   6.520   2.680  10.608 -0.1676 -0.6261  0.4283
  107OSM    HO310929   6.445   2.634  10.646 -0.6004 -0.6345 -0.4141
  107OSM    C4S10930   6.604   2.623  10.398  0.4388  0.3578  0.6036
  107OSM    H4S10931   6.510   2.664  10.360 -0.6385  1.0965  3.7106
  107OSM    C5S10932   6.708   2.646  10.317  0.1670  0.1827  0.8839
  107OSM    H5S10933   6.809   2.629  10.356  0.3257 -0.6257  0.1556
  107OSM    C6S10934   6.709   2.688  10.165  0.2964 -0.3408  0.0862
  107OSM    H6S10935   6.755   2.598  10.119 -0.1232 -1.7004  2.1880
  107OSM    H6T10936   6.762   2.783  10.143 -0.9097  0.5429  0.9195
  107OSM    C7S10937   6.568   2.708  10.105 -0.0171 -0.3363 -0.4111
  107OSM    H7S10938   6.517   2.790  10.159 -2.2451 -1.3126 -0.9560
  107OSM    H7T10939   6.511   2.615  10.125 -0.6126  0.0367 -0.3739
  107OSM    C8S10940   6.561   2.754   9.966  1.0296  0.0130  0.4354
  107OSM    H8S10941   6.610   2.679   9.900 -2.3466 -1.7803 -0.2413
  107OSM    H8T10942   6.607   2.855   9.956 -4.1284  2.8205  1.3725
  107OSM    C9S10943   6.411   2.763   9.911  0.1054  0.5767  0.3099
  107OSM    H9S10944   6.356   2.844   9.964  0.5813  0.5718  0.8178
  107OSM    H9T10945   6.368   2.667   9.947  2.9692 -1.5529 -1.5386
  107OSM   C10S10946   6.401   2.774   9.754  0.1197  1.0305 -0.1742
  107OSM   H10S10947   6.294   2.765   9.728 -0.0679  1.1003  0.5633
  107OSM   H10T10948   6.454   2.692   9.700 -1.2191  0.7236 -1.0726
  107OSM   C11S10949   6.461   2.908   9.693 -0.0340 -0.1048  0.8255
  107OSM   H11S10950   6.570   2.922   9.710 -0.5075  2.4353  2.2913
  107OSM   H11T10951   6.431   2.985   9.768 -0.3054  1.4367 -0.8046
  107OSM   C12S10952   6.429   2.927   9.546  0.0947 -0.7304  0.0917
  107OSM   H12S10953   6.437   2.833   9.487  0.4409  0.8388 -2.5158
  107OSM   H12T10954   6.506   2.998   9.509 -1.0248  1.6636  2.0690
  107OSM   C13S10955   6.289   2.987   9.528 -0.2486 -0.2209 -0.6915
  107OSM   H13S10956   6.272   3.061   9.609 -0.6830 -0.8254 -0.2193
  107OSM   H13T10957   6.208   2.910   9.533 -0.6081  0.2056  0.5252
  107OSM   C14S10958   6.273   3.069   9.402 -0.6706 -0.5911  0.0526
  107OSM   H14S10959   6.339   3.157   9.417  1.8277 -2.5117  0.9120
  107OSM   H14T10960   6.167   3.104   9.401 -0.7505 -0.7051  1.4991
  107OSM   C15S10961   6.290   2.990   9.274 -0.3540 -0.3693  0.7617
  107OSM   H15S10962   6.213   2.910   9.278 -0.0190 -0.7639 -0.3628
  107OSM   H15T10963   6.384   2.931   9.269 -0.0054  0.2002  0.4766
  107OSM   C16S10964   6.260   3.063   9.140  0.2626  0.0542 -0.2679
  107OSM   H16S10965   6.350   3.102   9.088 -0.8636  1.2487 -1.4051
  107OSM   H16T10966   6.191   3.151   9.148  1.8486  1.2448  1.1566
  107OSM   C17S10967   6.194   2.971   9.042 -0.0916 -0.4838 -0.0599
  107OSM   H17S10968   6.094   2.944   9.084 -0.3808  0.6247 -0.0180
  107OSM   H17T10969   6.245   2.873   9.033  2.4530  0.6801  0.6802
  107OSM   C18S10970   6.171   3.020   8.899 -0.3239  0.6724  0.4018
  107OSM   H18S10971   6.100   2.954   8.844 -0.3780  0.6525  0.4966
  107OSM   H18T10972   6.264   3.033   8.839  0.4890  0.5928  1.6260
  107OSM   H18U10973   6.117   3.117   8.900 -2.1002 -0.2742  1.4263
  107OSM    C1F10974   6.545   2.221  10.455 -0.8524 -0.2868 -0.2179
  107OSM     OF10975   6.428   2.208  10.460  0.4462  0.4371 -0.3631
  107OSM    C2F10976   6.637   2.115  10.413  0.5779  0.4063 -0.2010
  107OSM    H2F10977   6.599   2.026  10.468 -2.1121  2.1739  1.0114
  107OSM    H2G10978   6.744   2.143  10.417 -0.0284  2.9287 -0.1120
  107OSM    C3F10979   6.616   2.074  10.266 -0.3612 -0.0039  0.9461
  107OSM    H3F10980   6.511   2.040  10.246 -0.6742  1.5295 -0.1891
  107OSM    H3G10981   6.683   1.994  10.229  2.0314  2.8939 -1.5021
  107OSM    C4F10982   6.622   2.193  10.169 -0.3487 -0.2604 -0.3481
  107OSM    H4F10983   6.726   2.230  10.165 -0.4830  0.1018 -0.6308
  107OSM    H4G10984   6.548   2.268  10.205  0.0905 -0.1442  0.3224
  107OSM    C5F10985   6.565   2.156  10.032  0.1138  0.4493 -0.4231
  107OSM    H5F10986   6.457   2.137  10.046  0.2616  1.3384  2.5025
  107OSM    H5G10987   6.618   2.063   9.999  0.5754  0.8752 -0.9150
  107OSM    C6F10988   6.588   2.260   9.928 -0.1837  0.7805  0.0295
  107OSM    H6F10989   6.696   2.281   9.914 -0.1567  0.9836  0.5274
  107OSM    H6G10990   6.552   2.362   9.953 -0.9742  0.9479 -1.6072
  107OSM    C7F10991   6.518   2.207   9.797  0.0475  0.8387 -0.0033
  107OSM    H7F10992   6.418   2.170   9.830 -0.2632  3.8678  2.9142
  107OSM    H7G10993   6.568   2.116   9.757 -1.3436  0.3147 -0.6172
  107OSM    C8F10994   6.482   2.309   9.684 -0.1492 -0.1370  0.0229
  107OSM    H8F10995   6.405   2.381   9.720 -0.4641 -0.1996 -0.5112
  107OSM    H8G10996   6.429   2.247   9.609 -0.9529 -0.5043  0.8731
  107OSM    C9F10997   6.608   2.378   9.631  0.0228  0.2670  0.0073
  107OSM    H9F10998   6.691   2.394   9.701 -0.1125 -1.2323  0.5607
  107OSM   C10F10999   6.634   2.409   9.507  0.1258 -0.1327 -0.1642
  107OSM   H10F11000   6.734   2.442   9.475 -0.3525  2.0311  0.4006
  107OSM   C11F11001   6.542   2.387   9.391 -0.3594  0.0308  0.5426
  107OSM   H11F11002   6.534   2.277   9.382  3.1226 -0.1982 -1.3049
  107OSM   H11G11003   6.579   2.414   9.290 -1.7078  0.6032  0.1783
  107OSM   C12F11004   6.403   2.449   9.386 -0.7366  0.9072 -0.5904
  107OSM   H12F11005   6.412   2.558   9.371  2.2424  0.5948 -1.6697
  107OSM   H12G11006   6.345   2.418   9.476  1.9043  0.3268  1.0171
  107OSM   C13F11007   6.330   2.390   9.265 -0.0728 -0.2721  0.7853
  107OSM   H13F11008   6.308   2.285   9.293 -2.3858 -0.3670 -1.0257
  107OSM   H13G11009   6.391   2.386   9.173  0.4098  0.2388  1.0841
  107OSM   C14F11010   6.214   2.480   9.227  0.1035  0.6597 -0.3316
  107OSM   H14F11011   6.234   2.573   9.169 -0.6025 -0.6289 -2.7735
  107OSM   H14G11012   6.157   2.505   9.319 -1.0460 -2.1168 -0.1852
  107OSM   C15F11013   6.112   2.396   9.138  0.3572  0.4896  0.7213
  107OSM   H15F11014   6.006   2.423   9.159  0.4539  0.5044  1.2166
  107OSM   H15G11015   6.117   2.286   9.156 -1.8374 -0.1378 -1.9171
  107OSM   C16F11016   6.135   2.414   8.987 -0.0078  0.1020  0.1009
  107OSM   H16F11017   6.245   2.415   8.970  0.0348  2.0209  0.2585
  107OSM   H16G11018   6.092   2.515   8.969  1.1792  1.5437  4.1813
  107OSM   C17F11019   6.063   2.307   8.897 -0.3639 -0.3117 -0.3371
  107OSM   H17F11020   5.953   2.311   8.918 -0.3979 -0.6265 -0.4465
  107OSM   H17G11021   6.103   2.205   8.916  0.9239 -0.3100 -2.6836
  107OSM   C18F11022   6.094   2.332   8.749  0.5745  0.5160 -0.2954
  107OSM   H18F11023   6.031   2.418   8.718 -2.1487 -1.8139 -1.6315
  107OSM   H18G11024   6.057   2.253   8.681  0.1269 -1.0865  1.7069
  107OSM   H18H11025   6.203   2.348   8.736  0.2996  1.3633 -1.8680
  108OSM      N11026   2.920   1.084  10.889 -0.3012 -0.2996 -0.1200
  108OSM    C1511027   2.930   1.132  11.038  0.3915 -0.7523  0.0097
  108OSM   H15A11028   2.858   1.081  11.101  0.1798  1.5966  1.7902
  108OSM   H15B11029   2.900   1.234  11.054  1.6972 -0.0810 -1.5313
  108OSM   H15C11030   3.029   1.112  11.076  0.7207  0.4918 -0.1497
  108OSM    C1411031   2.914   0.936  10.888 -0.5807  0.7549 -0.2231
  108OSM   H14A11032   2.928   0.887  10.793 -1.0555  0.2959 -0.0585
  108OSM   H14B11033   2.823   0.903  10.937 -0.1301 -1.0199 -0.5245
  108OSM   H14C11034   2.994   0.894  10.947 -2.0881 -1.9326  0.0535
  108OSM    C1311035   2.802   1.135  10.820 -0.5529  0.0735 -0.3492
  108OSM   H13A11036   2.711   1.099  10.866 -1.4134  0.6720 -1.5219
  108OSM   H13B11037   2.791   1.112  10.715 -0.2714 -1.7642 -0.0150
  108OSM   H13C11038   2.802   1.243  10.816 -0.3013  0.1592  1.3843
  108OSM    C1211039   3.033   1.130  10.805  0.5234 -0.4134 -0.5568
  108OSM   H12A11040   3.031   1.085  10.707  1.3488 -0.4401 -0.5698
  108OSM   H12B11041   3.124   1.097  10.852 -0.5500 -1.6732  0.7512
  108OSM    C1111042   3.044   1.281  10.780  0.3932  0.2122 -0.3378
  108OSM   H11A11043   3.066   1.333  10.875 -2.0423 -1.9585  1.5720
  108OSM   H11B11044   2.956   1.328  10.731 -0.3603  0.6987  1.3954
  108OSM      P11045   3.299   1.292  10.739  0.5920  0.0753 -0.2420
  108OSM    O1311046   3.336   1.405  10.825 -0.2793  0.2799 -0.8216
  108OSM    O1411047   3.319   1.155  10.796 -0.1056  0.4349  0.0019
  108OSM    O1111048   3.383   1.307  10.611  0.4871  0.1191 -0.2334
  108OSM    O1211049   3.151   1.297  10.684 -0.1170  0.1190 -0.3800
  108OSM    C1S11050   3.332   1.250  10.491 -0.2595  0.3920 -0.5560
  108OSM    H1S11051   3.241   1.187  10.490  1.2759 -1.9370 -1.4137
  108OSM    H1T11052   3.415   1.181  10.462 -0.2789 -0.9517  2.2858
  108OSM     NF11053   3.268   1.260  10.257  1.2958  0.0334  0.1243
  108OSM    HNF11054   3.346   1.228  10.203 -0.1898 -0.1567 -2.0112
  108OSM    C2S11055   3.307   1.341  10.370  0.2001  0.2486 -0.3016
  108OSM    H2S11056   3.233   1.422  10.390 -0.0271 -0.2272  0.8524
  108OSM    C3S11057   3.445   1.419  10.339  0.0604  0.4571 -0.2463
  108OSM    H3S11058   3.524   1.348  10.308  1.0551  2.0775 -1.5056
  108OSM     O311059   3.497   1.489  10.451 -0.1449 -0.6710 -0.2355
  108OSM    HO311060   3.435   1.456  10.517  0.6564 -0.8428  0.4554
  108OSM    C4S11061   3.421   1.520  10.231  0.6838  0.1845 -0.5597
  108OSM    H4S11062   3.352   1.599  10.263  1.5268  0.7182 -0.0140
  108OSM    C5S11063   3.459   1.505  10.107  0.0468  0.3139  0.6246
  108OSM    H5S11064   3.517   1.415  10.084 -1.9882 -0.7812 -0.5585
  108OSM    C6S11065   3.435   1.595   9.986  0.5823 -0.4224 -0.4928
  108OSM    H6S11066   3.531   1.593   9.930  1.2442  1.5818  0.4684
  108OSM    H6T11067   3.425   1.700  10.021  0.0179 -0.2484 -1.1563
  108OSM    C7S11068   3.320   1.564   9.892 -0.0346 -0.9539 -0.0039
  108OSM    H7S11069   3.221   1.585   9.937  0.6940  1.5621  0.5769
  108OSM    H7T11070   3.338   1.457   9.866  1.6725 -1.4468  2.6881
  108OSM    C8S11071   3.338   1.651   9.762  0.6479  0.4283  0.9629
  108OSM    H8S11072   3.420   1.619   9.695 -1.8734 -1.6612 -1.4032
  108OSM    H8T11073   3.358   1.750   9.807  0.4127 -0.2120  2.5516
  108OSM    C9S11074   3.203   1.680   9.685  0.4625  0.2084 -0.6506
  108OSM    H9S11075   3.122   1.689   9.761 -0.6284 -0.6528 -1.6908
  108OSM    H9T11076   3.178   1.588   9.628  1.5283  1.0272 -2.5049
  108OSM   C10S11077   3.209   1.791   9.584 -0.5394 -0.6979  0.3116
  108OSM   H10S11078   3.219   1.894   9.624 -0.8074  1.3271 -4.2748
  108OSM   H10T11079   3.103   1.792   9.550 -0.4502  1.4650 -0.0503
  108OSM   C11S11080   3.301   1.767   9.457  0.4415  0.7370 -0.1827
  108OSM   H11S11081   3.291   1.662   9.422  0.3423  0.4812  0.6032
  108OSM   H11T11082   3.406   1.788   9.485  0.2848  1.7190 -0.2876
  108OSM   C12S11083   3.273   1.871   9.343  0.3005 -0.8767  0.3123
  108OSM   H12S11084   3.309   1.819   9.252 -1.3164 -1.6804  0.0892
  108OSM   H12T11085   3.315   1.968   9.376 -2.5380  0.5321  0.1429
  108OSM   C13S11086   3.119   1.875   9.313 -0.3031 -0.8361 -0.0307
  108OSM   H13S11087   3.083   1.947   9.390  2.2898 -0.3497  0.8471
  108OSM   H13T11088   3.086   1.773   9.339 -0.9669  0.0698  3.0781
  108OSM   C14S11089   3.085   1.914   9.168 -0.1087  0.2664 -0.1926
  108OSM   H14S11090   3.144   2.000   9.131  0.4524  0.5298  1.2284
  108OSM   H14T11091   2.977   1.941   9.164 -0.4642 -0.7338  1.5252
  108OSM   C15S11092   3.093   1.788   9.082  0.1967 -0.0323 -0.6807
  108OSM   H15S11093   3.034   1.707   9.131 -1.4483  0.3956 -1.8806
  108OSM   H15T11094   3.199   1.756   9.079 -0.2294 -1.5027 -0.9624
  108OSM   C16S11095   3.051   1.829   8.944 -0.6081  0.8371 -0.4522
  108OSM   H16S11096   2.947   1.867   8.946 -1.9882 -2.4427 -2.5378
  108OSM   H16T11097   3.044   1.736   8.884  0.0051 -0.2387  1.0666
  108OSM   C17S11098   3.149   1.908   8.860 -0.5215 -0.1539 -0.2504
  108OSM   H17S11099   3.249   1.861   8.868  0.2894  1.4181 -0.6571
  108OSM   H17T11100   3.143   2.004   8.915 -1.8766  0.2717 -1.1058
  108OSM   C18S11101   3.105   1.925   8.712  0.5019  0.5288  0.2642
  108OSM   H18S11102   3.014   1.986   8.700 -0.0646 -0.5774 -1.5288
  108OSM   H18T11103   3.085   1.823   8.673  0.0455 -0.4537  2.8518
  108OSM   H18U11104   3.182   1.984   8.658 -1.0692  0.4710 -2.1970
  108OSM    C1F11105   3.143   1.205  10.239  0.3076 -0.0460  0.0240
  108OSM     OF11106   3.050   1.241  10.310 -0.2144  0.1891 -0.7173
  108OSM    C2F11107   3.124   1.107  10.126  0.7819  0.3978 -0.6722
  108OSM    H2F11108   3.155   1.009  10.167 -2.1133 -0.4844 -0.3619
  108OSM    H2G11109   3.173   1.147  10.035 -0.2929 -0.0744 -1.4900
  108OSM    C3F11110   2.981   1.067  10.087  1.1076  0.1869  0.4858
  108OSM    H3F11111   2.948   1.141  10.011  0.3730  0.5881  1.1760
  108OSM    H3G11112   2.912   1.067  10.174  0.4445  1.0561 -0.0193
  108OSM    C4F11113   2.967   0.924  10.026  0.0311  0.1800 -0.0280
  108OSM    H4F11114   3.004   0.856  10.106 -1.1235  0.7719  1.0375
  108OSM    H4G11115   3.034   0.914   9.937 -0.3069  1.0971 -0.3995
  108OSM    C5F11116   2.827   0.892   9.987  0.6415  1.1231  0.2611
  108OSM    H5F11117   2.758   0.978   9.974 -1.3325 -0.5577 -0.9680
  108OSM    H5G11118   2.774   0.847  10.074  0.2917 -1.6867 -1.2808
  108OSM    C6F11119   2.826   0.812   9.860 -0.3723 -0.1663  0.4965
  108OSM    H6F11120   2.733   0.752   9.848 -0.6185  0.1176  0.9393
  108OSM    H6G11121   2.911   0.742   9.851  0.9931  1.4146  0.5092
  108OSM    C7F11122   2.833   0.899   9.736  1.0116 -0.2132 -0.4295
  108OSM    H7F11123   2.922   0.964   9.726 -0.9086  2.4604 -1.3291
  108OSM    H7G11124   2.751   0.974   9.745  1.3421  0.2287 -1.0002
  108OSM    C8F11125   2.800   0.821   9.608  0.5930 -0.1513  0.0494
  108OSM    H8F11126   2.710   0.866   9.560  0.6578 -1.9958 -1.9450
  108OSM    H8G11127   2.768   0.718   9.635 -0.4368 -0.9535 -3.7062
  108OSM    C9F11128   2.919   0.807   9.518 -0.0924  0.7767 -0.2704
  108OSM    H9F11129   2.984   0.718   9.524  0.0087  0.9218  1.0816
  108OSM   C10F11130   2.956   0.889   9.416 -1.3266  0.0304  0.8802
  108OSM   H10F11131   3.053   0.875   9.365 -0.3260  2.5404  1.9473
  108OSM   C11F11132   2.879   1.009   9.377  0.0438 -0.6681  0.1182
  108OSM   H11F11133   2.937   1.104   9.376 -0.8118 -0.1291 -1.3663
  108OSM   H11G11134   2.793   1.043   9.438 -0.3281  0.7431 -1.1184
  108OSM   C12F11135   2.807   1.009   9.244  0.2215  0.5153  0.4538
  108OSM   H12F11136   2.732   1.092   9.243  0.0502  0.3636  0.5510
  108OSM   H12G11137   2.746   0.916   9.237  1.9857 -0.7198  0.8583
  108OSM   C13F11138   2.897   1.018   9.113 -0.4501  0.3105  0.0060
  108OSM   H13F11139   2.969   0.933   9.114  0.2597  0.8733 -1.3678
  108OSM   H13G11140   2.948   1.116   9.122  0.5048 -0.3054  1.8572
  108OSM   C14F11141   2.810   1.015   8.986 -0.2181 -0.0599 -0.2808
  108OSM   H14F11142   2.730   1.091   8.996 -0.0646  0.1595 -0.6994
  108OSM   H14G11143   2.752   0.920   8.982 -0.0100 -0.1905 -0.2020
  108OSM   C15F11144   2.879   1.040   8.853  0.2232 -0.3377  0.4381
  108OSM   H15F11145   2.936   0.947   8.833 -1.7019 -1.1933 -1.4432
  108OSM   H15G11146   2.946   1.129   8.849  0.1681 -0.3248 -1.7405
  108OSM   C16F11147   2.788   1.058   8.731  0.2821 -0.4238 -0.0021
  108OSM   H16F11148   2.708   1.134   8.745  1.5200  0.9128  0.0087
  108OSM   H16G11149   2.734   0.967   8.695 -2.3015  1.2035 -0.5035
  108OSM   C17F11150   2.875   1.095   8.611 -0.1333  0.4127  0.1340
  108OSM   H17F11151   2.955   1.022   8.585 -1.1824 -0.4233 -0.8544
  108OSM   H17G11152   2.935   1.187   8.627  1.5885 -0.4365 -1.0821
  108OSM   C18F11153   2.793   1.120   8.489  0.3033  0.4346 -0.3111
  108OSM   H18F11154   2.850   1.121   8.394  1.5609  0.4656  0.4184
  108OSM   H18G11155   2.737   1.216   8.485 -0.8348 -0.1457  0.8723
  108OSM   H18H11156   2.709   1.048   8.484 -1.9607  2.9314 -0.1126
  109OSM      N11157   3.093   4.658  11.298 -0.3409 -0.1982 -0.0202
  109OSM    C1511158   3.160   4.656  11.439 -0.0438 -0.2356  0.2764
  109OSM   H15A11159   3.202   4.560  11.462 -0.1001 -0.1449  0.7771
  109OSM   H15B11160   3.097   4.698  11.516 -1.3615 -0.2041 -0.7860
  109OSM   H15C11161   3.241   4.728  11.445 -2.0854  2.2143  0.3163
  109OSM    C1411162   2.969   4.579  11.312  0.6381 -0.1546  0.2888
  109OSM   H14A11163   2.931   4.551  11.215 -0.0486  0.0731  0.4849
  109OSM   H14B11164   2.895   4.629  11.373  0.2087 -0.0562 -0.2990
  109OSM   H14C11165   2.992   4.490  11.368 -0.1392 -0.7228 -0.2874
  109OSM    C1311166   3.075   4.797  11.252 -0.2931 -0.4697  0.4297
  109OSM   H13A11167   3.171   4.835  11.218 -0.7971  1.1614  0.7475
  109OSM   H13B11168   3.037   4.866  11.326 -1.1619 -0.1389 -0.3009
  109OSM   H13C11169   3.012   4.797  11.164  1.5832  0.6113 -1.0005
  109OSM    C1211170   3.194   4.589  11.204  0.1139  0.2635  0.0295
  109OSM   H12A11171   3.225   4.494  11.245  0.8512  0.1935 -0.6650
  109OSM   H12B11172   3.283   4.650  11.204 -0.1076  0.6261 -1.6016
  109OSM    C1111173   3.154   4.566  11.055 -0.1876  0.5004  0.3338
  109OSM   H11A11174   3.238   4.523  10.996  1.2193  2.7125  0.6036
  109OSM   H11B11175   3.113   4.656  11.005 -1.5812 -0.3807 -0.1814
  109OSM      P11176   3.081   4.318  11.059  0.2737  0.1077  0.1559
  109OSM    O1311177   3.176   4.294  11.169 -0.1474  0.4777 -0.6210
  109OSM    O1411178   2.945   4.253  11.072  0.9876 -0.2952  0.0090
  109OSM    O1111179   3.149   4.301  10.915  0.3016 -0.0085  0.2591
  109OSM    O1211180   3.043   4.469  11.055  0.0381  0.3707 -0.1631
  109OSM    C1S11181   3.101   4.201  10.822 -0.1080  0.2994 -0.0622
  109OSM    H1S11182   2.999   4.226  10.787 -0.3913 -0.2393  0.3663
  109OSM    H1T11183   3.083   4.106  10.877  2.3510  0.1145  0.5758
  109OSM     NF11184   3.161   4.093  10.601 -0.8239  0.0377 -0.0152
  109OSM    HNF11185   3.186   3.997  10.604  1.0724  0.5352  1.0935
  109OSM    C2S11186   3.210   4.172  10.710  0.3162  0.1907 -0.6226
  109OSM    H2S11187   3.235   4.273  10.670 -2.3401  1.1714 -0.0513
  109OSM    C3S11188   3.342   4.119  10.783 -0.4122  0.4675 -1.0938
  109OSM    H3S11189   3.313   4.020  10.824  0.8952  0.1580 -0.8929
  109OSM     O311190   3.389   4.194  10.896  0.5688 -0.4178 -0.6212
  109OSM    HO311191   3.308   4.241  10.918  0.2102 -0.9106 -0.8669
  109OSM    C4S11192   3.453   4.107  10.689 -0.0770  0.2004  0.1643
  109OSM    H4S11193   3.513   4.199  10.682  1.8349 -0.6897  3.1292
  109OSM    C5S11194   3.481   3.997  10.614 -0.1843  0.0448  0.0820
  109OSM    H5S11195   3.428   3.902  10.631  0.2813 -0.5210 -1.4488
  109OSM    C6S11196   3.591   3.993  10.509  0.5080 -0.4693  0.3528
  109OSM    H6S11197   3.624   3.887  10.514  0.7454 -0.3734  4.3506
  109OSM    H6T11198   3.675   4.064  10.527 -1.8856  2.2835  1.5997
  109OSM    C7S11199   3.555   4.024  10.364  0.3834  0.4276 -0.1606
  109OSM    H7S11200   3.471   3.962  10.328  2.2517 -0.7643 -2.8007
  109OSM    H7T11201   3.639   4.003  10.294  0.2381  0.5680 -0.3747
  109OSM    C8S11202   3.517   4.174  10.349 -0.7040  0.2823 -0.1018
  109OSM    H8S11203   3.587   4.243  10.402 -1.0267  1.1333 -0.7646
  109OSM    H8T11204   3.420   4.185  10.403 -0.1625  0.6256  0.8281
  109OSM    C9S11205   3.506   4.219  10.203  1.6064  0.4801 -0.3074
  109OSM    H9S11206   3.582   4.170  10.139  0.0506 -1.6847 -0.6095
  109OSM    H9T11207   3.523   4.328  10.187  1.1335  0.0916 -4.6473
  109OSM   C10S11208   3.366   4.185  10.147  0.6047  0.2991  0.1739
  109OSM   H10S11209   3.290   4.252  10.191 -1.0657 -1.1480 -0.3910
  109OSM   H10T11210   3.333   4.081  10.171 -1.5596  1.3056  1.9293
  109OSM   C11S11211   3.354   4.194   9.987 -0.2256 -0.1770 -0.3398
  109OSM   H11S11212   3.400   4.293   9.966 -1.0370  0.5435  1.1449
  109OSM   H11T11213   3.248   4.192   9.955 -0.1562  0.4651 -0.6323
  109OSM   C12S11214   3.432   4.083   9.915  0.4031  0.5559 -0.6531
  109OSM   H12S11215   3.516   4.045   9.978 -1.0119  1.2260  1.7844
  109OSM   H12T11216   3.477   4.126   9.823 -2.0955  0.5135 -1.9765
  109OSM   C13S11217   3.368   3.951   9.872  0.3086 -0.9540  0.5496
  109OSM   H13S11218   3.438   3.900   9.803  1.0851  0.0916  0.5494
  109OSM   H13T11219   3.276   3.984   9.819 -1.8846 -2.7241  2.9437
  109OSM   C14S11220   3.311   3.879   9.994  0.3028 -0.5372  0.2898
  109OSM   H14S11221   3.245   3.957  10.038 -0.0367 -0.7422  0.1408
  109OSM   H14T11222   3.384   3.848  10.072  1.0122 -0.2985 -0.2555
  109OSM   C15S11223   3.225   3.757   9.959 -0.1586 -0.1351 -0.1270
  109OSM   H15S11224   3.292   3.672   9.937  0.6811  0.0998  1.3628
  109OSM   H15T11225   3.172   3.775   9.863 -1.3785  3.9515  1.0911
  109OSM   C16S11226   3.123   3.713  10.069 -0.1042 -1.1227  0.2605
  109OSM   H16S11227   3.075   3.619  10.033  0.2265 -1.0721 -0.3299
  109OSM   H16T11228   3.057   3.802  10.073  1.8394  0.4123 -0.0389
  109OSM   C17S11229   3.174   3.692  10.211  0.4297  0.7056 -0.4737
  109OSM   H17S11230   3.243   3.775  10.234  0.9843  0.4069 -1.0231
  109OSM   H17T11231   3.234   3.598  10.215  2.0301  1.6177 -2.0346
  109OSM   C18S11232   3.070   3.673  10.321  0.0203  0.0198  0.1751
  109OSM   H18S11233   3.031   3.570  10.308  2.2737 -0.9452  0.6012
  109OSM   H18T11234   2.995   3.755  10.310  2.0392  2.0945  1.0509
  109OSM   H18U11235   3.124   3.692  10.417  2.2917  5.6319 -1.7833
  109OSM    C1F11236   3.078   4.146  10.511  0.6048 -0.0942  0.8563
  109OSM     OF11237   3.043   4.266  10.522  0.1920  0.1587 -0.2042
  109OSM    C2F11238   3.041   4.061  10.391  1.2913 -0.9115 -0.4192
  109OSM    H2F11239   3.001   3.962  10.424 -0.0109  0.4158  2.2794
  109OSM    H2G11240   3.127   4.029  10.328 -0.3955 -3.3114 -1.6797
  109OSM    C3F11241   2.942   4.134  10.289 -0.0496  0.2160  0.0672
  109OSM    H3F11242   2.853   4.167  10.346 -0.4200 -0.4009 -0.1500
  109OSM    H3G11243   2.900   4.057  10.221 -1.7479  1.7207 -0.6622
  109OSM    C4F11244   3.011   4.240  10.206  0.4701 -0.2600  0.2705
  109OSM    H4F11245   3.078   4.185  10.136 -0.4986  1.4962 -2.1789
  109OSM    H4G11246   3.062   4.307  10.278 -2.0140  2.2158 -0.1035
  109OSM    C5F11247   2.930   4.339  10.118 -0.1699 -0.5066  0.0412
  109OSM    H5F11248   2.851   4.284  10.063 -1.2904  2.0882 -1.0956
  109OSM    H5G11249   3.001   4.386  10.047 -0.4627  0.3003  0.2724
  109OSM    C6F11250   2.855   4.448  10.192 -0.0461 -0.4791  0.7428
  109OSM    H6F11251   2.918   4.515  10.255 -1.6035  2.7436 -0.8813
  109OSM    H6G11252   2.775   4.399  10.252  1.0877 -1.7575  1.2487
  109OSM    C7F11253   2.790   4.552  10.096 -0.3655 -0.0948 -1.4084
  109OSM    H7F11254   2.730   4.618  10.163  2.2985  0.5675  0.4764
  109OSM    H7G11255   2.720   4.494  10.032  1.4986 -1.5958 -2.1895
  109OSM    C8F11256   2.887   4.641  10.013 -0.3133  0.2000  0.1428
  109OSM    H8F11257   2.827   4.669   9.923 -0.6278 -0.3723  0.1691
  109OSM    H8G11258   2.987   4.596   9.999  0.0569  1.2474 -0.8057
  109OSM    C9F11259   2.917   4.771  10.089 -0.6829 -0.6395 -0.6792
  109OSM    H9F11260   2.921   4.759  10.198 -1.7378 -0.7854 -0.6401
  109OSM   C10F11261   2.915   4.895  10.042  1.0435 -0.3793 -0.1580
  109OSM   H10F11262   2.946   4.978  10.107 -0.3875 -1.9050  2.6545
  109OSM   C11F11263   2.886   4.926   9.896  0.4669  0.4729  0.0398
  109OSM   H11F11264   2.801   4.994   9.877 -0.0246 -0.3903 -0.9231
  109OSM   H11G11265   2.863   4.842   9.827 -1.4119  1.0442 -0.0725
  109OSM   C12F11266   3.016   4.996   9.838  0.3472 -0.3558 -0.1417
  109OSM   H12F11267   3.107   4.937   9.861  1.0308  0.1539 -1.4275
  109OSM   H12G11268   3.040   5.095   9.883  1.7041 -0.4401 -0.6436
  109OSM   C13F11269   2.999   4.998   9.684  0.0568 -0.1344 -0.6452
  109OSM   H13F11270   2.913   5.060   9.651 -2.1249 -4.1592 -3.5017
  109OSM   H13G11271   2.982   4.894   9.649 -1.2105 -0.8915  2.0165
  109OSM   C14F11272   3.133   5.034   9.599  0.3723 -0.4657  0.2144
  109OSM   H14F11273   3.213   4.960   9.623  0.9578 -0.1234 -0.5949
  109OSM   H14G11274   3.174   5.132   9.631  0.5520 -0.3085 -0.4731
  109OSM   C15F11275   3.128   5.038   9.437 -0.5854  0.3158 -0.1411
  109OSM   H15F11276   3.128   4.939   9.387 -0.0745  0.5204 -0.5493
  109OSM   H15G11277   3.230   5.074   9.411  0.2886 -1.5980  0.5328
  109OSM   C16F11278   3.018   5.133   9.388 -0.1510 -0.2969  0.6929
  109OSM   H16F11279   3.021   5.228   9.446 -0.1284 -0.3441  0.7685
  109OSM   H16G11280   2.919   5.089   9.410  0.7165 -2.0945  1.1901
  109OSM   C17F11281   3.030   5.162   9.240  0.8912 -0.2583  0.3029
  109OSM   H17F11282   3.042   5.070   9.179  1.3779 -1.4024  2.0437
  109OSM   H17G11283   3.121   5.222   9.222  0.7568 -0.2341 -0.3053
  109OSM   C18F11284   2.912   5.245   9.175 -0.8023  0.5630  0.3778
  109OSM   H18F11285   2.926   5.252   9.065  2.4765  1.3127  0.7256
  109OSM   H18G11286   2.912   5.339   9.234  1.3867 -0.2784  1.8718
  109OSM   H18H11287   2.824   5.184   9.206 -0.2904  0.5255  1.8174
  110OSM      N11288   2.317   0.801  11.499  0.1880  0.0760  0.0891
  110OSM    C1511289   2.291   0.697  11.599  0.6305  0.4593 -0.5872
  110OSM   H15A11290   2.372   0.624  11.600  0.0501 -0.2792 -2.3204
  110OSM   H15B11291   2.203   0.641  11.571  0.1959 -0.5553  2.5289
  110OSM   H15C11292   2.263   0.741  11.693 -0.3580 -0.0141 -0.6532
  110OSM    C1411293   2.226   0.917  11.508 -0.2895 -0.6234  0.3567
  110OSM   H14A11294   2.126   0.880  11.491 -0.1248 -1.4236  1.0322
  110OSM   H14B11295   2.251   1.000  11.444 -3.8686  1.4114  1.2748
  110OSM   H14C11296   2.224   0.947  11.612 -0.4509 -4.0575  1.4851
  110OSM    C1311297   2.461   0.845  11.523 -0.4122 -0.8137 -0.0908
  110OSM   H13A11298   2.536   0.768  11.524  2.3793  1.7357 -0.8677
  110OSM   H13B11299   2.481   0.909  11.607  1.4981  3.4941 -3.4328
  110OSM   H13C11300   2.492   0.914  11.446  0.5651 -2.1921 -0.9852
  110OSM    C1211301   2.303   0.737  11.358  0.1521  0.1857 -0.1935
  110OSM   H12A11302   2.205   0.692  11.348 -1.2797  2.9178  0.4191
  110OSM   H12B11303   2.376   0.659  11.343 -1.5828 -1.3545 -1.0912
  110OSM    C1111304   2.318   0.828  11.231  0.4578  0.6770 -0.2483
  110OSM   H11A11305   2.245   0.911  11.246 -1.4192 -1.1333  1.3596
  110OSM   H11B11306   2.275   0.765  11.150  1.8705  0.4671 -0.8614
  110OSM      P11307   2.476   1.002  11.120 -0.0787 -0.4618 -0.1537
  110OSM    O1311308   2.507   1.107  11.224 -0.7401 -0.3081  0.2885
  110OSM    O1411309   2.575   0.982  11.012  0.0858 -0.5256 -0.0881
  110OSM    O1111310   2.336   1.037  11.059 -0.4276 -0.1235  0.0574
  110OSM    O1211311   2.451   0.871  11.204  0.6448  0.3664  0.6424
  110OSM    C1S11312   2.342   1.139  10.951 -0.2353 -0.1051  0.1215
  110OSM    H1S11313   2.430   1.123  10.885  0.7946  1.2863  1.1104
  110OSM    H1T11314   2.355   1.236  11.004 -2.4867  0.0190  0.5405
  110OSM     NF11315   2.235   1.225  10.730 -0.0067 -0.0269  0.1155
  110OSM    HNF11316   2.184   1.309  10.715  0.6144  0.0594 -1.7175
  110OSM    C2S11317   2.213   1.149  10.858 -0.5981 -0.1818  0.2211
  110OSM    H2S11318   2.187   1.044  10.834 -0.3969 -0.7154  2.1998
  110OSM    C3S11319   2.089   1.200  10.944  0.4401 -0.6567  0.7432
  110OSM    H3S11320   2.114   1.305  10.969  1.3383 -0.0163 -2.4320
  110OSM     O311321   2.067   1.133  11.068  0.0218 -0.2096  0.2490
  110OSM    HO311322   2.141   1.073  11.079  1.5809  1.7072  0.9330
  110OSM    C4S11323   1.963   1.194  10.866  0.9046 -0.4444 -0.2608
  110OSM    H4S11324   1.931   1.090  10.854 -0.6754 -0.1874  1.2233
  110OSM    C5S11325   1.893   1.296  10.807  0.6814 -0.3418 -0.7722
  110OSM    H5S11326   1.924   1.400  10.820 -0.5509  0.4160 -3.2853
  110OSM    C6S11327   1.769   1.291  10.726  0.5577 -0.4854 -0.2807
  110OSM    H6S11328   1.732   1.396  10.733  2.6018  0.2666 -0.0829
  110OSM    H6T11329   1.698   1.225  10.781  0.7631 -0.8839 -0.4939
  110OSM    C7S11330   1.778   1.251  10.579 -0.1367  0.1813  0.3487
  110OSM    H7S11331   1.676   1.246  10.533 -0.1085 -3.0043  0.4389
  110OSM    H7T11332   1.815   1.147  10.569 -3.0453 -1.1043  1.6803
  110OSM    C8S11333   1.866   1.352  10.505 -0.2596  0.0977  0.5841
  110OSM    H8S11334   1.968   1.344  10.549  0.2228  0.5126 -0.4376
  110OSM    H8T11335   1.826   1.454  10.521  0.8689  0.4391  1.4012
  110OSM    C9S11336   1.875   1.325  10.353  0.1222  0.2565  0.0348
  110OSM    H9S11337   1.923   1.415  10.309  0.7995 -0.3026 -0.4024
  110OSM    H9T11338   1.783   1.314  10.292  0.8660  0.9905 -1.2814
  110OSM   C10S11339   1.963   1.205  10.316  0.4269 -0.1015  0.8579
  110OSM   H10S11340   1.948   1.135  10.402  1.3715  0.1644  1.2463
  110OSM   H10T11341   2.072   1.216  10.301  0.1567  0.5352 -0.8222
  110OSM   C11S11342   1.916   1.132  10.181  0.3617  0.0978 -0.6205
  110OSM   H11S11343   1.808   1.105  10.177  0.4764 -0.2327 -2.4009
  110OSM   H11T11344   1.966   1.033  10.180  1.5676  0.6128  1.6605
  110OSM   C12S11345   1.951   1.207  10.056 -0.0171 -0.3293  0.1947
  110OSM   H12S11346   2.061   1.213  10.040 -0.2341 -0.1336 -1.4172
  110OSM   H12T11347   1.920   1.314  10.050  1.5553  0.0821 -2.0048
  110OSM   C13S11348   1.897   1.147   9.923  0.4801  0.5005 -0.1073
  110OSM   H13S11349   1.786   1.141   9.932  0.5507  1.8899  3.2130
  110OSM   H13T11350   1.932   1.042   9.911 -2.0175 -0.1720 -2.4877
  110OSM   C14S11351   1.952   1.221   9.797  0.2882 -0.6447  0.9470
  110OSM   H14S11352   2.061   1.239   9.789  0.1962 -0.8531 -1.6129
  110OSM   H14T11353   1.902   1.320   9.792 -1.2515 -1.4102 -3.5075
  110OSM   C15S11354   1.906   1.153   9.663  0.0005 -0.4428  0.2301
  110OSM   H15S11355   1.798   1.181   9.661 -0.2975 -1.3409  2.0763
  110OSM   H15T11356   1.923   1.044   9.656  0.0906 -0.3120 -3.4242
  110OSM   C16S11357   1.969   1.227   9.539  0.6489 -0.3393 -0.9594
  110OSM   H16S11358   2.078   1.208   9.534  0.5271 -1.2730 -0.2762
  110OSM   H16T11359   1.960   1.337   9.544 -0.7440 -0.4395 -0.9337
  110OSM   C17S11360   1.912   1.171   9.409  0.0112 -0.2588  0.4651
  110OSM   H17S11361   1.826   1.229   9.370 -0.8795  0.1068  2.7958
  110OSM   H17T11362   1.864   1.072   9.427 -0.4447 -0.0681  0.3231
  110OSM   C18S11363   2.014   1.152   9.298 -0.2204  0.6130  0.4300
  110OSM   H18S11364   2.076   1.063   9.325  0.5346  1.5027  1.7684
  110OSM   H18T11365   2.088   1.231   9.273  2.9307 -2.1284  0.3752
  110OSM   H18U11366   1.957   1.136   9.204 -3.4592  0.5021  2.2660
  110OSM    C1F11367   2.325   1.187  10.646 -0.1451  0.2981  0.1672
  110OSM     OF11368   2.367   1.070  10.645 -0.1677 -0.3415  0.4920
  110OSM    C2F11369   2.376   1.290  10.549  0.2902  0.0597 -0.1731
  110OSM    H2F11370   2.452   1.350  10.605 -0.8233  0.2919  1.1417
  110OSM    H2G11371   2.291   1.353  10.518  0.7606  1.0515  0.4974
  110OSM    C3F11372   2.447   1.219  10.438 -0.1212  0.2176 -0.3818
  110OSM    H3F11373   2.385   1.141  10.388 -1.4751  1.4809 -0.7488
  110OSM    H3G11374   2.542   1.170  10.467 -1.0555 -0.8440  1.0108
  110OSM    C4F11375   2.502   1.323  10.337 -0.3188 -0.0600 -0.0350
  110OSM    H4F11376   2.578   1.386  10.387 -0.6450 -0.1678  0.6058
  110OSM    H4G11377   2.413   1.389  10.323  0.6223  0.8962 -1.8241
  110OSM    C5F11378   2.546   1.244  10.216 -0.6875 -0.0008 -0.0518
  110OSM    H5F11379   2.457   1.180  10.197 -0.1742 -0.6980 -0.1481
  110OSM    H5G11380   2.632   1.177  10.239 -1.4446 -0.8650  0.3031
  110OSM    C6F11381   2.589   1.339  10.098 -0.6846 -0.2910  0.5490
  110OSM    H6F11382   2.671   1.407  10.129 -1.0189 -0.3559  1.6285
  110OSM    H6G11383   2.504   1.406  10.078  1.7551  2.8076 -0.2375
  110OSM    C7F11384   2.621   1.267   9.970 -0.3901  0.6846 -0.0652
  110OSM    H7F11385   2.535   1.201   9.944 -0.8923  0.4257  2.0977
  110OSM    H7G11386   2.714   1.207   9.984 -2.0352 -2.5720 -1.8540
  110OSM    C8F11387   2.640   1.367   9.851  0.0954 -0.3810  0.3720
  110OSM    H8F11388   2.541   1.416   9.838 -0.4102 -1.2926  0.6743
  110OSM    H8G11389   2.646   1.298   9.764  0.6612 -0.1421  0.2163
  110OSM    C9F11390   2.765   1.456   9.862  0.0689 -0.8474 -0.0097
  110OSM    H9F11391   2.783   1.506   9.958  2.4597  0.0358 -0.8315
  110OSM   C10F11392   2.863   1.470   9.774  0.3325  0.3346  0.1880
  110OSM   H10F11393   2.957   1.520   9.801  1.4909 -1.5785 -0.1214
  110OSM   C11F11394   2.866   1.408   9.637  1.1390  0.2701  0.9143
  110OSM   H11F11395   2.795   1.323   9.634 -0.7629  1.8082  0.6456
  110OSM   H11G11396   2.965   1.363   9.614  0.4134 -0.5297 -0.8029
  110OSM   C12F11397   2.841   1.503   9.517  0.3215  0.1166 -0.0687
  110OSM   H12F11398   2.825   1.438   9.429  0.0674 -1.1659  0.8954
  110OSM   H12G11399   2.921   1.580   9.507 -1.9945  3.0136  1.8992
  110OSM   C13F11400   2.707   1.579   9.520 -0.3687  0.1430  0.2903
  110OSM   H13F11401   2.706   1.661   9.595 -1.5947 -0.5091  1.0259
  110OSM   H13G11402   2.623   1.508   9.539  0.2382 -1.0260 -1.2116
  110OSM   C14F11403   2.685   1.639   9.379 -0.3089 -0.4694 -1.2098
  110OSM   H14F11404   2.666   1.550   9.316 -2.0795  0.2106 -1.7082
  110OSM   H14G11405   2.775   1.689   9.338  0.3010 -0.3065  0.3013
  110OSM   C15F11406   2.554   1.726   9.368 -0.2414  0.8568  0.3976
  110OSM   H15F11407   2.583   1.828   9.399  0.9621  1.0087 -1.1269
  110OSM   H15G11408   2.477   1.698   9.443 -0.2353  2.0210  0.8464
  110OSM   C16F11409   2.506   1.726   9.227 -0.0168 -0.4161 -0.0286
  110OSM   H16F11410   2.592   1.744   9.160  0.7848  2.1485  1.5689
  110OSM   H16G11411   2.433   1.809   9.218  1.0541  0.4467 -1.1445
  110OSM   C17F11412   2.434   1.601   9.175  0.5761  0.8062 -0.2355
  110OSM   H17F11413   2.356   1.554   9.239 -0.5110  0.7101 -1.5732
  110OSM   H17G11414   2.512   1.522   9.163 -1.0869 -0.8712 -0.5690
  110OSM   C18F11415   2.356   1.627   9.037  0.0793 -0.3455 -1.1200
  110OSM   H18F11416   2.272   1.696   9.062  0.6182 -0.7125  2.1573
  110OSM   H18G11417   2.311   1.531   9.003  0.0487 -0.2861 -1.2463
  110OSM   H18H11418   2.429   1.676   8.969  0.2820 -1.7211 -1.9273
  111OSM      N11419   5.320   0.721  10.893 -0.2993  0.4182  0.8363
  111OSM    C1511420   5.405   0.769  11.011  0.4415 -0.8559  0.8165
  111OSM   H15A11421   5.487   0.701  11.032 -0.8537 -3.5875 -2.0793
  111OSM   H15B11422   5.333   0.777  11.090 -2.6593  0.1692 -1.8946
  111OSM   H15C11423   5.444   0.868  10.992 -0.9846 -0.2546  0.9120
  111OSM    C1411424   5.233   0.835  10.855 -0.6863  0.1750 -0.0232
  111OSM   H14A11425   5.154   0.849  10.928 -0.5310  1.1344 -0.0296
  111OSM   H14B11426   5.194   0.816  10.756  0.7918  0.4367 -0.6659
  111OSM   H14C11427   5.292   0.922  10.834 -0.4877  0.3446  1.1816
  111OSM    C1311428   5.425   0.716  10.781  0.4561  0.3449  0.3654
  111OSM   H13A11429   5.377   0.685  10.689  0.1957  1.6284  0.0577
  111OSM   H13B11430   5.503   0.645  10.805  0.5619 -0.3571 -1.8271
  111OSM   H13C11431   5.466   0.813  10.759  0.6895  0.8226  2.6365
  111OSM    C1211432   5.254   0.594  10.924  0.0980 -0.0539  0.1526
  111OSM   H12A11433   5.197   0.619  11.012  2.1203  1.6751  1.0667
  111OSM   H12B11434   5.329   0.526  10.960  0.7381  1.0394  0.9505
  111OSM    C1111435   5.191   0.521  10.795 -0.0786  0.5177 -0.1268
  111OSM   H11A11436   5.287   0.490  10.748 -0.1457  0.5052 -0.2561
  111OSM   H11B11437   5.147   0.601  10.732  0.8266 -0.9117 -2.7261
  111OSM      P11438   5.012   0.354  10.711 -0.0439 -0.3379 -0.0905
  111OSM    O1311439   4.985   0.205  10.721  0.4556  0.0309  0.6270
  111OSM    O1411440   4.895   0.442  10.706  0.6836  0.1435  0.0068
  111OSM    O1111441   5.095   0.386  10.586 -0.0156  0.9163  0.6146
  111OSM    O1211442   5.109   0.407  10.824 -0.4221  0.3857  0.5521
  111OSM    C1S11443   5.195   0.303  10.526  0.1608  0.5473 -0.4859
  111OSM    H1S11444   5.150   0.203  10.510  0.0944  0.6276 -0.8075
  111OSM    H1T11445   5.284   0.292  10.592  1.0658 -1.2707 -1.9048
  111OSM     NF11446   5.291   0.258  10.301 -0.8734 -0.0767 -0.1014
  111OSM    HNF11447   5.388   0.243  10.317 -0.8704  0.6182  0.5799
  111OSM    C2S11448   5.229   0.362  10.385  0.0924 -0.1107  0.4914
  111OSM    H2S11449   5.141   0.392  10.325  0.6427  1.4957  0.4357
  111OSM    C3S11450   5.306   0.495  10.395 -0.6987 -0.2155 -0.1722
  111OSM    H3S11451   5.401   0.477  10.449 -0.1573  0.5989 -0.8359
  111OSM     O311452   5.236   0.600  10.460  0.5471 -0.2456  0.7239
  111OSM    HO311453   5.159   0.557  10.498  1.2809 -1.1529  1.2140
  111OSM    C4S11454   5.345   0.534  10.253 -0.1863  0.1128 -0.1719
  111OSM    H4S11455   5.432   0.480  10.214  0.3414  0.5524  0.3689
  111OSM    C5S11456   5.281   0.621  10.168  0.4392 -0.5233 -0.0999
  111OSM    H5S11457   5.175   0.641  10.188 -0.1230 -1.9904 -1.4568
  111OSM    C6S11458   5.331   0.663  10.032  0.3076 -0.3721  0.9338
  111OSM    H6S11459   5.442   0.674  10.031  0.4110 -1.0500  2.4065
  111OSM    H6T11460   5.298   0.766  10.007  1.9441  0.1576  0.8219
  111OSM    C7S11461   5.285   0.577   9.919 -0.0264 -0.3749  0.3307
  111OSM    H7S11462   5.175   0.583   9.913 -0.0900 -1.0441  0.7225
  111OSM    H7T11463   5.313   0.470   9.934  1.4715 -0.4599 -2.4633
  111OSM    C8S11464   5.335   0.616   9.777  0.0720 -0.3602  0.0968
  111OSM    H8S11465   5.441   0.584   9.777 -0.0764 -0.8843 -0.5824
  111OSM    H8T11466   5.331   0.727   9.767  0.7014 -0.3540 -0.1619
  111OSM    C9S11467   5.262   0.558   9.654 -0.1737 -0.1245  0.0894
  111OSM    H9S11468   5.155   0.580   9.672 -0.5760 -1.6304 -0.3873
  111OSM    H9T11469   5.271   0.448   9.668 -1.9419 -0.3058 -0.0505
  111OSM   C10S11470   5.310   0.605   9.518 -0.7645 -0.4452  0.0537
  111OSM   H10S11471   5.417   0.576   9.508  0.2061  3.3505 -2.8594
  111OSM   H10T11472   5.290   0.714   9.510 -3.8385 -0.6624  2.7714
  111OSM   C11S11473   5.240   0.551   9.396  0.6281 -0.2754 -0.4594
  111OSM   H11S11474   5.133   0.580   9.407  1.0144  0.5133  1.5282
  111OSM   H11T11475   5.238   0.440   9.389  2.1082 -0.4448  1.1239
  111OSM   C12S11476   5.282   0.611   9.265  0.2652  0.4908  0.5713
  111OSM   H12S11477   5.379   0.567   9.232  0.2856  0.4623  0.6686
  111OSM   H12T11478   5.303   0.718   9.282  2.1363  0.0869  0.9975
  111OSM   C13S11479   5.183   0.580   9.150 -0.0804  0.4251  0.1968
  111OSM   H13S11480   5.089   0.638   9.159 -0.2758  0.0508  0.6477
  111OSM   H13T11481   5.161   0.471   9.156  2.4941 -0.1267  0.4300
  111OSM   C14S11482   5.244   0.603   9.014  0.7350 -0.7717 -0.0987
  111OSM   H14S11483   5.333   0.538   8.996  1.5129  0.4752 -0.9540
  111OSM   H14T11484   5.282   0.706   8.998 -0.2270 -0.1036  1.6647
  111OSM   C15S11485   5.139   0.576   8.896  0.3033  0.5301 -0.2841
  111OSM   H15S11486   5.195   0.601   8.803  0.3546 -0.8985 -0.6604
  111OSM   H15T11487   5.053   0.647   8.900  0.9001  1.3092  4.0786
  111OSM   C16S11488   5.095   0.431   8.881 -0.0967 -0.9189  0.4006
  111OSM   H16S11489   5.041   0.387   8.967 -1.2021 -1.3972 -0.5046
  111OSM   H16T11490   5.186   0.372   8.858  1.3738  2.3213 -3.1153
  111OSM   C17S11491   5.014   0.415   8.749 -0.6912 -1.5879 -0.1828
  111OSM   H17S11492   5.079   0.428   8.660  1.1665 -0.6426  1.2514
  111OSM   H17T11493   4.939   0.497   8.749 -1.5147 -2.3122  0.8355
  111OSM   C18S11494   4.941   0.281   8.736  0.9249 -0.3263  0.5129
  111OSM   H18S11495   4.862   0.268   8.813  0.1034  1.2916  0.0063
  111OSM   H18T11496   5.015   0.198   8.737  0.0263 -1.1494  0.5019
  111OSM   H18U11497   4.889   0.273   8.637  3.5435 -3.0089 -0.7831
  111OSM    C1F11498   5.221   0.159  10.240  0.8556 -0.1208  0.1863
  111OSM     OF11499   5.093   0.152  10.248  0.4185  0.4569 -0.2083
  111OSM    C2F11500   5.288   0.059  10.155 -0.9366 -0.3221 -0.8744
  111OSM    H2F11501   5.214   0.053  10.073 -1.0000  1.0342 -0.9286
  111OSM    H2G11502   5.286  -0.044  10.198 -3.2690 -0.0543 -0.2035
  111OSM    C3F11503   5.415   0.093  10.084 -0.8753 -0.4955 -0.1298
  111OSM    H3F11504   5.436   0.021  10.001  1.4881  0.8911 -0.8335
  111OSM    H3G11505   5.501   0.083  10.154 -0.3194  0.9771 -0.5679
  111OSM    C4F11506   5.422   0.224  10.006  0.4212  0.2586 -0.0382
  111OSM    H4F11507   5.489   0.280  10.075 -0.7989  1.4569  0.1986
  111OSM    H4G11508   5.325   0.278  10.008 -0.7812 -1.8349  0.6937
  111OSM    C5F11509   5.470   0.224   9.862 -0.1375 -0.0487 -0.4694
  111OSM    H5F11510   5.570   0.176   9.866 -0.1322 -0.3752 -2.9691
  111OSM    H5G11511   5.494   0.327   9.827  2.1141 -0.7288 -1.1003
  111OSM    C6F11512   5.391   0.147   9.760 -0.0042 -0.2355  0.6429
  111OSM    H6F11513   5.301   0.210   9.742 -1.3386 -1.5850  2.2866
  111OSM    H6G11514   5.353   0.046   9.786 -1.3948  0.0501 -0.1435
  111OSM    C7F11515   5.457   0.133   9.625 -0.6038 -0.0545  0.2423
  111OSM    H7F11516   5.543   0.064   9.639  0.4204  1.1334  0.0355
  111OSM    H7G11517   5.505   0.227   9.591  0.0694 -0.9804 -1.5047
  111OSM    C8F11518   5.358   0.092   9.518 -0.2707  0.1981 -0.7085
  111OSM    H8F11519   5.285   0.173   9.497 -0.8036 -0.1879 -0.3967
  111OSM    H8G11520   5.297   0.003   9.545 -0.8281  0.6719 -0.3575
  111OSM    C9F11521   5.440   0.058   9.391  0.6284 -0.7985 -0.4409
  111OSM    H9F11522   5.546   0.030   9.403  0.3079 -2.3734 -1.0691
  111OSM   C10F11523   5.394   0.064   9.263  0.1833  0.0790  0.3529
  111OSM   H10F11524   5.454   0.035   9.175  2.1961  1.0781  1.3370
  111OSM   C11F11525   5.248   0.097   9.235 -0.2971  0.1086  0.0230
  111OSM   H11F11526   5.232   0.206   9.220  0.1245  0.2225  0.3834
  111OSM   H11G11527   5.182   0.071   9.321  2.7172 -2.0309  1.8937
  111OSM   C12F11528   5.188   0.029   9.111 -0.4660 -0.4131  0.4037
  111OSM   H12F11529   5.079   0.042   9.099 -0.1428  1.2135 -1.3336
  111OSM   H12G11530   5.205  -0.081   9.120 -0.5661 -0.4985 -0.3588
  111OSM   C13F11531   5.252   0.085   8.980 -0.5430  0.6561  0.1290
  111OSM   H13F11532   5.360   0.060   8.985 -0.6833 -0.2139 -0.7705
  111OSM   H13G11533   5.237   0.195   8.979  0.8768  0.8900  1.3397
  111OSM   C14F11534   5.204   0.015   8.849 -0.1796  0.3650 -0.3071
  111OSM   H14F11535   5.095   0.038   8.849 -0.8920 -2.6568  0.7665
  111OSM   H14G11536   5.222  -0.094   8.853  2.8572  0.8457  1.3967
  111OSM   C15F11537   5.285   0.078   8.738  0.1027 -0.5803  0.6411
  111OSM   H15F11538   5.393   0.057   8.752  0.1905  0.3694  1.4913
  111OSM   H15G11539   5.279   0.188   8.754  6.1302  0.1028  0.5582
  111OSM   C16F11540   5.239   0.027   8.607 -0.1122 -0.7236 -0.0678
  111OSM   H16F11541   5.130   0.041   8.590  0.0115  2.3092  1.0660
  111OSM   H16G11542   5.259  -0.081   8.592  1.6305 -0.1865 -1.9933
  111OSM   C17F11543   5.315   0.094   8.490 -0.4304  0.2049 -0.5709
  111OSM   H17F11544   5.423   0.077   8.512 -0.2960 -0.3378 -1.5986
  111OSM   H17G11545   5.302   0.204   8.489  2.7366  0.7119 -3.4006
  111OSM   C18F11546   5.290   0.044   8.354 -0.3989  0.0069  0.2070
  111OSM   H18F11547   5.184   0.069   8.332 -0.4810 -0.9524 -0.5464
  111OSM   H18G11548   5.298  -0.065   8.334  0.6006 -0.0118  0.6341
  111OSM   H18H11549   5.345   0.097   8.272 -1.2113 -1.8678 -1.6541
  112OSM      N11550   3.737   6.404  10.710  0.6485 -0.7385 -0.2151
  112OSM    C1511551   3.839   6.345  10.796  0.2797 -0.2482  0.0511
  112OSM   H15A11552   3.797   6.287  10.877 -1.0979  0.1751 -0.3369
  112OSM   H15B11553   3.896   6.416  10.854  1.7437 -1.9091  0.7168
  112OSM   H15C11554   3.909   6.283  10.743  2.2876  1.6749  0.2894
  112OSM    C1411555   3.664   6.521  10.775  0.1355 -0.0890  0.1086
  112OSM   H14A11556   3.579   6.553  10.718 -0.7052 -1.2015  0.7096
  112OSM   H14B11557   3.738   6.600  10.784 -1.9678  2.2603 -1.8016
  112OSM   H14C11558   3.617   6.485  10.866  0.0369  0.2695  0.2010
  112OSM    C1311559   3.790   6.450  10.583 -0.1725  0.4434 -0.4388
  112OSM   H13A11560   3.841   6.375  10.524  1.3212 -1.3439  2.8234
  112OSM   H13B11561   3.844   6.543  10.592 -1.1191  0.8684  1.2311
  112OSM   H13C11562   3.709   6.491  10.525 -0.6182  0.7262  0.3668
  112OSM    C1211563   3.635   6.296  10.680  0.6163  0.7827  0.0108
  112OSM   H12A11564   3.687   6.221  10.621 -0.6051 -0.9859  1.0877
  112OSM   H12B11565   3.561   6.333  10.611 -1.6641 -0.8028  1.4552
  112OSM    C1111566   3.574   6.216  10.800  0.4545 -0.3798 -0.4880
  112OSM   H11A11567   3.657   6.151  10.836 -0.2844 -0.3437  1.4234
  112OSM   H11B11568   3.504   6.139  10.762 -1.4504  0.6225  0.8256
  112OSM      P11569   3.358   6.293  10.935  0.1837 -0.2410  0.1985
  112OSM    O1311570   3.320   6.159  10.993 -0.0156 -0.4038 -0.4034
  112OSM    O1411571   3.315   6.411  11.014 -0.0245 -0.2039 -0.0157
  112OSM    O1111572   3.293   6.304  10.790 -0.3194  0.3367 -0.3542
  112OSM    O1211573   3.519   6.295  10.913  0.1472  0.1036 -0.5400
  112OSM    C1S11574   3.277   6.432  10.718 -0.2689 -0.0944 -0.2636
  112OSM    H1S11575   3.340   6.509  10.768  1.0754 -1.2673 -0.0701
  112OSM    H1T11576   3.169   6.457  10.727 -1.0975 -2.1094 -2.9325
  112OSM     NF11577   3.294   6.542  10.499  0.4344 -0.1126  0.9691
  112OSM    HNF11578   3.208   6.554  10.450  0.8586  0.9223  0.4622
  112OSM    C2S11579   3.289   6.410  10.566 -0.5884 -0.1328  0.3456
  112OSM    H2S11580   3.390   6.368  10.553 -1.0715 -1.4730  0.8008
  112OSM    C3S11581   3.186   6.304  10.515  1.3304 -0.6737 -0.1289
  112OSM    H3S11582   3.081   6.335  10.536  1.1364  0.1887 -2.1781
  112OSM     O311583   3.205   6.175  10.575  0.0360  0.1842 -0.4889
  112OSM    HO311584   3.261   6.194  10.650  0.1165  0.6024 -0.6531
  112OSM    C4S11585   3.212   6.285  10.370  0.0927 -0.3182  0.2854
  112OSM    H4S11586   3.299   6.224  10.342  2.0625  1.0104  3.1096
  112OSM    C5S11587   3.127   6.325  10.265 -0.6156 -0.0194 -0.5902
  112OSM    H5S11588   3.047   6.391  10.301  1.5013  1.1828  2.3140
  112OSM    C6S11589   3.146   6.300  10.115 -0.1233  0.1421 -0.8695
  112OSM    H6S11590   3.059   6.248  10.071 -0.3005  1.4225 -2.1129
  112OSM    H6T11591   3.232   6.232  10.096 -0.9771 -0.8136 -1.3222
  112OSM    C7S11592   3.179   6.425  10.034  0.0502 -0.0308 -0.3204
  112OSM    H7S11593   3.277   6.462  10.070  1.5846  0.0680 -4.0992
  112OSM    H7T11594   3.106   6.507  10.046  0.6040  0.7602 -1.9810
  112OSM    C8S11595   3.197   6.395   9.883  0.6919  0.4515  0.5600
  112OSM    H8S11596   3.104   6.345   9.849  0.6809  0.4718  0.5596
  112OSM    H8T11597   3.263   6.309   9.856 -1.2194 -0.6448 -0.8468
  112OSM    C9S11598   3.214   6.519   9.793 -0.1125  0.4124  0.0544
  112OSM    H9S11599   3.296   6.584   9.832 -0.6159  1.2935 -0.3316
  112OSM    H9T11600   3.121   6.579   9.809 -0.6292  0.5776 -3.0568
  112OSM   C10S11601   3.244   6.498   9.643  0.2400  0.3309  0.2871
  112OSM   H10S11602   3.146   6.457   9.610  0.3552  1.2127 -1.2414
  112OSM   H10T11603   3.332   6.433   9.627  1.7455  2.0077  1.3593
  112OSM   C11S11604   3.270   6.625   9.568  0.4652  0.1969 -0.2539
  112OSM   H11S11605   3.253   6.602   9.461  1.6189 -0.4658 -0.3193
  112OSM   H11T11606   3.378   6.653   9.575  1.0347 -1.8928  0.0019
  112OSM   C12S11607   3.172   6.741   9.600  0.4670  0.0678 -0.0918
  112OSM   H12S11608   3.214   6.801   9.684  0.6183  3.3792 -2.3100
  112OSM   H12T11609   3.076   6.697   9.633  0.6120  0.8668  1.4978
  112OSM   C13S11610   3.144   6.852   9.490  0.3473  0.5734  0.0867
  112OSM   H13S11611   3.246   6.862   9.446  0.1747 -1.2197 -0.8045
  112OSM   H13T11612   3.103   6.948   9.529 -1.1236  0.1553 -0.4076
  112OSM   C14S11613   3.041   6.804   9.387  0.8570 -0.1457  0.5414
  112OSM   H14S11614   2.945   6.812   9.443  0.8294  0.4087  0.4217
  112OSM   H14T11615   3.048   6.695   9.364 -1.0693  0.0859 -1.5661
  112OSM   C15S11616   3.044   6.876   9.246 -0.3104  0.0610  0.3511
  112OSM   H15S11617   3.139   6.883   9.188 -0.4397 -0.1763  0.1074
  112OSM   H15T11618   3.013   6.978   9.276 -0.5760 -0.0968  0.6169
  112OSM   C16S11619   2.933   6.828   9.150  0.4671 -0.0670 -0.3072
  112OSM   H16S11620   2.954   6.876   9.051 -0.7713 -0.6397 -0.8716
  112OSM   H16T11621   2.834   6.867   9.182 -0.0225 -0.0863 -1.7013
  112OSM   C17S11622   2.913   6.672   9.121  0.4927 -0.3742 -0.1994
  112OSM   H17S11623   2.839   6.664   9.038 -1.2066  1.3563  1.0312
  112OSM   H17T11624   2.887   6.613   9.212  0.7441  0.3309  0.3389
  112OSM   C18S11625   3.038   6.613   9.070 -0.3959 -0.3905 -0.0391
  112OSM   H18S11626   3.018   6.505   9.054  0.6970 -0.6187  0.0239
  112OSM   H18T11627   3.121   6.628   9.143 -0.2386 -2.1917  0.2077
  112OSM   H18U11628   3.077   6.659   8.976 -0.5335 -1.1735 -0.4832
  112OSM    C1F11629   3.387   6.634  10.503  0.2272 -0.3751  0.1683
  112OSM     OF11630   3.472   6.634  10.589 -0.3393  0.4003 -0.2363
  112OSM    C2F11631   3.376   6.744  10.402 -0.4160  0.0372 -0.3601
  112OSM    H2F11632   3.471   6.736  10.345  0.7005 -0.8765  1.5306
  112OSM    H2G11633   3.373   6.845  10.448 -0.2322  0.7272 -1.8170
  112OSM    C3F11634   3.265   6.726  10.300  0.1441 -0.3333  0.0959
  112OSM    H3F11635   3.165   6.705  10.345  0.9760 -2.3273  1.1355
  112OSM    H3G11636   3.276   6.647  10.223 -2.2981  1.0585 -1.8289
  112OSM    C4F11637   3.243   6.855  10.226 -0.2924  0.1986  1.0415
  112OSM    H4F11638   3.341   6.857  10.174 -0.2625 -1.0180  1.0241
  112OSM    H4G11639   3.241   6.940  10.296  1.8003  0.3895  0.9277
  112OSM    C5F11640   3.131   6.868  10.124 -0.3770 -0.3870  0.5599
  112OSM    H5F11641   3.045   6.878  10.194 -0.8356  2.2444 -0.2765
  112OSM    H5G11642   3.122   6.783  10.053 -3.8831  1.0384 -0.9149
  112OSM    C6F11643   3.146   6.991  10.040  0.6737 -0.3496  0.1907
  112OSM    H6F11644   3.218   6.961   9.961 -1.2928 -0.1996 -1.7452
  112OSM    H6G11645   3.180   7.072  10.109 -1.5846  0.4106  0.5038
  112OSM    C7F11646   3.020   7.037   9.972  0.2114 -0.4160 -0.2769
  112OSM    H7F11647   2.937   7.036  10.046 -0.2321  1.0571 -0.7091
  112OSM    H7G11648   2.982   6.970   9.893 -1.3588  0.9684 -0.7587
  112OSM    C8F11649   3.056   7.175   9.926  0.4067  0.0188  0.1962
  112OSM    H8F11650   3.131   7.164   9.845  0.1813 -0.3010  0.0303
  112OSM    H8G11651   3.100   7.238  10.007  0.0879 -0.7261  0.9687
  112OSM    C9F11652   2.932   7.250   9.887 -0.0502  0.6743 -0.1581
  112OSM    H9F11653   2.877   7.310   9.961 -0.2818  0.3236 -0.0478
  112OSM   C10F11654   2.895   7.251   9.757 -0.0238  0.0748  0.4193
  112OSM   H10F11655   2.802   7.300   9.725  0.1558  0.4002  0.3914
  112OSM   C11F11656   2.970   7.173   9.650  0.0500  0.7502  0.2730
  112OSM   H11F11657   3.011   7.077   9.689 -1.0456 -0.5010 -1.5391
  112OSM   H11G11658   3.052   7.238   9.612 -0.6492  0.8463 -1.1017
  112OSM   C12F11659   2.879   7.133   9.527 -0.0098 -0.1976 -0.1383
  112OSM   H12F11660   2.789   7.085   9.569 -2.3218  1.6012 -2.6661
  112OSM   H12G11661   2.918   7.052   9.462 -0.6990  1.4803 -2.8113
  112OSM   C13F11662   2.848   7.247   9.429  0.7192 -0.1647  0.3881
  112OSM   H13F11663   2.941   7.271   9.373  0.0667  1.2460 -0.1524
  112OSM   H13G11664   2.831   7.342   9.485  0.1668 -0.8090  1.3430
  112OSM   C14F11665   2.724   7.229   9.339 -0.8243  0.4464  0.1850
  112OSM   H14F11666   2.644   7.189   9.405 -2.1672  0.7081 -1.2307
  112OSM   H14G11667   2.752   7.154   9.262 -0.5292  1.3576 -0.6171
  112OSM   C15F11668   2.664   7.354   9.280 -0.1710  0.4622  0.3458
  112OSM   H15F11669   2.626   7.420   9.361 -0.6195  0.1180  0.4197
  112OSM   H15G11670   2.581   7.317   9.216 -1.1762  2.8703  0.1127
  112OSM   C16F11671   2.764   7.433   9.184 -1.0464 -0.4436 -0.1160
  112OSM   H16F11672   2.850   7.461   9.247 -1.7729 -0.0757  0.7337
  112OSM   H16G11673   2.706   7.519   9.145  0.3576 -0.1610 -1.6935
  112OSM   C17F11674   2.809   7.355   9.065  0.4890 -0.7349 -0.3249
  112OSM   H17F11675   2.816   7.245   9.082 -0.8549 -1.1245 -2.0934
  112OSM   H17G11676   2.906   7.399   9.033  0.0239  1.9566  1.6564
  112OSM   C18F11677   2.710   7.380   8.951  0.3709 -0.9356  0.2102
  112OSM   H18F11678   2.688   7.486   8.928  2.5859 -0.4064  0.3076
  112OSM   H18G11679   2.624   7.312   8.967  1.2301 -1.6823  2.0640
  112OSM   H18H11680   2.759   7.348   8.857 -1.0469 -1.7026 -0.2910
  113OSM      N11681   4.825   5.265  11.169 -0.1567 -0.1524  0.4766
  113OSM    C1511682   4.851   5.166  11.279  0.3219  0.1208 -0.0876
  113OSM   H15A11683   4.920   5.203  11.353 -0.7825  0.9645  0.5611
  113OSM   H15B11684   4.894   5.082  11.228  1.8973  1.0263 -0.3106
  113OSM   H15C11685   4.763   5.142  11.337  0.1117 -0.5820 -0.6890
  113OSM    C1411686   4.807   5.402  11.237  0.1246  0.1821  0.2922
  113OSM   H14A11687   4.888   5.413  11.307 -0.0646 -1.3501  0.7821
  113OSM   H14B11688   4.711   5.405  11.287  0.2695 -1.6894  0.7576
  113OSM   H14C11689   4.807   5.479  11.160 -0.6010 -1.2520 -1.2077
  113OSM    C1311690   4.948   5.279  11.094  0.0087  0.6461 -0.5590
  113OSM   H13A11691   5.021   5.308  11.168 -1.1739 -2.3180  1.9754
  113OSM   H13B11692   4.951   5.355  11.017  0.3413  1.8332  0.5887
  113OSM   H13C11693   4.986   5.190  11.046 -1.2124  0.2858 -0.9003
  113OSM    C1211694   4.708   5.223  11.078 -0.5742  1.3640 -0.3878
  113OSM   H12A11695   4.660   5.311  11.038  0.8777  2.3499 -0.0137
  113OSM   H12B11696   4.634   5.168  11.135  1.4532 -0.5578  0.5568
  113OSM    C1111697   4.754   5.124  10.966  0.6188  0.1755 -0.2931
  113OSM   H11A11698   4.837   5.168  10.908  1.7354  1.4114  2.1096
  113OSM   H11B11699   4.674   5.121  10.889  0.1256 -2.2071  0.2293
  113OSM      P11700   4.677   4.885  11.040  0.1625 -0.2588 -0.2117
  113OSM    O1311701   4.711   4.790  11.149 -0.0232  0.1478 -0.3518
  113OSM    O1411702   4.547   4.956  11.055  0.3346  0.0532  0.0234
  113OSM    O1111703   4.678   4.805  10.903  0.2023  0.3946 -0.3219
  113OSM    O1211704   4.789   4.990  11.012  0.2355 -0.1518 -0.5330
  113OSM    C1S11705   4.736   4.678  10.897  0.6127 -0.3901 -0.1197
  113OSM    H1S11706   4.666   4.597  10.928  0.8841 -1.3285 -1.7828
  113OSM    H1T11707   4.828   4.670  10.959  0.5975 -0.4729 -0.1073
  113OSM     NF11708   4.775   4.506  10.738 -0.4416 -0.8803  0.2385
  113OSM    HNF11709   4.860   4.474  10.779 -1.1107 -0.0153  2.4289
  113OSM    C2S11710   4.771   4.652  10.746  0.6703  0.4905  0.1410
  113OSM    H2S11711   4.685   4.690  10.687  0.3432  1.5625  1.2755
  113OSM    C3S11712   4.899   4.721  10.700 -0.0673  0.9663 -0.7260
  113OSM    H3S11713   4.992   4.672  10.736  1.7550  2.1206 -3.5041
  113OSM     O311714   4.913   4.852  10.757  0.4357 -0.1316 -0.1067
  113OSM    HO311715   4.854   4.849  10.833  0.9752 -0.4360  0.3142
  113OSM    C4S11716   4.903   4.727  10.554  0.4106 -0.0792 -0.4416
  113OSM    H4S11717   4.932   4.632  10.507 -0.9126 -0.3439 -0.7617
  113OSM    C5S11718   4.870   4.829  10.472  0.7836 -0.5446  0.1954
  113OSM    H5S11719   4.852   4.928  10.517 -1.1709 -0.1370 -1.3311
  113OSM    C6S11720   4.870   4.841  10.319  0.0249  0.2211  0.2352
  113OSM    H6S11721   4.937   4.921  10.282  1.5466 -1.8168 -1.6827
  113OSM    H6T11722   4.772   4.860  10.270  1.1186  0.5261 -1.9700
  113OSM    C7S11723   4.910   4.717  10.238  0.1244 -0.6720 -0.2675
  113OSM    H7S11724   4.843   4.632  10.264  1.6424 -1.3844  1.5563
  113OSM    H7T11725   5.012   4.685  10.270  0.4330 -1.9804 -2.3481
  113OSM    C8S11726   4.914   4.736  10.087  0.2660 -0.0557  0.4106
  113OSM    H8S11727   4.811   4.766  10.059  0.1618 -0.7230  0.0564
  113OSM    H8T11728   4.920   4.648  10.019 -0.7811  1.7304 -2.1389
  113OSM    C9S11729   5.018   4.837  10.030 -0.2604 -0.3031 -0.0923
  113OSM    H9S11730   5.119   4.803  10.063  0.7372  1.6789 -0.9395
  113OSM    H9T11731   5.000   4.936  10.077 -2.0907 -1.7036  2.4103
  113OSM   C10S11732   5.022   4.837   9.879  0.2669 -0.0732  0.6303
  113OSM   H10S11733   4.926   4.868   9.832  1.4523  0.6651 -1.4369
  113OSM   H10T11734   5.037   4.733   9.844 -0.0452 -0.1145  0.6172
  113OSM   C11S11735   5.126   4.929   9.821 -0.0741  1.1994  0.7318
  113OSM   H11S11736   5.215   4.906   9.884  0.1856  2.3168  0.7993
  113OSM   H11T11737   5.112   5.038   9.837 -1.2119  1.2858 -0.6460
  113OSM   C12S11738   5.145   4.909   9.667  0.4051 -0.0990 -0.9337
  113OSM   H12S11739   5.053   4.955   9.625  0.5110  0.5006 -0.5245
  113OSM   H12T11740   5.143   4.805   9.628 -0.7421 -0.0105 -1.1243
  113OSM   C13S11741   5.273   4.980   9.621  0.0693 -0.2188 -0.8658
  113OSM   H13S11742   5.366   4.927   9.649  0.9963  2.2323  1.1063
  113OSM   H13T11743   5.279   5.075   9.680 -1.4896 -0.5698 -0.0677
  113OSM   C14S11744   5.286   5.012   9.469  0.5088  0.2911  0.5282
  113OSM   H14S11745   5.194   5.065   9.435  0.5204 -0.9898 -1.6313
  113OSM   H14T11746   5.293   4.917   9.413  2.3145  0.4089  0.5041
  113OSM   C15S11747   5.404   5.098   9.427  0.0386  0.9744  0.6408
  113OSM   H15S11748   5.407   5.077   9.318  1.1525  0.9657  0.6600
  113OSM   H15T11749   5.495   5.045   9.464  0.6382  0.3939 -1.4984
  113OSM   C16S11750   5.399   5.242   9.471 -0.1543 -0.3791 -0.1170
  113OSM   H16S11751   5.429   5.240   9.578 -1.2507 -1.5692  0.1905
  113OSM   H16T11752   5.300   5.292   9.463  0.2611  0.1980 -4.4023
  113OSM   C17S11753   5.493   5.337   9.394 -1.2307 -0.2177 -0.3727
  113OSM   H17S11754   5.479   5.438   9.439  1.7118  0.4613 -0.8018
  113OSM   H17T11755   5.461   5.342   9.288 -2.4592  1.7761  0.0191
  113OSM   C18S11756   5.641   5.303   9.374 -0.3161 -0.2735 -0.3011
  113OSM   H18S11757   5.693   5.276   9.468 -1.5329 -2.9737 -0.2924
  113OSM   H18T11758   5.692   5.390   9.328 -1.1513  0.1854 -0.3891
  113OSM   H18U11759   5.656   5.218   9.304  0.1052  0.8771 -1.6565
  113OSM    C1F11760   4.662   4.434  10.729 -0.1333  0.2842 -0.1531
  113OSM     OF11761   4.551   4.479  10.723  0.5885 -0.4080  0.0561
  113OSM    C2F11762   4.683   4.288  10.722  0.4839 -0.1908 -0.1934
  113OSM    H2F11763   4.642   4.249  10.817 -0.5122 -1.5231 -1.1208
  113OSM    H2G11764   4.791   4.263  10.711  0.2101 -2.1843  1.0245
  113OSM    C3F11765   4.606   4.209  10.608 -0.2795  0.2851 -0.0459
  113OSM    H3F11766   4.616   4.272  10.517 -2.8921 -0.4718 -0.9463
  113OSM    H3G11767   4.497   4.210  10.630 -0.6535  0.3252 -1.7902
  113OSM    C4F11768   4.652   4.066  10.584 -0.2453 -0.0407  0.4582
  113OSM    H4F11769   4.626   3.996  10.667 -0.0591 -2.0382 -1.0875
  113OSM    H4G11770   4.763   4.071  10.583 -0.0783 -1.3583 -3.3216
  113OSM    C5F11771   4.607   4.008  10.444  0.2737  0.3717  0.4057
  113OSM    H5F11772   4.496   4.011  10.450  0.0823  0.1009 -2.0278
  113OSM    H5G11773   4.639   3.903  10.463  1.6153  0.9532  1.5832
  113OSM    C6F11774   4.665   4.058  10.313  0.7679  0.7912  0.1306
  113OSM    H6F11775   4.775   4.044  10.306  0.6740  0.8353 -1.9824
  113OSM    H6G11776   4.647   4.168  10.313  0.7944  0.8341 -2.0338
  113OSM    C7F11777   4.603   3.995  10.184  0.7333 -0.1646 -0.0021
  113OSM    H7F11778   4.494   4.014  10.180  0.3059 -2.4169 -0.2914
  113OSM    H7G11779   4.607   3.885  10.195  1.3913 -0.2068 -0.5894
  113OSM    C8F11780   4.665   4.045  10.059  0.3828  0.2256  0.5910
  113OSM    H8F11781   4.623   3.978   9.981  0.3788 -0.8351  1.4817
  113OSM    H8G11782   4.773   4.033  10.085  0.7376 -0.2263 -0.9747
  113OSM    C9F11783   4.626   4.189  10.038  1.0003  0.2270 -0.1129
  113OSM    H9F11784   4.621   4.239  10.136  1.9525  0.4338 -0.1595
  113OSM   C10F11785   4.594   4.249   9.924 -0.6359  0.2377  0.0736
  113OSM   H10F11786   4.558   4.352   9.931 -0.1826  0.3548  0.8667
  113OSM   C11F11787   4.594   4.181   9.786  0.0551 -0.4984 -0.0827
  113OSM   H11F11788   4.491   4.156   9.753  1.1518 -2.2983 -2.4170
  113OSM   H11G11789   4.643   4.082   9.795  2.8424  0.7849  0.1388
  113OSM   C12F11790   4.648   4.263   9.675  0.4637 -0.4966  0.5587
  113OSM   H12F11791   4.750   4.301   9.697  0.4758  0.9425 -1.6119
  113OSM   H12G11792   4.588   4.356   9.676 -0.9039 -1.3127 -1.0641
  113OSM   C13F11793   4.648   4.185   9.541 -0.1370 -0.7288  0.1966
  113OSM   H13F11794   4.547   4.150   9.511  0.0451 -1.7688  0.7393
  113OSM   H13G11795   4.709   4.093   9.554  0.7558 -0.3323 -0.9503
  113OSM   C14F11796   4.705   4.260   9.418  0.1692 -0.4054  0.1685
  113OSM   H14F11797   4.802   4.302   9.452  1.3317 -2.1980 -0.7769
  113OSM   H14G11798   4.636   4.342   9.389  0.2100 -1.5144 -3.5571
  113OSM   C15F11799   4.724   4.170   9.304 -0.1986 -0.5207  0.3154
  113OSM   H15F11800   4.619   4.145   9.277 -0.9941  2.0866  0.7181
  113OSM   H15G11801   4.784   4.080   9.327  0.0026 -0.5889 -0.4485
  113OSM   C16F11802   4.773   4.247   9.180 -0.7700 -0.3997 -0.4127
  113OSM   H16F11803   4.883   4.248   9.200 -0.7834  1.3002 -0.3258
  113OSM   H16G11804   4.730   4.349   9.174  0.6058  0.1686 -1.1675
  113OSM   C17F11805   4.752   4.176   9.048 -0.1268  0.1822  0.1847
  113OSM   H17F11806   4.648   4.189   9.011  0.0692 -1.2833 -0.9695
  113OSM   H17G11807   4.783   4.071   9.069  0.3797  0.0610 -1.0863
  113OSM   C18F11808   4.837   4.229   8.938  0.3167  0.2085 -0.1231
  113OSM   H18F11809   4.834   4.154   8.855  0.8468 -0.4141  0.4123
  113OSM   H18G11810   4.945   4.240   8.962  0.4388  0.5407 -0.7898
  113OSM   H18H11811   4.796   4.327   8.904 -1.6283 -0.8092 -0.8685
  114OSM      N11812   4.863   3.661  11.644  0.6240  0.0750  0.9310
  114OSM    C1511813   4.891   3.679  11.494  0.4952  0.0464 -0.4439
  114OSM   H15A11814   4.971   3.751  11.483 -0.5098  1.2289 -0.2078
  114OSM   H15B11815   4.806   3.712  11.437 -0.0692 -0.9901 -0.2343
  114OSM   H15C11816   4.926   3.581  11.462 -1.5368 -1.6053  2.0314
  114OSM    C1411817   4.987   3.602  11.693  0.3915  0.3009  0.2454
  114OSM   H14A11818   5.059   3.677  11.666 -0.6370  1.2524  0.0833
  114OSM   H14B11819   5.022   3.509  11.649 -2.5893 -0.6185 -0.3972
  114OSM   H14C11820   4.985   3.590  11.801 -0.2889  0.3248  0.2388
  114OSM    C1311821   4.847   3.798  11.704  0.0288 -0.2804  0.2665
  114OSM   H13A11822   4.758   3.848  11.670 -1.3343 -2.4660  0.4230
  114OSM   H13B11823   4.940   3.847  11.678 -0.7306  0.0084 -2.2353
  114OSM   H13C11824   4.840   3.798  11.812 -2.0315 -2.0106  0.2097
  114OSM    C1211825   4.744   3.570  11.671  0.1166  0.1576  0.0098
  114OSM   H12A11826   4.650   3.621  11.658  0.5552  2.1479  3.3118
  114OSM   H12B11827   4.742   3.543  11.776 -1.7615  0.0981 -0.0210
  114OSM    C1111828   4.734   3.432  11.596 -0.4563  0.9039 -0.0821
  114OSM   H11A11829   4.706   3.446  11.489  2.0929  0.7405 -0.8446
  114OSM   H11B11830   4.653   3.384  11.654 -0.2788  0.6272 -0.0596
  114OSM      P11831   4.873   3.216  11.539 -0.1988 -0.3689 -0.2106
  114OSM    O1311832   5.016   3.179  11.543 -0.3966 -0.6473  0.4821
  114OSM    O1411833   4.785   3.131  11.614  0.2087  0.6887  0.5294
  114OSM    O1111834   4.822   3.213  11.383  0.2046  0.1281 -0.3486
  114OSM    O1211835   4.857   3.363  11.593  0.1168  0.2191 -0.4335
  114OSM    C1S11836   4.881   3.296  11.283 -0.2079 -0.3005 -0.0646
  114OSM    H1S11837   4.990   3.273  11.272 -0.1385 -0.7268  1.2938
  114OSM    H1T11838   4.881   3.402  11.316 -1.3047  0.3664 -2.0478
  114OSM     NF11839   4.913   3.309  11.033  0.3342  0.3848 -0.4961
  114OSM    HNF11840   4.929   3.399  10.994 -2.9868  1.8835  1.1843
  114OSM    C2S11841   4.807   3.294  11.142 -0.1175 -0.3463 -0.0161
  114OSM    H2S11842   4.755   3.197  11.136  0.2287 -0.7179  2.0341
  114OSM    C3S11843   4.711   3.412  11.140  0.1952 -0.4411 -0.6312
  114OSM    H3S11844   4.779   3.498  11.154  1.4306 -1.4006 -0.5442
  114OSM     O311845   4.626   3.410  11.254  0.7234 -0.2524 -0.3913
  114OSM    HO311846   4.650   3.330  11.301  0.5081 -0.2975 -0.3536
  114OSM    C4S11847   4.646   3.431  11.012 -0.6162  0.5654 -0.8512
  114OSM    H4S11848   4.707   3.486  10.939 -0.4934  2.3232  0.4971
  114OSM    C5S11849   4.532   3.372  10.968 -0.1566  0.7219  0.3077
  114OSM    H5S11850   4.479   3.299  11.031 -1.6363  1.3324 -0.1875
  114OSM    C6S11851   4.472   3.390  10.830  0.0391  0.0476 -0.3856
  114OSM    H6S11852   4.372   3.435  10.847  0.4971  1.1114 -0.4380
  114OSM    H6T11853   4.466   3.297  10.769  0.5615  0.9343 -1.8269
  114OSM    C7S11854   4.552   3.484  10.738 -0.5186 -0.1374 -0.1408
  114OSM    H7S11855   4.645   3.448  10.689 -0.6729 -0.0505 -0.5023
  114OSM    H7T11856   4.572   3.580  10.791  1.1503  0.1733 -1.2444
  114OSM    C8S11857   4.470   3.520  10.609  0.1752  0.8074  0.0634
  114OSM    H8S11858   4.359   3.520  10.615 -0.3690  0.8603 -5.1785
  114OSM    H8T11859   4.492   3.439  10.537 -0.6368  0.9185 -0.3196
  114OSM    C9S11860   4.525   3.641  10.537  0.0089 -0.0175  0.2795
  114OSM    H9S11861   4.635   3.636  10.521  0.3621  0.8146  2.2066
  114OSM    H9T11862   4.499   3.728  10.600 -2.4990 -0.8255  0.4576
  114OSM   C10S11863   4.463   3.662  10.398 -0.4382 -0.0188  0.8353
  114OSM   H10S11864   4.487   3.582  10.325  2.8526  2.2324 -0.8025
  114OSM   H10T11865   4.503   3.757  10.358 -1.1542 -0.9110 -2.2162
  114OSM   C11S11866   4.315   3.685  10.395  0.5574 -0.1316 -0.3158
  114OSM   H11S11867   4.282   3.745  10.482  0.3064 -1.2455  0.3737
  114OSM   H11T11868   4.266   3.588  10.417 -0.9246  1.1534  2.5186
  114OSM   C12S11869   4.263   3.765  10.275  0.1319 -0.9561 -0.2344
  114OSM   H12S11870   4.311   3.866  10.275  0.1067 -0.8721  2.1383
  114OSM   H12T11871   4.154   3.780  10.289  0.4818  2.5043 -0.2539
  114OSM   C13S11872   4.283   3.711  10.129  0.6077 -0.2339  0.1172
  114OSM   H13S11873   4.391   3.686  10.115  0.5750 -1.2586  1.4568
  114OSM   H13T11874   4.251   3.787  10.055  2.1038 -0.2117 -0.5486
  114OSM   C14S11875   4.192   3.586  10.110 -0.0020 -0.3362  0.0242
  114OSM   H14S11876   4.084   3.601  10.132 -0.4537  1.8093 -2.9071
  114OSM   H14T11877   4.236   3.513  10.181 -0.1101 -1.3069 -0.8855
  114OSM   C15S11878   4.219   3.518   9.972  0.5183  0.5890  0.1603
  114OSM   H15S11879   4.174   3.417   9.975  0.9051  0.2651 -2.7090
  114OSM   H15T11880   4.328   3.528   9.954  0.6912 -0.4645  0.5775
  114OSM   C16S11881   4.146   3.580   9.854  0.0793 -0.0942 -0.2177
  114OSM   H16S11882   4.174   3.687   9.856  0.0394 -0.0899  0.2088
  114OSM   H16T11883   4.038   3.553   9.854  0.3214 -1.1431 -1.0452
  114OSM   C17S11884   4.211   3.526   9.723 -0.5392  0.5540 -0.2159
  114OSM   H17S11885   4.202   3.415   9.725  0.2742  0.4234  3.6976
  114OSM   H17T11886   4.321   3.539   9.733 -0.3463 -0.4653 -0.8719
  114OSM   C18S11887   4.168   3.608   9.603  0.0336 -0.3536  0.2918
  114OSM   H18S11888   4.060   3.603   9.577  0.0902  0.0717 -0.0215
  114OSM   H18T11889   4.212   3.563   9.512 -0.8674 -2.1739  0.6907
  114OSM   H18U11890   4.200   3.712   9.626 -0.1612 -0.4173  0.8621
  114OSM    C1F11891   4.992   3.204  11.011  1.0550  0.6985  0.3862
  114OSM     OF11892   4.971   3.097  11.066 -0.3432  0.3470 -0.2946
  114OSM    C2F11893   5.085   3.210  10.891  0.0823 -0.2173 -0.2478
  114OSM    H2F11894   5.147   3.301  10.907  0.1793 -0.6696  2.6033
  114OSM    H2G11895   5.028   3.229  10.798 -1.7958  3.4738  1.4672
  114OSM    C3F11896   5.162   3.074  10.867 -0.0079 -0.9776  0.0957
  114OSM    H3F11897   5.087   2.995  10.844  1.4824 -2.5104  0.3160
  114OSM    H3G11898   5.217   3.047  10.959 -1.4189 -0.5643  1.0829
  114OSM    C4F11899   5.265   3.089  10.745  0.2355  0.4289  0.0141
  114OSM    H4F11900   5.320   3.183  10.762 -0.9829  1.0858  0.4003
  114OSM    H4G11901   5.214   3.092  10.646 -2.4778  0.8192  1.3362
  114OSM    C5F11902   5.361   2.969  10.737  0.0969  0.0238 -0.7811
  114OSM    H5F11903   5.299   2.888  10.695 -0.3971 -0.5326  0.9282
  114OSM    H5G11904   5.401   2.946  10.838  0.7699  3.3540 -0.1503
  114OSM    C6F11905   5.477   2.984  10.649  0.7166  0.2574 -0.1264
  114OSM    H6F11906   5.542   3.064  10.692  1.3834 -0.6455  0.6096
  114OSM    H6G11907   5.433   3.022  10.555  1.0873 -0.5058 -0.6184
  114OSM    C7F11908   5.545   2.856  10.613  0.3569  0.3933  0.0298
  114OSM    H7F11909   5.479   2.777  10.572  3.2771 -1.9031 -0.5609
  114OSM    H7G11910   5.598   2.811  10.700  0.7022  0.4448 -0.1545
  114OSM    C8F11911   5.656   2.873  10.513 -0.6364 -0.0269  0.6894
  114OSM    H8F11912   5.608   2.906  10.419 -0.4359 -0.4979  0.4225
  114OSM    H8G11913   5.709   2.780  10.485 -0.7673  0.5719 -1.7005
  114OSM    C9F11914   5.750   2.985  10.559  0.4370 -0.2830 -0.3515
  114OSM    H9F11915   5.762   2.993  10.668  1.6700  0.1912 -0.5033
  114OSM   C10F11916   5.806   3.077  10.478 -0.3542  0.1621  0.6174
  114OSM   H10F11917   5.881   3.150  10.513  0.9526  0.3907 -2.3322
  114OSM   C11F11918   5.796   3.092  10.327 -0.3339  0.0033  0.1745
  114OSM   H11F11919   5.745   3.187  10.304 -1.0896 -1.1454 -3.5305
  114OSM   H11G11920   5.726   3.011  10.298 -3.0389  1.9869  0.8198
  114OSM   C12F11921   5.933   3.090  10.257  0.2674 -0.7753  0.6589
  114OSM   H12F11922   5.977   2.988  10.258  0.5833 -0.6338  1.0560
  114OSM   H12G11923   6.004   3.169  10.287 -1.2215  0.9753 -0.2347
  114OSM   C13F11924   5.912   3.114  10.104  0.2748  0.1999  0.8482
  114OSM   H13F11925   5.830   3.188  10.090  0.5834  0.1889 -1.4283
  114OSM   H13G11926   5.884   3.020  10.052  1.0407 -0.2832  1.2906
  114OSM   C14F11927   6.027   3.191  10.040  0.4010 -0.5615 -0.2044
  114OSM   H14F11928   6.119   3.130  10.048  1.0071  0.3859  0.2455
  114OSM   H14G11929   6.051   3.278  10.105 -1.8540 -0.3901  0.4823
  114OSM   C15F11930   6.005   3.230   9.898  0.3329 -0.3406  0.2201
  114OSM   H15F11931   5.919   3.299   9.888  0.4096 -0.5585 -2.9637
  114OSM   H15G11932   5.978   3.137   9.844  0.8484 -0.5285  0.2785
  114OSM   C16F11933   6.127   3.309   9.842  0.5862  0.7200 -0.2287
  114OSM   H16F11934   6.208   3.236   9.822  0.3764  0.2180  0.6888
  114OSM   H16G11935   6.172   3.384   9.911 -1.6269  0.0844  2.0634
  114OSM   C17F11936   6.100   3.372   9.704  0.6494 -0.0270  0.1328
  114OSM   H17F11937   6.010   3.436   9.713  0.1340 -0.8034  0.6535
  114OSM   H17G11938   6.082   3.291   9.631  1.7525  0.0167 -0.2092
  114OSM   C18F11939   6.218   3.447   9.661  0.0979  0.0204  0.1324
  114OSM   H18F11940   6.212   3.551   9.699  1.9461 -0.0980  0.8329
  114OSM   H18G11941   6.226   3.467   9.552  1.4157 -0.5411  0.1067
  114OSM   H18H11942   6.313   3.394   9.682  1.3120  2.7445  1.9553
  115OSM      N11943   2.433   6.151   6.208 -0.4530  0.4548 -0.6074
  115OSM    C1511944   2.509   6.148   6.334 -0.2637 -0.3621  0.5204
  115OSM   H15A11945   2.451   6.217   6.393 -1.6904  0.1094 -1.3392
  115OSM   H15B11946   2.611   6.185   6.327 -0.6513  0.8035  0.9300
  115OSM   H15C11947   2.510   6.050   6.381  1.4714  0.0523  1.4458
  115OSM    C1411948   2.468   6.270   6.128  0.0267 -0.0153 -0.2008
  115OSM   H14A11949   2.422   6.272   6.030 -0.7887 -1.2692  0.1323
  115OSM   H14B11950   2.574   6.276   6.108  0.0947  1.8776  0.6013
  115OSM   H14C11951   2.433   6.352   6.189  2.9181  0.8047  0.4698
  115OSM    C1311952   2.467   6.033   6.124 -0.3859 -0.3131  0.4333
  115OSM   H13A11953   2.410   6.040   6.033  2.1749 -0.9406 -1.3280
  115OSM   H13B11954   2.432   5.946   6.179 -0.3793 -0.0394  0.8727
  115OSM   H13C11955   2.571   6.033   6.097 -0.7909  0.7942 -1.2128
  115OSM    C1211956   2.283   6.150   6.234 -0.3475  0.0265  0.1074
  115OSM   H12A11957   2.257   6.049   6.264 -2.9273 -0.0095 -1.8881
  115OSM   H12B11958   2.233   6.147   6.138 -1.3188 -3.5719  0.5815
  115OSM    C1111959   2.220   6.260   6.326 -0.2158  0.1188  0.3548
  115OSM   H11A11960   2.264   6.243   6.427  0.1230 -0.0975  0.1731
  115OSM   H11B11961   2.113   6.247   6.349 -0.4881 -2.2005 -1.7719
  115OSM      P11962   2.141   6.480   6.202 -0.1060  0.1710  0.0579
  115OSM    O1311963   2.188   6.622   6.175 -0.4169  0.0696  0.6061
  115OSM    O1411964   2.122   6.401   6.080  0.1905  0.3281 -0.2245
  115OSM    O1111965   2.005   6.484   6.282  0.0507  0.0015 -0.2421
  115OSM    O1211966   2.242   6.400   6.294  0.0284  0.3316  0.1339
  115OSM    C1S11967   2.015   6.539   6.413  0.1997  0.0691 -0.3698
  115OSM    H1S11968   2.058   6.642   6.406  2.2789 -0.7796 -0.9447
  115OSM    H1T11969   2.082   6.476   6.475  1.2375 -0.1331 -1.6565
  115OSM     NF11970   1.925   6.565   6.630  0.1871 -0.4276  0.0272
  115OSM    HNF11971   1.921   6.488   6.693  1.1640 -1.6105 -1.2961
  115OSM    C2S11972   1.887   6.541   6.494  0.0675 -0.2671  0.1627
  115OSM    H2S11973   1.825   6.624   6.456 -2.7117 -1.7531  1.1224
  115OSM    C3S11974   1.802   6.414   6.485  0.4109 -0.9932  0.2239
  115OSM    H3S11975   1.858   6.328   6.527 -0.3053 -0.9353  1.3462
  115OSM     O311976   1.764   6.381   6.358  0.2304 -0.0913  1.0187
  115OSM    HO311977   1.815   6.438   6.300 -1.0931 -0.8959 -1.0829
  115OSM    C4S11978   1.672   6.431   6.570  0.0945 -0.0149 -0.2448
  115OSM    H4S11979   1.615   6.517   6.531  0.6514  1.6437  2.3571
  115OSM    C5S11980   1.636   6.363   6.683  0.3969  0.4357 -0.4064
  115OSM    H5S11981   1.709   6.287   6.715 -1.6104 -1.8854 -1.0747
  115OSM    C6S11982   1.501   6.389   6.754  0.0031 -0.1888 -0.5520
  115OSM    H6S11983   1.433   6.304   6.733 -0.2077  0.0079 -0.6647
  115OSM    H6T11984   1.468   6.489   6.718 -0.0514  0.0770  0.2228
  115OSM    C7S11985   1.531   6.403   6.901 -0.4163 -0.2566  0.2419
  115OSM    H7S11986   1.437   6.442   6.944  0.1275 -0.7304  1.9413
  115OSM    H7T11987   1.615   6.471   6.929  0.8361 -1.0805 -1.3014
  115OSM    C8S11988   1.564   6.275   6.992 -0.1794  0.3274  1.0207
  115OSM    H8S11989   1.675   6.268   6.985 -0.0439  1.6818  1.5829
  115OSM    H8T11990   1.522   6.179   6.955 -0.1192  0.1089  1.5000
  115OSM    C9S11991   1.539   6.297   7.139  0.2829 -0.1357  0.9104
  115OSM    H9S11992   1.541   6.194   7.183 -1.1694  0.5443  2.7247
  115OSM    H9T11993   1.439   6.336   7.167  0.7885  1.3055  0.7695
  115OSM   C10S11994   1.653   6.381   7.206  0.0131  0.0668  0.4301
  115OSM   H10S11995   1.627   6.486   7.183 -0.8322 -0.3347 -0.5144
  115OSM   H10T11996   1.753   6.349   7.170 -0.3743 -0.4302 -0.2397
  115OSM   C11S11997   1.647   6.373   7.361  0.3086  0.3647  0.1379
  115OSM   H11S11998   1.707   6.285   7.392  3.0052  2.0178 -0.1109
  115OSM   H11T11999   1.540   6.381   7.392  0.0723  2.5289 -1.0276
  115OSM   C12S12000   1.720   6.498   7.421 -0.1542  0.3107 -0.5487
  115OSM   H12S12001   1.638   6.572   7.428  0.6262  1.1904 -0.5214
  115OSM   H12T12002   1.805   6.528   7.356  2.8416  0.4667  3.0923
  115OSM   C13S12003   1.780   6.457   7.561 -0.5416 -0.1411  0.5476
  115OSM   H13S12004   1.854   6.534   7.592 -2.3572  1.0563  2.1452
  115OSM   H13T12005   1.840   6.364   7.556 -1.5046 -0.8452  1.6443
  115OSM   C14S12006   1.691   6.439   7.673 -0.4314 -0.3587 -0.8339
  115OSM   H14S12007   1.621   6.355   7.652 -0.0807 -0.6981 -0.6506
  115OSM   H14T12008   1.630   6.532   7.679  1.8505  1.3014 -1.9161
  115OSM   C15S12009   1.760   6.415   7.811 -0.0775 -0.3303 -0.0549
  115OSM   H15S12010   1.821   6.504   7.838 -1.2171 -0.0735  1.8701
  115OSM   H15T12011   1.827   6.330   7.787  1.3985  1.1800 -1.5801
  115OSM   C16S12012   1.654   6.387   7.914 -0.2054  0.5370  0.5465
  115OSM   H16S12013   1.598   6.291   7.901 -0.1091  0.4154  0.9858
  115OSM   H16T12014   1.575   6.462   7.894 -0.6871 -0.3329 -0.9189
  115OSM   C17S12015   1.721   6.393   8.061  0.0561 -0.6176  0.3173
  115OSM   H17S12016   1.781   6.486   8.062  0.8239 -1.0796 -0.6994
  115OSM   H17T12017   1.801   6.317   8.057  0.0879 -0.5549 -0.4410
  115OSM   C18S12018   1.616   6.381   8.173 -0.0320 -0.1564 -0.0062
  115OSM   H18S12019   1.662   6.390   8.273  1.7559 -0.7728 -0.7245
  115OSM   H18T12020   1.579   6.276   8.173 -2.3034  0.5629 -1.6613
  115OSM   H18U12021   1.531   6.452   8.161 -0.2731 -0.5414 -0.6476
  115OSM    C1F12022   1.978   6.681   6.678 -0.5068 -0.0892 -0.0781
  115OSM     OF12023   1.985   6.783   6.608 -0.1396  0.4385  0.3399
  115OSM    C2F12024   2.041   6.679   6.814  0.7912 -0.1433 -0.5292
  115OSM    H2F12025   2.101   6.586   6.817  2.5648  0.9382 -1.2607
  115OSM    H2G12026   1.962   6.682   6.892  1.2485  0.1981 -0.0720
  115OSM    C3F12027   2.136   6.795   6.847 -0.3235 -0.5974  0.2859
  115OSM    H3F12028   2.076   6.886   6.866  0.5427 -0.4346  2.6008
  115OSM    H3G12029   2.208   6.818   6.765 -1.0218  0.4464 -0.0573
  115OSM    C4F12030   2.220   6.785   6.981  0.4159 -0.4318 -0.0680
  115OSM    H4F12031   2.289   6.701   6.963 -1.5615 -2.1731  0.1146
  115OSM    H4G12032   2.149   6.749   7.058 -0.4052 -0.0599 -0.6333
  115OSM    C5F12033   2.297   6.914   7.023 -0.4884  0.4524  0.1796
  115OSM    H5F12034   2.228   6.999   7.006 -0.0627  0.6652 -0.5465
  115OSM    H5G12035   2.386   6.935   6.959 -1.0953  1.7453 -0.2883
  115OSM    C6F12036   2.335   6.909   7.169  0.3800  0.6500  0.2771
  115OSM    H6F12037   2.253   6.871   7.234  0.5975  1.5406  1.1078
  115OSM    H6G12038   2.359   7.013   7.200  0.4045  0.4124  1.0959
  115OSM    C7F12039   2.460   6.825   7.192  0.5443  0.0223  0.6759
  115OSM    H7F12040   2.532   6.842   7.108 -0.8789 -1.2634 -0.8703
  115OSM    H7G12041   2.423   6.722   7.176 -0.4448  0.3984  0.4901
  115OSM    C8F12042   2.536   6.835   7.326  0.4113  0.4823 -0.8972
  115OSM    H8F12043   2.574   6.939   7.324 -0.5173  0.8608  0.3163
  115OSM    H8G12044   2.635   6.783   7.317  1.4446  1.9496  1.2378
  115OSM    C9F12045   2.454   6.797   7.449  0.5815  0.5480  0.2245
  115OSM    H9F12046   2.426   6.691   7.441 -0.8812  0.7754  1.7640
  115OSM   C10F12047   2.422   6.879   7.554  0.3696  0.0502  0.3419
  115OSM   H10F12048   2.367   6.836   7.639  0.3654  0.2599  0.4472
  115OSM   C11F12049   2.461   7.020   7.569  0.1961 -0.5362  0.4955
  115OSM   H11F12050   2.365   7.067   7.600  0.0222 -0.7149  0.2271
  115OSM   H11G12051   2.494   7.066   7.474  1.0239 -1.1997  0.4564
  115OSM   C12F12052   2.572   7.050   7.674 -0.0116 -0.1032  0.3450
  115OSM   H12F12053   2.621   7.146   7.645  1.8605 -1.3533 -0.8443
  115OSM   H12G12054   2.655   6.976   7.684  1.2844  1.1723 -0.5423
  115OSM   C13F12055   2.521   7.072   7.823 -0.6281 -0.0178 -0.2473
  115OSM   H13F12056   2.491   6.973   7.863  0.4061 -0.5194 -0.6686
  115OSM   H13G12057   2.426   7.129   7.814  1.0266  2.7254 -2.4154
  115OSM   C14F12058   2.616   7.153   7.916 -0.8024 -0.9020 -0.3148
  115OSM   H14F12059   2.635   7.256   7.877  0.4020 -0.3134  1.6905
  115OSM   H14G12060   2.707   7.096   7.941  0.4326  1.0606 -0.1220
  115OSM   C15F12061   2.553   7.178   8.054 -0.8152  0.8884  0.2554
  115OSM   H15F12062   2.450   7.219   8.043 -1.7568 -1.2022  0.6368
  115OSM   H15G12063   2.613   7.249   8.115  1.0280  1.3644 -2.0173
  115OSM   C16F12064   2.534   7.035   8.118 -0.1604  0.3581 -0.1832
  115OSM   H16F12065   2.633   6.985   8.131 -0.7252 -0.1700  2.6653
  115OSM   H16G12066   2.460   6.967   8.070 -1.0671  2.3965 -1.8150
  115OSM   C17F12067   2.493   7.049   8.265  0.3020 -0.0971  0.1784
  115OSM   H17F12068   2.421   7.133   8.269  1.1271  0.5885  2.1495
  115OSM   H17G12069   2.575   7.093   8.327 -0.3724  2.6508 -0.7366
  115OSM   C18F12070   2.444   6.923   8.325  0.5125  0.5862  0.5027
  115OSM   H18F12071   2.353   6.889   8.270 -1.1422  0.1836  3.3220
  115OSM   H18G12072   2.412   6.923   8.431  2.4139  1.9347  1.1292
  115OSM   H18H12073   2.519   6.843   8.310  0.8184  0.6738  1.4857
  116OSM      N12074   1.608   4.931   6.225  0.1780  0.0097  0.0737
  116OSM    C1512075   1.492   4.944   6.130  0.6479  0.0573  0.8037
  116OSM   H15A12076   1.489   4.858   6.065  1.9352  1.5746 -1.3937
  116OSM   H15B12077   1.498   5.033   6.070 -0.0584 -0.8678 -0.6835
  116OSM   H15C12078   1.402   4.948   6.190  0.7196 -2.0761  1.1331
  116OSM    C1412079   1.595   4.826   6.328 -0.4529  0.4444 -0.4087
  116OSM   H14A12080   1.508   4.859   6.384 -0.4562  2.4982 -1.5578
  116OSM   H14B12081   1.680   4.826   6.395  0.5053  3.7658 -1.4366
  116OSM   H14C12082   1.579   4.723   6.298 -0.9076  0.1976  0.6404
  116OSM    C1312083   1.735   4.903   6.153  1.0256 -0.0970  0.9332
  116OSM   H13A12084   1.810   4.887   6.229  1.6826 -0.0408  0.2997
  116OSM   H13B12085   1.755   4.978   6.078 -2.1913 -0.4109 -0.4019
  116OSM   H13C12086   1.723   4.823   6.081 -0.6123  0.5761  0.4032
  116OSM    C1212087   1.625   5.068   6.285 -0.1654  0.2522  0.0906
  116OSM   H12A12088   1.634   5.138   6.202 -0.2545  0.4821  0.2727
  116OSM   H12B12089   1.718   5.051   6.337 -0.9220 -2.9371  0.6073
  116OSM    C1112090   1.520   5.118   6.384  0.3950 -0.2254 -0.4197
  116OSM   H11A12091   1.564   5.205   6.437  0.0190 -0.8489  0.9556
  116OSM   H11B12092   1.510   5.039   6.462 -0.0378  0.3130  0.0812
  116OSM      P12093   1.349   5.309   6.315 -0.2066  0.5038  0.3090
  116OSM    O1312094   1.421   5.388   6.213 -0.4634 -0.1160  0.1344
  116OSM    O1412095   1.202   5.293   6.303  0.4343 -0.4206  0.0991
  116OSM    O1112096   1.391   5.355   6.458  0.0211 -0.1794  0.3738
  116OSM    O1212097   1.399   5.160   6.317 -0.2929  0.5375 -0.0737
  116OSM    C1S12098   1.310   5.316   6.564 -0.2889  0.5667 -0.7890
  116OSM    H1S12099   1.346   5.217   6.598  1.2636  1.7124  1.0602
  116OSM    H1T12100   1.202   5.318   6.536 -0.2361  0.0801 -1.0302
  116OSM     NF12101   1.242   5.355   6.784 -0.0104 -0.5867 -0.3244
  116OSM    HNF12102   1.165   5.406   6.821 -0.5170 -0.6709 -1.2341
  116OSM    C2S12103   1.319   5.411   6.676 -0.2069 -0.0857 -0.1463
  116OSM    H2S12104   1.424   5.428   6.708 -0.2385  1.7696 -0.9146
  116OSM    C3S12105   1.269   5.551   6.639 -0.3052  0.6612 -0.7237
  116OSM    H3S12106   1.160   5.529   6.632  0.0881 -1.5371 -0.6871
  116OSM     O312107   1.306   5.602   6.519  0.3757 -0.5166  0.3480
  116OSM    HO312108   1.346   5.526   6.476  1.6397  0.6013 -0.5477
  116OSM    C4S12109   1.292   5.645   6.748  0.2211 -0.7368  0.1383
  116OSM    H4S12110   1.204   5.639   6.814  0.1821 -1.0877  0.0547
  116OSM    C5S12111   1.399   5.724   6.776  1.4252 -0.2980 -0.4675
  116OSM    H5S12112   1.477   5.726   6.699  0.2901  0.9681 -1.6541
  116OSM    C6S12113   1.394   5.821   6.894 -0.6295 -0.4516 -0.0319
  116OSM    H6S12114   1.290   5.847   6.921 -1.5012 -1.1573 -2.4227
  116OSM    H6T12115   1.442   5.918   6.870 -1.5442  0.7647  2.6722
  116OSM    C7S12116   1.464   5.765   7.021 -0.0353  1.3159 -0.1039
  116OSM    H7S12117   1.445   5.831   7.109 -0.5357  0.7593  0.2102
  116OSM    H7T12118   1.572   5.774   6.995  0.3944 -1.3587  0.4725
  116OSM    C8S12119   1.442   5.613   7.061  0.0077 -1.0075  0.3720
  116OSM    H8S12120   1.504   5.582   7.148 -0.3436  0.4296  1.1603
  116OSM    H8T12121   1.459   5.564   6.963  0.5799  1.6936 -0.9667
  116OSM    C9S12122   1.296   5.561   7.098  0.0709  0.4745 -0.4609
  116OSM    H9S12123   1.288   5.450   7.100  1.8908  0.2781 -1.6147
  116OSM    H9T12124   1.208   5.584   7.034 -1.6836  0.0716  1.6783
  116OSM   C10S12125   1.258   5.608   7.238  0.8321  0.3826  0.0819
  116OSM   H10S12126   1.160   5.561   7.260  1.5434 -0.7140  1.0667
  116OSM   H10T12127   1.245   5.719   7.239  2.7572  0.6390  0.5913
  116OSM   C11S12128   1.353   5.585   7.363 -0.0302  0.1716  0.1951
  116OSM   H11S12129   1.438   5.657   7.368 -1.3316  1.7922  0.0556
  116OSM   H11T12130   1.401   5.487   7.345 -1.1481 -0.4585  0.5301
  116OSM   C12S12131   1.275   5.565   7.489 -0.5103 -0.3387  0.6096
  116OSM   H12S12132   1.191   5.499   7.461  0.6407 -1.0806 -1.3327
  116OSM   H12T12133   1.238   5.665   7.520  0.3704  0.0844  0.3547
  116OSM   C13S12134   1.359   5.510   7.599  0.5188 -0.0815 -0.5650
  116OSM   H13S12135   1.419   5.594   7.640 -2.6521  0.9327  2.4375
  116OSM   H13T12136   1.421   5.427   7.557 -2.1201 -1.1429 -2.6984
  116OSM   C14S12137   1.289   5.468   7.723 -0.4292  0.0022  0.9013
  116OSM   H14S12138   1.372   5.419   7.778 -0.9875 -1.7801  0.2048
  116OSM   H14T12139   1.213   5.389   7.708 -1.4432  0.8215  1.5398
  116OSM   C15S12140   1.228   5.587   7.803  0.4916 -0.2441  0.2188
  116OSM   H15S12141   1.154   5.633   7.735  1.8490 -0.6096 -1.5955
  116OSM   H15T12142   1.297   5.671   7.825  0.8712 -0.0506 -1.5872
  116OSM   C16S12143   1.157   5.529   7.928  0.4403  0.1065  0.4151
  116OSM   H16S12144   1.220   5.462   7.990 -1.7921 -1.6826  0.8991
  116OSM   H16T12145   1.077   5.457   7.899 -0.1209 -0.0313  2.2033
  116OSM   C17S12146   1.081   5.641   8.010 -0.6083  0.2468 -0.2364
  116OSM   H17S12147   1.094   5.740   7.961 -1.6616  1.9533  2.7259
  116OSM   H17T12148   1.135   5.649   8.106 -1.0631  0.6635 -0.0097
  116OSM   C18S12149   0.934   5.621   8.038 -0.7345 -0.0390 -0.1405
  116OSM   H18S12150   0.880   5.608   7.942  0.4899  1.6989 -1.1197
  116OSM   H18T12151   0.897   5.705   8.100  0.4580  0.7653 -0.4807
  116OSM   H18U12152   0.916   5.521   8.083  1.6708 -1.5003 -2.1055
  116OSM    C1F12153   1.290   5.249   6.850  0.2447  0.3508  0.6392
  116OSM     OF12154   1.407   5.216   6.845 -0.0225  0.6195 -0.3030
  116OSM    C2F12155   1.182   5.170   6.929  0.0312 -0.1594  0.5002
  116OSM    H2F12156   1.118   5.112   6.859  0.4615 -0.5171  0.3993
  116OSM    H2G12157   1.119   5.245   6.982  1.7300 -0.2038  2.7330
  116OSM    C3F12158   1.247   5.082   7.039  0.5816 -0.1730  0.1436
  116OSM    H3F12159   1.322   5.011   6.997  1.4190 -1.0762  2.9705
  116OSM    H3G12160   1.174   5.009   7.079  0.7505 -1.8043 -2.2632
  116OSM    C4F12161   1.316   5.169   7.152  0.2440 -0.1422  0.0873
  116OSM    H4F12162   1.236   5.218   7.213  1.9989  1.2117  1.4336
  116OSM    H4G12163   1.383   5.244   7.105  0.0421  0.0111  0.0426
  116OSM    C5F12164   1.406   5.081   7.237  0.4725 -0.4577  0.4246
  116OSM    H5F12165   1.506   5.064   7.193  0.3255 -0.4729  0.0916
  116OSM    H5G12166   1.359   4.981   7.246  0.5603 -0.7178 -1.5406
  116OSM    C6F12167   1.424   5.147   7.375  0.7046 -0.4231 -1.0765
  116OSM    H6F12168   1.328   5.160   7.431  1.7632 -2.5785  1.4679
  116OSM    H6G12169   1.475   5.244   7.355  0.6769 -0.6442 -2.2591
  116OSM    C7F12170   1.521   5.066   7.469 -0.0508 -0.5003  0.4688
  116OSM    H7F12171   1.604   5.028   7.405 -0.9756 -0.4012 -0.8214
  116OSM    H7G12172   1.455   4.983   7.502 -2.1413  0.6515 -0.5975
  116OSM    C8F12173   1.570   5.141   7.594 -0.5046 -0.4910 -0.4046
  116OSM    H8F12174   1.490   5.128   7.670  1.3914 -2.4598  1.3655
  116OSM    H8G12175   1.583   5.250   7.574  0.4293 -0.9563 -2.5557
  116OSM    C9F12176   1.702   5.091   7.638  0.4219  0.8283  0.6523
  116OSM    H9F12177   1.781   5.066   7.567  0.5902 -0.5199  1.2750
  116OSM   C10F12178   1.730   5.071   7.767 -0.1587  0.6695  0.0584
  116OSM   H10F12179   1.836   5.046   7.779  0.1242  0.6559 -2.0959
  116OSM   C11F12180   1.650   5.089   7.895 -0.4580 -0.3042  0.2795
  116OSM   H11F12181   1.540   5.096   7.885 -0.4428 -1.9741 -1.6681
  116OSM   H11G12182   1.688   5.180   7.947 -1.4318  0.2048  0.1157
  116OSM   C12F12183   1.673   4.970   7.997  0.9287  0.1602 -0.4569
  116OSM   H12F12184   1.603   4.993   8.080 -0.1346 -0.2317 -1.2234
  116OSM   H12G12185   1.774   4.983   8.041  0.4194  1.4460  0.3858
  116OSM   C13F12186   1.642   4.836   7.937  0.9462  0.1651  0.1590
  116OSM   H13F12187   1.713   4.824   7.853 -0.8136 -0.7949 -1.2738
  116OSM   H13G12188   1.536   4.846   7.904  0.1231 -2.5062  1.7089
  116OSM   C14F12189   1.646   4.723   8.042 -0.1055 -0.2585  0.5947
  116OSM   H14F12190   1.752   4.712   8.072 -0.2150 -1.6105  0.5722
  116OSM   H14G12191   1.630   4.631   7.982 -0.8528  0.2095  0.0479
  116OSM   C15F12192   1.548   4.734   8.155 -0.3453  0.5862 -0.0572
  116OSM   H15F12193   1.448   4.763   8.117  0.7194  2.0687 -1.8845
  116OSM   H15G12194   1.583   4.814   8.224 -0.6789  0.9243 -0.2812
  116OSM   C16F12195   1.539   4.603   8.240  0.4030 -0.7493  0.1224
  116OSM   H16F12196   1.641   4.566   8.262  0.7334 -0.1020 -0.2913
  116OSM   H16G12197   1.477   4.532   8.182 -2.6706  0.7210  1.3643
  116OSM   C17F12198   1.458   4.612   8.367 -0.6094 -0.5627  0.4644
  116OSM   H17F12199   1.499   4.679   8.445  0.8514 -2.3718  1.3272
  116OSM   H17G12200   1.456   4.519   8.427 -1.1677 -0.7817  0.1216
  116OSM   C18F12201   1.312   4.649   8.353 -0.3038  0.4173 -0.3043
  116OSM   H18F12202   1.308   4.753   8.315 -0.6413  0.4417 -0.1975
  116OSM   H18G12203   1.260   4.651   8.451  0.1199  0.2547 -0.0708
  116OSM   H18H12204   1.263   4.576   8.285 -0.4622  0.3595 -0.1283
  117OSM      N12205   6.283   0.230   6.212 -0.1810  0.2816 -0.1949
  117OSM    C1512206   6.325   0.230   6.072 -0.1024 -0.7161 -0.0868
  117OSM   H15A12207   6.432   0.243   6.076 -0.2518  0.7878  3.8717
  117OSM   H15B12208   6.271   0.306   6.017  2.0635  0.7736 -0.2585
  117OSM   H15C12209   6.287   0.140   6.026  1.6497 -1.0136 -1.0203
  117OSM    C1412210   6.295   0.375   6.266 -0.0086  0.2877 -0.4051
  117OSM   H14A12211   6.212   0.430   6.225  0.3798  1.0948 -0.1222
  117OSM   H14B12212   6.390   0.424   6.247  0.8432 -0.8581  0.7008
  117OSM   H14C12213   6.263   0.368   6.369 -1.2000 -1.9834 -0.8518
  117OSM    C1312214   6.136   0.195   6.214 -0.6797 -0.1433  0.0117
  117OSM   H13A12215   6.081   0.269   6.157 -1.3586  1.7073  2.8673
  117OSM   H13B12216   6.090   0.212   6.310  0.2087 -0.4026  0.4907
  117OSM   H13C12217   6.131   0.098   6.167  0.3558 -0.6792  0.9771
  117OSM    C1212218   6.369   0.133   6.295  0.0026 -0.3952 -0.5068
  117OSM   H12A12219   6.329   0.122   6.394  0.0320 -2.0547 -0.6597
  117OSM   H12B12220   6.468   0.174   6.312 -1.1420  2.0538  0.6687
  117OSM    C1112221   6.380  -0.017   6.251  0.9289 -0.0579  0.0732
  117OSM   H11A12222   6.444  -0.078   6.319  0.3488  0.1431  0.8169
  117OSM   H11B12223   6.436  -0.018   6.155  0.3926 -0.3565 -0.2473
  117OSM      P12224   6.178  -0.145   6.349 -0.0104  0.0043 -0.0390
  117OSM    O1312225   6.034  -0.139   6.324 -0.7061  0.1699 -0.0508
  117OSM    O1412226   6.232  -0.279   6.345 -0.5972 -0.0838 -0.2989
  117OSM    O1112227   6.220  -0.066   6.475  0.5513 -0.6176  0.5154
  117OSM    O1212228   6.247  -0.069   6.233 -0.6411  0.2892  0.0252
  117OSM    C1S12229   6.138   0.028   6.547 -0.0985  0.2477  0.6280
  117OSM    H1S12230   6.031   0.018   6.520  0.0080 -1.5559  0.7601
  117OSM    H1T12231   6.159   0.133   6.518 -0.7324 -0.1028 -1.2385
  117OSM     NF12232   6.053   0.099   6.769 -0.3147  0.0306 -0.1665
  117OSM    HNF12233   6.092   0.174   6.821 -1.5113  0.9135 -0.5070
  117OSM    C2S12234   6.155   0.014   6.696  0.4239  0.0804 -0.0424
  117OSM    H2S12235   6.139  -0.089   6.734 -0.1449  0.2201  0.0994
  117OSM    C3S12236   6.300   0.058   6.721  0.2994  0.2706  0.3206
  117OSM    H3S12237   6.308   0.159   6.677 -0.9135  0.9762  1.6546
  117OSM     O312238   6.401  -0.014   6.653  0.1735 -0.2831  0.4337
  117OSM    HO312239   6.361  -0.085   6.602 -0.0297  0.6520 -0.7386
  117OSM    C4S12240   6.331   0.068   6.867  0.4491 -0.5797  0.1273
  117OSM    H4S12241   6.303   0.167   6.906  1.6691  0.1174 -0.6943
  117OSM    C5S12242   6.389  -0.022   6.947  0.7199 -0.0629  0.2594
  117OSM    H5S12243   6.409  -0.121   6.903  0.8456 -1.0092  2.3275
  117OSM    C6S12244   6.418  -0.017   7.097  0.0071  0.0838  0.4557
  117OSM    H6S12245   6.524  -0.041   7.123 -0.3835  0.4439  2.5133
  117OSM    H6T12246   6.356  -0.091   7.152 -2.3612  2.1252  0.6931
  117OSM    C7S12247   6.403   0.121   7.167 -0.3310 -0.2785  0.5405
  117OSM    H7S12248   6.293   0.132   7.183 -0.5075  1.2836 -1.3065
  117OSM    H7T12249   6.437   0.210   7.109  1.9769 -0.9617  0.7561
  117OSM    C8S12250   6.476   0.111   7.299 -0.1619  0.2008  0.2299
  117OSM    H8S12251   6.480   0.006   7.335  0.4638  0.3510  0.6170
  117OSM    H8T12252   6.424   0.173   7.375  0.8698  1.6526 -0.1852
  117OSM    C9S12253   6.621   0.169   7.295  0.8073 -0.5641  0.6089
  117OSM    H9S12254   6.613   0.277   7.269 -1.1484 -1.1299 -1.4720
  117OSM    H9T12255   6.666   0.128   7.202  1.5362  1.8582 -0.1963
  117OSM   C10S12256   6.694   0.169   7.429 -0.1109  0.0688  0.2114
  117OSM   H10S12257   6.800   0.197   7.407 -0.0134  2.0855  2.8285
  117OSM   H10T12258   6.690   0.066   7.471 -1.8243  0.0990  0.1832
  117OSM   C11S12259   6.637   0.272   7.524  0.4008  0.0996  0.7045
  117OSM   H11S12260   6.529   0.249   7.538  0.1506 -0.0085 -1.2046
  117OSM   H11T12261   6.647   0.378   7.492  1.2002  0.2762  1.4784
  117OSM   C12S12262   6.676   0.249   7.671  0.0323 -0.9742 -0.9104
  117OSM   H12S12263   6.787   0.246   7.677  0.2006  2.1355 -0.9606
  117OSM   H12T12264   6.648   0.152   7.718  0.4423 -0.1280  1.1627
  117OSM   C13S12265   6.638   0.370   7.758 -0.2443  0.7262  0.1292
  117OSM   H13S12266   6.530   0.395   7.755 -0.3598  0.3670  1.0437
  117OSM   H13T12267   6.688   0.464   7.724  0.1964  0.9430  1.3251
  117OSM   C14S12268   6.667   0.336   7.906  0.5998 -0.4131 -0.9380
  117OSM   H14S12269   6.775   0.313   7.923  0.6600  1.7932  2.8648
  117OSM   H14T12270   6.611   0.242   7.922  1.3028 -0.9564 -1.5646
  117OSM   C15S12271   6.616   0.444   8.002 -0.2747  0.4702  0.7476
  117OSM   H15S12272   6.506   0.444   7.986 -0.2396 -0.6983  0.4677
  117OSM   H15T12273   6.670   0.535   7.967  1.6948 -0.8181  0.2721
  117OSM   C16S12274   6.651   0.425   8.150  0.5240 -0.3173  0.9017
  117OSM   H16S12275   6.586   0.344   8.190 -0.5265  0.2999  0.4679
  117OSM   H16T12276   6.626   0.505   8.223 -1.1602 -1.7315  1.9696
  117OSM   C17S12277   6.798   0.386   8.172  0.4873 -0.3618  0.3163
  117OSM   H17S12278   6.857   0.461   8.116 -1.2367 -0.1587 -1.3405
  117OSM   H17T12279   6.818   0.290   8.121 -0.6198 -0.7833  0.6428
  117OSM   C18S12280   6.838   0.374   8.315 -0.5578  0.2762 -0.1874
  117OSM   H18S12281   6.763   0.308   8.363 -0.6773  1.0726  0.7419
  117OSM   H18T12282   6.833   0.472   8.367 -0.4788 -0.4898  1.3240
  117OSM   H18U12283   6.938   0.324   8.319 -0.9881 -0.5590  0.4629
  117OSM    C1F12284   5.922   0.071   6.771 -0.6480  0.7384 -0.6036
  117OSM     OF12285   5.872  -0.019   6.702  0.7307  0.0346 -0.5895
  117OSM    C2F12286   5.840   0.145   6.866  0.2974  0.0466  0.1936
  117OSM    H2F12287   5.739   0.170   6.826 -0.2401  3.2729  3.1038
  117OSM    H2G12288   5.888   0.241   6.895  1.0469 -0.3116  0.1463
  117OSM    C3F12289   5.806   0.072   6.990 -0.6061  0.4983 -0.1999
  117OSM    H3F12290   5.752  -0.017   6.953  3.7703 -2.9117  0.7948
  117OSM    H3G12291   5.732   0.127   7.053 -0.5388  0.0083  0.3127
  117OSM    C4F12292   5.935   0.048   7.077  0.0955  0.3761  0.9848
  117OSM    H4F12293   5.996   0.141   7.078  2.2511 -0.9097 -0.8880
  117OSM    H4G12294   5.990  -0.033   7.025 -0.5874 -0.6667  1.8489
  117OSM    C5F12295   5.909   0.006   7.224 -0.2585  0.0666  0.8595
  117OSM    H5F12296   5.865  -0.094   7.244 -0.1348 -0.1371  0.1345
  117OSM    H5G12297   5.852   0.089   7.270 -2.1283  0.2232 -1.5637
  117OSM    C6F12298   6.048  -0.004   7.298  0.0578 -0.6848  0.4735
  117OSM    H6F12299   6.102   0.091   7.284 -0.4509 -0.4074  0.3590
  117OSM    H6G12300   6.101  -0.086   7.245  1.7093  1.5664 -1.5919
  117OSM    C7F12301   6.030  -0.019   7.445  0.0748  0.1583  0.2748
  117OSM    H7F12302   5.960   0.063   7.472 -1.0350 -0.2976 -1.1313
  117OSM    H7G12303   6.123  -0.022   7.506 -0.4687  0.3770  1.1345
  117OSM    C8F12304   5.959  -0.154   7.492  0.1012  0.3596  0.0693
  117OSM    H8F12305   5.992  -0.225   7.412  0.0121  0.0629  0.2948
  117OSM    H8G12306   5.852  -0.134   7.470  0.9541  2.7592 -2.4857
  117OSM    C9F12307   5.971  -0.223   7.628 -0.6068  0.0505  0.9034
  117OSM    H9F12308   6.063  -0.283   7.640 -0.4371 -0.3385 -1.7524
  117OSM   C10F12309   5.879  -0.220   7.728  0.0756  0.1136  0.3031
  117OSM   H10F12310   5.900  -0.271   7.824  0.5937 -1.3632 -0.5522
  117OSM   C11F12311   5.746  -0.152   7.726  0.5172 -0.0326 -0.1213
  117OSM   H11F12312   5.669  -0.227   7.697  0.8502 -0.3169 -0.2850
  117OSM   H11G12313   5.733  -0.080   7.643 -3.1561 -0.9242 -0.5085
  117OSM   C12F12314   5.706  -0.079   7.854  0.4646  0.5257 -0.5349
  117OSM   H12F12315   5.612  -0.029   7.820  0.9638  0.9713 -1.2964
  117OSM   H12G12316   5.777   0.000   7.883 -0.0672  0.4197  1.1202
  117OSM   C13F12317   5.683  -0.180   7.967 -0.3434 -0.3680 -0.2940
  117OSM   H13F12318   5.782  -0.219   8.001 -0.9115  0.2282  2.1864
  117OSM   H13G12319   5.630  -0.274   7.940 -0.6916 -0.4482  0.6414
  117OSM   C14F12320   5.615  -0.117   8.095 -0.0934  0.1745  1.1417
  117OSM   H14F12321   5.592  -0.197   8.168  0.0448 -1.9941 -1.0604
  117OSM   H14G12322   5.523  -0.073   8.050  0.5661  1.1701  0.7348
  117OSM   C15F12323   5.693  -0.007   8.164 -0.0118 -0.9561  0.7887
  117OSM   H15F12324   5.636   0.052   8.239  1.3758 -0.5294  1.5590
  117OSM   H15G12325   5.724   0.070   8.090 -0.4226 -0.3848  1.2070
  117OSM   C16F12326   5.810  -0.060   8.242 -0.9362 -0.1496  0.1164
  117OSM   H16F12327   5.886  -0.074   8.162 -2.3697  0.7426 -1.4589
  117OSM   H16G12328   5.801  -0.154   8.301  0.6279  0.0018  0.6353
  117OSM   C17F12329   5.855   0.051   8.338  0.0774  0.1680 -0.3736
  117OSM   H17F12330   5.874   0.149   8.288 -0.5367  0.3513 -0.2676
  117OSM   H17G12331   5.778   0.082   8.413 -1.7530  3.3647 -3.2846
  117OSM   C18F12332   5.981   0.012   8.423 -0.2545  0.1939  0.3450
  117OSM   H18F12333   6.073   0.018   8.361  0.2540 -1.7075  0.8606
  117OSM   H18G12334   5.968  -0.089   8.467  1.4493 -1.0776 -1.8469
  117OSM   H18H12335   6.001   0.087   8.502 -1.9550 -0.6295  1.6215
  118OSM      N12336   3.865   0.539   6.056  0.6636  0.3479  0.1493
  118OSM    C1512337   3.999   0.486   6.103 -0.3367  0.4504 -0.1598
  118OSM   H15A12338   3.983   0.411   6.180  0.1645  0.3965 -0.1035
  118OSM   H15B12339   4.056   0.566   6.148  0.2399  0.6586 -1.2304
  118OSM   H15C12340   4.061   0.436   6.031  0.3965 -1.1780  1.5232
  118OSM    C1412341   3.886   0.650   5.963  0.1003  0.5264  0.2556
  118OSM   H14A12342   3.798   0.681   5.909 -0.2710  0.5968  0.8910
  118OSM   H14B12343   3.949   0.633   5.877 -2.6418  1.6853 -2.1582
  118OSM   H14C12344   3.928   0.734   6.017  1.7500 -0.0931 -0.0035
  118OSM    C1312345   3.801   0.429   5.986  0.6099  0.9357  0.5770
  118OSM   H13A12346   3.693   0.440   5.986  0.6880  1.8176 -0.5533
  118OSM   H13B12347   3.818   0.332   6.032 -1.5157 -0.6634 -1.7233
  118OSM   H13C12348   3.827   0.417   5.882  0.1459 -1.7232  0.6995
  118OSM    C1212349   3.787   0.586   6.180 -0.4072 -0.6916  0.1485
  118OSM   H12A12350   3.767   0.509   6.254 -2.5523 -0.8047 -0.4853
  118OSM   H12B12351   3.688   0.617   6.150 -0.0804 -0.3964 -0.6407
  118OSM    C1112352   3.859   0.697   6.266  0.8811 -0.2496  0.6144
  118OSM   H11A12353   3.788   0.701   6.352 -1.0916  0.1328 -0.9642
  118OSM   H11B12354   3.848   0.792   6.210  1.7095 -1.7596 -2.2855
  118OSM      P12355   4.067   0.781   6.386 -0.0459 -0.0346 -0.2596
  118OSM    O1312356   4.210   0.786   6.357 -0.2655 -0.2669  0.5045
  118OSM    O1412357   4.001   0.913   6.368 -0.6902 -0.6185 -0.8392
  118OSM    O1112358   4.047   0.737   6.534 -0.5849 -0.2804 -0.6028
  118OSM    O1212359   3.995   0.673   6.303 -0.4296  0.2694 -0.4122
  118OSM    C1S12360   4.105   0.607   6.563 -0.1883 -0.2494 -0.7569
  118OSM    H1S12361   4.214   0.607   6.541  0.4582 -0.9632  2.0696
  118OSM    H1T12362   4.045   0.531   6.509  0.3360 -2.0154  1.0312
  118OSM     NF12363   4.188   0.495   6.767 -0.0576 -0.4745 -0.0513
  118OSM    HNF12364   4.180   0.396   6.777  1.2768 -0.4775  1.3711
  118OSM    C2S12365   4.085   0.571   6.717 -0.1920 -0.0313 -0.3021
  118OSM    H2S12366   4.078   0.668   6.772  1.6342  0.6092 -1.1105
  118OSM    C3S12367   3.940   0.502   6.722  0.0712  0.5278  0.0076
  118OSM    H3S12368   3.939   0.408   6.662  0.4267  0.1923  0.5227
  118OSM     O312369   3.841   0.580   6.657 -0.4288 -0.2575 -0.3981
  118OSM    HO312370   3.888   0.642   6.601 -1.3886  0.4143 -0.4916
  118OSM    C4S12371   3.910   0.454   6.862  0.3312 -0.9811 -0.5151
  118OSM    H4S12372   3.953   0.357   6.889  0.7119 -0.3648  1.2432
  118OSM    C5S12373   3.832   0.525   6.949 -0.3563 -0.4594 -0.4613
  118OSM    H5S12374   3.788   0.623   6.926  0.7323  0.5970  1.7114
  118OSM    C6S12375   3.793   0.493   7.088 -0.6792 -0.1104 -0.1228
  118OSM    H6S12376   3.768   0.385   7.098  1.1231 -0.7768 -2.0920
  118OSM    H6T12377   3.711   0.563   7.113  0.8733  1.6120  0.3193
  118OSM    C7S12378   3.915   0.516   7.182  1.2977 -1.0562 -0.9652
  118OSM    H7S12379   3.955   0.619   7.188 -0.2985 -0.4634  0.0497
  118OSM    H7T12380   3.996   0.445   7.155  3.2555  0.7533 -0.1364
  118OSM    C8S12381   3.855   0.497   7.320 -0.5156 -0.3549 -0.2627
  118OSM    H8S12382   3.794   0.404   7.329 -0.8659 -0.1032  0.0119
  118OSM    H8T12383   3.799   0.591   7.338  1.8560  0.9893  0.5085
  118OSM    C9S12384   3.959   0.491   7.427 -0.4082 -0.1802 -1.0431
  118OSM    H9S12385   4.024   0.580   7.413  2.4234 -1.9760 -0.2460
  118OSM    H9T12386   4.029   0.405   7.416 -1.0854 -0.7317 -1.0968
  118OSM   C10S12387   3.927   0.489   7.581 -0.6460 -0.1970  0.4072
  118OSM   H10S12388   3.854   0.407   7.598 -2.0796  0.9627  0.0778
  118OSM   H10T12389   3.860   0.575   7.604 -0.8846 -0.2700 -0.0098
  118OSM   C11S12390   4.045   0.482   7.675 -0.2446 -0.2233  0.4143
  118OSM   H11S12391   4.092   0.583   7.672 -1.0497  0.2002  1.4566
  118OSM   H11T12392   4.130   0.427   7.629  0.1576  0.8875 -0.2301
  118OSM   C12S12393   3.998   0.441   7.809 -0.0767 -0.1853 -1.0891
  118OSM   H12S12394   3.980   0.331   7.810  0.8271 -0.3534 -2.0841
  118OSM   H12T12395   3.909   0.502   7.836 -0.6470 -0.9395 -1.2226
  118OSM   C13S12396   4.106   0.467   7.914  0.0826  0.0236 -0.3432
  118OSM   H13S12397   4.149   0.570   7.908  0.2175 -0.0205 -0.1290
  118OSM   H13T12398   4.192   0.404   7.885  0.2179  0.1992 -0.3249
  118OSM   C14S12399   4.072   0.426   8.052 -0.1459  0.5735 -0.3108
  118OSM   H14S12400   4.045   0.318   8.060 -1.9672  0.8956 -1.3795
  118OSM   H14T12401   3.979   0.472   8.091 -0.1334 -0.7089  1.3688
  118OSM   C15S12402   4.183   0.466   8.156  0.0983  0.2764  0.1664
  118OSM   H15S12403   4.208   0.572   8.134  1.1801 -0.3518 -1.9826
  118OSM   H15T12404   4.268   0.400   8.128  0.3524  0.4101  0.6212
  118OSM   C16S12405   4.123   0.456   8.298 -0.0652 -0.0894  0.6789
  118OSM   H16S12406   4.080   0.354   8.312 -2.5857  0.8402  0.1523
  118OSM   H16T12407   4.024   0.506   8.298  0.2901  0.6722 -1.2359
  118OSM   C17S12408   4.223   0.508   8.402 -0.0317 -0.2964 -0.2172
  118OSM   H17S12409   4.266   0.607   8.375 -0.8177  0.3463  0.7997
  118OSM   H17T12410   4.308   0.436   8.404 -1.0415 -1.5098  0.0070
  118OSM   C18S12411   4.154   0.515   8.538 -0.6367  0.1550  0.0616
  118OSM   H18S12412   4.097   0.608   8.557 -2.5574 -1.3728  2.4626
  118OSM   H18T12413   4.235   0.507   8.615 -0.9769 -0.8716  0.3310
  118OSM   H18U12414   4.089   0.425   8.546 -0.3909 -0.1445 -1.1989
  118OSM    C1F12415   4.305   0.545   6.807  0.0551 -0.5384  0.6545
  118OSM     OF12416   4.333   0.664   6.808  0.9073 -0.5092  0.2877
  118OSM    C2F12417   4.404   0.445   6.854  0.2973 -0.1485 -0.0605
  118OSM    H2F12418   4.505   0.485   6.830  0.3956 -2.0735 -3.5604
  118OSM    H2G12419   4.393   0.346   6.805  0.6286 -0.1109 -0.2119
  118OSM    C3F12420   4.409   0.427   7.007  0.1690 -0.4234 -0.3228
  118OSM    H3F12421   4.449   0.520   7.052  0.1700 -1.4206  1.8509
  118OSM    H3G12422   4.482   0.347   7.030  0.5555  0.2163  0.7798
  118OSM    C4F12423   4.266   0.390   7.065  0.1878 -0.3786 -0.4962
  118OSM    H4F12424   4.218   0.314   6.999 -3.1269  1.3912 -0.3462
  118OSM    H4G12425   4.198   0.477   7.079  0.0972 -0.5143 -0.0817
  118OSM    C5F12426   4.275   0.320   7.204  0.0329 -0.5551 -0.1904
  118OSM    H5F12427   4.346   0.235   7.199 -4.4500 -4.6737 -1.3612
  118OSM    H5G12428   4.175   0.282   7.235  0.6822 -1.7283  0.5408
  118OSM    C6F12429   4.324   0.415   7.316 -0.7853 -0.2983  0.0937
  118OSM    H6F12430   4.247   0.491   7.339 -0.5674  0.1431 -0.6100
  118OSM    H6G12431   4.415   0.474   7.290 -0.9721  1.8224  3.6503
  118OSM    C7F12432   4.346   0.341   7.441 -0.4717 -0.0917 -0.5305
  118OSM    H7F12433   4.430   0.271   7.421  2.6220  2.3462  2.6390
  118OSM    H7G12434   4.258   0.290   7.485 -1.5610  0.4736 -1.9611
  118OSM    C8F12435   4.411   0.428   7.562  0.5052  0.0603  0.5682
  118OSM    H8F12436   4.355   0.522   7.574 -0.7457 -0.2296 -2.2830
  118OSM    H8G12437   4.511   0.464   7.530 -0.3572  0.3054 -2.0204
  118OSM    C9F12438   4.418   0.354   7.690 -0.3239 -0.3854 -0.0346
  118OSM    H9F12439   4.331   0.367   7.756  0.0410  0.1031  0.3523
  118OSM   C10F12440   4.517   0.270   7.736  1.6490 -1.1291  0.6047
  118OSM   H10F12441   4.502   0.215   7.830  1.6099  0.4707  1.5639
  118OSM   C11F12442   4.632   0.226   7.649  0.2720  0.7786  0.0048
  118OSM   H11F12443   4.729   0.260   7.692  2.6808 -3.5130 -1.4465
  118OSM   H11G12444   4.625   0.253   7.542 -0.2202 -3.8001 -1.3319
  118OSM   C12F12445   4.636   0.068   7.643  0.3887  0.3708  0.2289
  118OSM   H12F12446   4.712   0.038   7.568 -0.7647  0.2765 -0.9194
  118OSM   H12G12447   4.540   0.020   7.615  1.3984 -1.8373  0.2955
  118OSM   C13F12448   4.676  -0.005   7.780 -0.5704  0.0425  0.1302
  118OSM   H13F12449   4.589  -0.000   7.849  1.2790 -0.9508  2.6687
  118OSM   H13G12450   4.766   0.045   7.821 -0.0063 -0.5327 -0.3854
  118OSM   C14F12451   4.708  -0.159   7.751 -0.7315 -0.4929  0.9239
  118OSM   H14F12452   4.784  -0.194   7.824 -0.1801  1.5028  1.3830
  118OSM   H14G12453   4.750  -0.174   7.650 -0.2373  0.5582  0.9556
  118OSM   C15F12454   4.588  -0.237   7.779  0.7105 -0.3470  0.1790
  118OSM   H15F12455   4.497  -0.189   7.736 -0.2859 -1.1599  1.3226
  118OSM   H15G12456   4.570  -0.234   7.888 -2.6054 -2.5937 -0.1889
  118OSM   C16F12457   4.591  -0.386   7.740 -0.0150 -0.0510 -0.2668
  118OSM   H16F12458   4.687  -0.422   7.782  0.2850  1.6248  0.6061
  118OSM   H16G12459   4.601  -0.394   7.629 -0.8163  3.5474 -0.7394
  118OSM   C17F12460   4.475  -0.458   7.800  0.0342 -1.2554 -0.5359
  118OSM   H17F12461   4.383  -0.398   7.788  0.2625 -1.0519 -1.3551
  118OSM   H17G12462   4.483  -0.461   7.910 -0.2635  1.2597 -0.3908
  118OSM   C18F12463   4.442  -0.595   7.742 -1.1045 -0.5700  0.4222
  118OSM   H18F12464   4.396  -0.580   7.642 -3.7651 -0.8736  1.5199
  118OSM   H18G12465   4.357  -0.643   7.796 -2.0776  2.0839  1.4214
  118OSM   H18H12466   4.527  -0.665   7.728 -1.7691 -0.8549 -3.1163
  119OSM      N12467   4.810   4.632   5.962  0.2324  0.2898  0.4253
  119OSM    C1512468   4.766   4.543   6.085  0.1121 -0.2084  0.1904
  119OSM   H15A12469   4.806   4.576   6.180 -1.1434 -0.2632  0.7468
  119OSM   H15B12470   4.795   4.440   6.072 -1.9309 -0.6614 -1.4152
  119OSM   H15C12471   4.658   4.542   6.091  0.1122  0.7525  0.5551
  119OSM    C1412472   4.778   4.557   5.840  0.6161  0.1877  0.0194
  119OSM   H14A12473   4.784   4.614   5.749  0.5591 -0.0667 -0.1446
  119OSM   H14B12474   4.674   4.529   5.844  0.0472  2.2422  2.6439
  119OSM   H14C12475   4.840   4.469   5.841  1.3054  0.6642 -0.0726
  119OSM    C1312476   4.735   4.763   5.979  0.6107  0.2987  0.0648
  119OSM   H13A12477   4.630   4.741   5.972  0.6407 -0.3253  1.2816
  119OSM   H13B12478   4.758   4.836   5.902  1.2829 -0.3619 -0.3830
  119OSM   H13C12479   4.753   4.811   6.074 -1.1536 -0.0169  0.5938
  119OSM    C1212480   4.962   4.647   5.961 -0.5219  0.3624  0.2013
  119OSM   H12A12481   4.976   4.696   5.865 -2.3351 -0.4482 -0.5335
  119OSM   H12B12482   5.016   4.555   5.947  1.2083  0.5105  4.5088
  119OSM    C1112483   5.020   4.738   6.070 -0.3550 -0.2366 -0.4737
  119OSM   H11A12484   5.129   4.719   6.069  0.4127  3.3717 -0.2461
  119OSM   H11B12485   4.991   4.714   6.175 -0.5512  1.5069 -0.0910
  119OSM      P12486   5.084   4.959   5.951 -0.1602  0.1354  0.0822
  119OSM    O1312487   5.134   4.874   5.840 -0.2881  0.0970  0.7025
  119OSM    O1412488   5.011   5.085   5.912 -0.1790  0.2462 -0.2115
  119OSM    O1112489   5.207   4.998   6.047 -0.1413 -0.0515  0.5848
  119OSM    O1212490   4.986   4.880   6.051 -0.5947  0.7688  0.0603
  119OSM    C1S12491   5.186   5.072   6.168 -0.1473 -0.0986 -0.9309
  119OSM    H1S12492   5.084   5.112   6.184  0.2154  0.1391  1.0831
  119OSM    H1T12493   5.245   5.166   6.170 -1.0175  0.5849  3.4794
  119OSM     NF12494   5.230   5.055   6.419 -0.2144 -0.3273 -0.1230
  119OSM    HNF12495   5.309   5.113   6.437 -1.0487  0.5977  0.6935
  119OSM    C2S12496   5.236   4.982   6.293 -0.4310  0.7080 -0.0322
  119OSM    H2S12497   5.170   4.894   6.304  0.0847  0.4350  1.0986
  119OSM    C3S12498   5.384   4.930   6.260 -0.0647  0.3829 -0.4455
  119OSM    H3S12499   5.451   5.013   6.230  1.5013 -0.5799  0.2436
  119OSM     O312500   5.387   4.837   6.156 -0.7348  0.0740  0.0456
  119OSM    HO312501   5.297   4.856   6.129 -0.9910  1.8074  1.8276
  119OSM    C4S12502   5.432   4.867   6.385  0.2837 -0.4772 -0.3500
  119OSM    H4S12503   5.495   4.940   6.439 -0.8326  0.5845 -0.4230
  119OSM    C5S12504   5.386   4.754   6.446 -0.0355  0.0252  0.1220
  119OSM    H5S12505   5.312   4.689   6.398  2.1068 -1.6838 -1.0902
  119OSM    C6S12506   5.434   4.710   6.577  0.3815  0.3738 -0.5764
  119OSM    H6S12507   5.542   4.736   6.581  0.9380 -1.3887 -2.6063
  119OSM    H6T12508   5.430   4.600   6.584 -1.4981  0.5195  1.8916
  119OSM    C7S12509   5.361   4.768   6.708 -0.5436 -0.0414  0.8793
  119OSM    H7S12510   5.262   4.720   6.721  0.4847 -2.1150  1.4631
  119OSM    H7T12511   5.340   4.870   6.670 -0.7424  0.1613  1.5089
  119OSM    C8S12512   5.441   4.795   6.839 -0.9390  0.2156  0.2416
  119OSM    H8S12513   5.543   4.834   6.816 -1.0278 -0.0170 -0.5633
  119OSM    H8T12514   5.455   4.699   6.893  1.4450 -1.2508 -2.6784
  119OSM    C9S12515   5.376   4.915   6.919 -0.0405  0.0232  0.1943
  119OSM    H9S12516   5.266   4.907   6.923  0.0363 -1.0989  0.5410
  119OSM    H9T12517   5.400   5.005   6.858  0.1909 -0.9502 -1.2154
  119OSM   C10S12518   5.410   4.915   7.066 -0.0444 -0.5948 -0.3540
  119OSM   H10S12519   5.349   4.999   7.107 -1.0653 -1.0823 -0.8165
  119OSM   H10T12520   5.518   4.926   7.088  0.3277 -0.9687 -1.8662
  119OSM   C11S12521   5.364   4.792   7.144 -0.4917 -0.4308 -0.3346
  119OSM   H11S12522   5.413   4.702   7.101 -1.9443 -2.1224  1.3302
  119OSM   H11T12523   5.254   4.775   7.145 -0.5119 -0.3812  1.2248
  119OSM   C12S12524   5.411   4.804   7.294  0.1306  0.0725  1.3471
  119OSM   H12S12525   5.366   4.894   7.342 -0.1113  0.3544  0.6102
  119OSM   H12T12526   5.521   4.825   7.292  0.3446 -0.6502 -2.3526
  119OSM   C13S12527   5.387   4.673   7.371 -0.6544 -0.2589  0.7184
  119OSM   H13S12528   5.448   4.602   7.311 -0.6307 -0.7724  1.3490
  119OSM   H13T12529   5.281   4.641   7.363 -0.7132 -0.2199  1.3079
  119OSM   C14S12530   5.437   4.691   7.520  0.1427 -0.1356  0.9727
  119OSM   H14S12531   5.390   4.784   7.557 -2.5710 -1.3164  0.7427
  119OSM   H14T12532   5.548   4.690   7.522  0.1950 -1.4828 -0.4838
  119OSM   C15S12533   5.374   4.576   7.593  0.1414  0.2689 -0.2274
  119OSM   H15S12534   5.435   4.486   7.568 -0.3988  0.1600 -1.2016
  119OSM   H15T12535   5.268   4.556   7.567 -1.0164  1.6723  2.8946
  119OSM   C16S12536   5.407   4.585   7.744 -0.5083  0.3590 -0.1076
  119OSM   H16S12537   5.357   4.679   7.775  0.2316  0.7316 -0.0424
  119OSM   H16T12538   5.516   4.598   7.756 -0.6362  1.2769  0.0965
  119OSM   C17S12539   5.356   4.458   7.814 -0.7602 -0.1714  0.1179
  119OSM   H17S12540   5.420   4.370   7.793  0.0354 -0.0332  1.8236
  119OSM   H17T12541   5.250   4.433   7.793 -0.3055  0.3971 -3.5142
  119OSM   C18S12542   5.377   4.479   7.971 -0.0767 -0.5701  0.6930
  119OSM   H18S12543   5.462   4.548   7.990 -0.0657 -0.6457  0.9143
  119OSM   H18T12544   5.389   4.378   8.015  0.6541 -0.5737  0.4975
  119OSM   H18U12545   5.285   4.528   8.009 -1.7340 -2.7441 -0.3110
  119OSM    C1F12546   5.115   5.081   6.472  0.0505  0.3683  1.1866
  119OSM     OF12547   5.018   5.046   6.407 -0.1014 -0.0930 -0.1851
  119OSM    C2F12548   5.116   5.146   6.612  0.1660 -0.2322  0.5935
  119OSM    H2F12549   5.163   5.244   6.590 -0.2156 -0.3589 -0.8999
  119OSM    H2G12550   5.174   5.068   6.666 -0.1987 -1.7556 -1.1029
  119OSM    C3F12551   4.977   5.164   6.678 -0.4757 -0.0237  0.0871
  119OSM    H3F12552   4.924   5.066   6.669 -0.4775 -0.0805  0.7164
  119OSM    H3G12553   4.918   5.239   6.620 -0.3769 -0.9638 -1.2965
  119OSM    C4F12554   4.990   5.202   6.826 -0.4527  0.2861 -0.4079
  119OSM    H4F12555   4.918   5.286   6.831 -1.9763 -0.9537 -0.9932
  119OSM    H4G12556   5.097   5.220   6.854 -0.8070 -0.4771  1.5847
  119OSM    C5F12557   4.946   5.092   6.916  0.3883  0.6920 -0.0794
  119OSM    H5F12558   5.031   5.023   6.933 -0.1282 -0.2690 -1.2316
  119OSM    H5G12559   4.859   5.041   6.869 -0.0910  1.1898  0.2509
  119OSM    C6F12560   4.894   5.141   7.048  0.4096  0.4074  0.7372
  119OSM    H6F12561   4.823   5.225   7.035  0.6220  0.5581  0.5312
  119OSM    H6G12562   4.980   5.188   7.101  1.4478  0.0769 -0.5815
  119OSM    C7F12563   4.846   5.034   7.148 -0.3957  0.6594  0.3650
  119OSM    H7F12564   4.758   4.984   7.102 -0.6580 -0.3158  1.8462
  119OSM    H7G12565   4.808   5.090   7.237 -0.8527 -0.2677  0.7653
  119OSM    C8F12566   4.930   4.908   7.188  0.3275 -0.6353 -0.6628
  119OSM    H8F12567   4.961   4.858   7.094 -0.7788 -0.1088 -1.3197
  119OSM    H8G12568   4.876   4.829   7.243 -1.0556  0.2607 -0.7036
  119OSM    C9F12569   5.057   4.948   7.269  0.4924  0.8669 -0.1818
  119OSM    H9F12570   5.147   4.970   7.210  0.6489  1.1812  0.1688
  119OSM   C10F12571   5.068   4.941   7.397  0.1501  0.3843  0.3786
  119OSM   H10F12572   5.163   4.965   7.446 -0.3297  1.6444  0.7078
  119OSM   C11F12573   4.966   4.904   7.503  0.1840  0.1060 -0.2158
  119OSM   H11F12574   4.867   4.925   7.458  0.3212  0.8591 -0.1856
  119OSM   H11G12575   4.987   4.971   7.589  1.9877 -0.6130 -0.0418
  119OSM   C12F12576   4.984   4.759   7.545  0.1800 -0.3991 -0.3799
  119OSM   H12F12577   5.083   4.742   7.592 -0.5762 -0.9308  1.0827
  119OSM   H12G12578   4.971   4.707   7.448 -1.6017  0.2823 -0.5441
  119OSM   C13F12579   4.878   4.707   7.645  0.2688  0.1003 -0.6554
  119OSM   H13F12580   4.890   4.597   7.651  1.6060  0.1926  6.6881
  119OSM   H13G12581   4.778   4.729   7.602  0.9040  1.7609 -1.3836
  119OSM   C14F12582   4.886   4.740   7.796 -0.1911 -0.1620  0.2794
  119OSM   H14F12583   4.890   4.850   7.811  0.1328  0.3801 -2.9964
  119OSM   H14G12584   4.984   4.713   7.840 -0.2768  0.3726  0.8221
  119OSM   C15F12585   4.775   4.687   7.883  0.3154  0.4388  0.1794
  119OSM   H15F12586   4.782   4.577   7.872 -2.1298  0.0556  1.7062
  119OSM   H15G12587   4.671   4.718   7.859 -0.5272 -1.2391  1.4117
  119OSM   C16F12588   4.807   4.709   8.029  0.3470  0.1539 -0.3889
  119OSM   H16F12589   4.813   4.819   8.022  2.0455  0.1080 -0.1504
  119OSM   H16G12590   4.909   4.668   8.049  0.8658  0.6173 -1.8743
  119OSM   C17F12591   4.697   4.665   8.129 -0.2616 -0.6092 -0.0954
  119OSM   H17F12592   4.720   4.561   8.161  2.0089 -0.0034  0.4035
  119OSM   H17G12593   4.595   4.681   8.088 -0.5964  0.0379  0.9475
  119OSM   C18F12594   4.708   4.764   8.251 -0.3994 -0.3618 -0.1684
  119OSM   H18F12595   4.678   4.868   8.225  0.3144  0.1045  0.8064
  119OSM   H18G12596   4.812   4.770   8.288 -0.3748 -2.0699  0.1126
  119OSM   H18H12597   4.654   4.728   8.342  2.8725 -3.4371  0.7576
  120OSM      N12598   2.209   4.500   6.455  0.3603  0.8157  0.1554
  120OSM    C1512599   2.183   4.435   6.587 -0.4536 -0.5519 -0.2844
  120OSM   H15A12600   2.273   4.439   6.647 -1.9217  0.5684  2.0254
  120OSM   H15B12601   2.159   4.330   6.596  1.0286 -0.9678 -0.8078
  120OSM   H15C12602   2.115   4.492   6.649 -0.2158  0.6700 -1.1182
  120OSM    C1412603   2.351   4.462   6.417 -0.1968  0.0169 -0.3781
  120OSM   H14A12604   2.420   4.510   6.484  0.9218  0.3993 -1.7625
  120OSM   H14B12605   2.363   4.494   6.314 -1.9419  0.9127 -0.3452
  120OSM   H14C12606   2.362   4.355   6.429 -1.1690  0.0819  1.4911
  120OSM    C1312607   2.119   4.441   6.354  0.5164  0.2646  0.7057
  120OSM   H13A12608   2.122   4.334   6.359  0.3543  0.1183 -1.4936
  120OSM   H13B12609   2.135   4.466   6.250 -3.0443  0.0349 -0.0433
  120OSM   H13C12610   2.017   4.467   6.380  0.0686 -0.6836 -0.0685
  120OSM    C1212611   2.192   4.650   6.460  0.0031 -0.1336  0.0350
  120OSM   H12A12612   2.213   4.688   6.361  2.6945 -0.3788  0.4458
  120OSM   H12B12613   2.272   4.692   6.520 -1.6276  0.5840  1.8116
  120OSM    C1112614   2.062   4.704   6.506 -0.8529 -0.2348 -0.2555
  120OSM   H11A12615   2.041   4.670   6.609 -1.7145 -0.8244 -0.6149
  120OSM   H11B12616   1.971   4.674   6.450 -0.9327  1.9557 -1.4379
  120OSM      P12617   2.039   4.949   6.391 -0.6251 -0.3709  0.2543
  120OSM    O1312618   2.122   5.067   6.405  0.1898 -0.0119 -0.4981
  120OSM    O1412619   2.027   4.883   6.258 -0.1756 -0.6288 -0.3165
  120OSM    O1112620   1.894   4.985   6.441  0.9274  0.2465 -0.2043
  120OSM    O1212621   2.083   4.846   6.496 -0.4126  0.2392  0.0066
  120OSM    C1S12622   1.854   4.985   6.579 -0.5351  0.1532  0.0094
  120OSM    H1S12623   1.898   4.895   6.625  0.3783  0.5943  0.0206
  120OSM    H1T12624   1.744   4.981   6.592 -0.7745  2.6334 -0.7150
  120OSM     NF12625   1.903   5.083   6.803 -1.0707 -0.0866 -0.2124
  120OSM    HNF12626   1.820   5.118   6.845  1.0115  3.0774  1.6686
  120OSM    C2S12627   1.904   5.109   6.658  0.1817 -0.2440 -0.4325
  120OSM    H2S12628   2.007   5.134   6.623  0.2191  0.0788 -0.0919
  120OSM    C3S12629   1.806   5.225   6.612  0.1680 -1.0784  0.2122
  120OSM    H3S12630   1.703   5.194   6.637  0.0553 -2.1475 -1.4482
  120OSM     O312631   1.806   5.253   6.469 -0.2595 -0.1901  0.0234
  120OSM    HO312632   1.881   5.201   6.437  0.2694 -1.5592  3.1242
  120OSM    C4S12633   1.839   5.349   6.696 -0.2434  0.0977  0.5036
  120OSM    H4S12634   1.941   5.390   6.692 -0.2693  0.1649  0.5214
  120OSM    C5S12635   1.743   5.401   6.775 -0.6197  1.1276 -0.0600
  120OSM    H5S12636   1.641   5.364   6.764  0.0156 -0.0466 -2.8928
  120OSM    C6S12637   1.752   5.519   6.867  0.0587 -0.5050 -0.1047
  120OSM    H6S12638   1.680   5.595   6.830  0.1951 -0.1796  0.2933
  120OSM    H6T12639   1.847   5.573   6.846 -0.2478 -0.0575 -0.3432
  120OSM    C7S12640   1.740   5.470   7.014  0.1651 -1.0029 -0.2800
  120OSM    H7S12641   1.640   5.427   7.037 -1.0221  2.3761  1.5485
  120OSM    H7T12642   1.755   5.555   7.083 -1.3727 -0.7185 -0.2714
  120OSM    C8S12643   1.860   5.377   7.061  1.0807 -0.0834  0.5351
  120OSM    H8S12644   1.956   5.433   7.065  1.1913 -0.0761 -1.4439
  120OSM    H8T12645   1.872   5.300   6.982 -0.4080  2.5440 -2.4580
  120OSM    C9S12646   1.822   5.311   7.193 -0.6082  0.6202 -0.1943
  120OSM    H9S12647   1.915   5.261   7.226 -0.6516  0.5335 -0.2019
  120OSM    H9T12648   1.754   5.227   7.169 -0.1837  0.1325  0.3056
  120OSM   C10S12649   1.768   5.405   7.298 -0.2179  0.1735 -0.6641
  120OSM   H10S12650   1.714   5.345   7.374  1.7041 -2.5005 -1.2715
  120OSM   H10T12651   1.687   5.471   7.261 -0.5107  1.6884  2.3484
  120OSM   C11S12652   1.872   5.495   7.366 -0.1960 -0.4390 -0.1309
  120OSM   H11S12653   1.907   5.576   7.298  0.5757 -0.9283 -0.3307
  120OSM   H11T12654   1.968   5.442   7.383 -0.2525 -0.8341 -0.9969
  120OSM   C12S12655   1.818   5.565   7.496  0.2557 -0.4854  0.4317
  120OSM   H12S12656   1.726   5.622   7.469  1.4863  0.2422 -2.7009
  120OSM   H12T12657   1.885   5.634   7.552 -0.7741  1.1159 -0.2298
  120OSM   C13S12658   1.771   5.477   7.609 -0.1226 -0.7084 -0.1558
  120OSM   H13S12659   1.856   5.415   7.644  1.5349  1.2107 -0.6352
  120OSM   H13T12660   1.696   5.410   7.561 -0.1877 -1.6579  1.2021
  120OSM   C14S12661   1.705   5.560   7.722  0.3256  0.0438  0.4466
  120OSM   H14S12662   1.620   5.626   7.693 -1.5699 -1.7511  1.6462
  120OSM   H14T12663   1.788   5.623   7.762  0.8269 -1.0236  1.1475
  120OSM   C15S12664   1.654   5.480   7.842 -0.5001 -0.2823 -0.1390
  120OSM   H15S12665   1.740   5.415   7.869  0.2498  0.9410  0.5164
  120OSM   H15T12666   1.567   5.419   7.810 -1.9383  2.0968 -1.0046
  120OSM   C16S12667   1.625   5.551   7.972 -0.4953  0.0255 -0.9351
  120OSM   H16S12668   1.534   5.611   7.954  1.0014  2.1141 -1.9457
  120OSM   H16T12669   1.708   5.624   7.985 -1.0913  0.3956  1.0454
  120OSM   C17S12670   1.588   5.458   8.088  0.2383  0.0184 -0.1479
  120OSM   H17S12671   1.672   5.386   8.097  0.4086  0.1323 -0.8135
  120OSM   H17T12672   1.497   5.403   8.055  0.8694 -1.9108  1.1010
  120OSM   C18S12673   1.563   5.519   8.224  0.0971  0.0311 -0.4411
  120OSM   H18S12674   1.474   5.584   8.220 -0.4295 -0.6933 -0.6783
  120OSM   H18T12675   1.652   5.575   8.262 -1.0740  1.6776 -0.0262
  120OSM   H18U12676   1.543   5.439   8.298  0.1354 -1.7346 -2.2561
  120OSM    C1F12677   1.986   5.010   6.867  0.4477  1.0584  0.0055
  120OSM     OF12678   2.073   4.950   6.802  0.3733  0.1586 -0.0964
  120OSM    C2F12679   1.967   5.006   7.012 -0.0117  0.0708 -0.0170
  120OSM    H2F12680   1.880   5.068   7.041 -1.7203 -2.6225  1.0475
  120OSM    H2G12681   2.055   5.037   7.072 -2.1339  2.4190  2.1022
  120OSM    C3F12682   1.927   4.862   7.052  0.2039 -0.6548 -0.0102
  120OSM    H3F12683   2.018   4.800   7.042  1.0358  0.6710 -1.1168
  120OSM    H3G12684   1.843   4.821   6.991  0.6302  1.5135 -2.2182
  120OSM    C4F12685   1.880   4.850   7.198 -0.7910  0.6984  0.0966
  120OSM    H4F12686   1.831   4.943   7.234 -2.9776  1.3439 -3.9275
  120OSM    H4G12687   1.968   4.824   7.261 -1.4420 -0.9271  0.3893
  120OSM    C5F12688   1.779   4.739   7.219  0.6231 -0.0375  0.0974
  120OSM    H5F12689   1.815   4.641   7.182  1.7276  0.3825 -0.0155
  120OSM    H5G12690   1.680   4.758   7.174 -0.2059 -0.5396  1.6449
  120OSM    C6F12691   1.728   4.725   7.365 -0.3387 -0.4712 -0.1872
  120OSM    H6F12692   1.635   4.664   7.362 -0.7410  0.1627 -1.2759
  120OSM    H6G12693   1.698   4.828   7.392 -1.3158 -1.4083  2.7304
  120OSM    C7F12694   1.833   4.669   7.462 -0.4995  0.1323  0.5900
  120OSM    H7F12695   1.928   4.725   7.449 -0.5252  0.5812  2.1145
  120OSM    H7G12696   1.843   4.560   7.444 -1.3176  0.1660 -0.1101
  120OSM    C8F12697   1.806   4.688   7.610 -0.2555  0.1987 -0.1671
  120OSM    H8F12698   1.700   4.660   7.627 -0.1722  0.9908  1.9601
  120OSM    H8G12699   1.811   4.797   7.629 -0.5172  0.3316 -0.8494
  120OSM    C9F12700   1.883   4.618   7.714 -0.6106  0.0955  0.5236
  120OSM    H9F12701   1.863   4.510   7.720 -0.6610 -0.0156 -1.0985
  120OSM   C10F12702   1.983   4.674   7.790  0.1458 -0.3038 -0.1178
  120OSM   H10F12703   2.039   4.614   7.863 -2.3525 -0.6567  1.6538
  120OSM   C11F12704   2.026   4.821   7.794  0.0393 -0.2898 -0.0029
  120OSM   H11F12705   1.966   4.868   7.875 -2.8879  1.0568 -2.7296
  120OSM   H11G12706   1.990   4.873   7.702 -0.7043  0.3603  0.6357
  120OSM   C12F12707   2.177   4.848   7.807 -0.0492 -0.4802  0.4951
  120OSM   H12F12708   2.218   4.806   7.901  2.5234  0.4855 -0.0840
  120OSM   H12G12709   2.198   4.957   7.799 -0.3740 -0.4264  0.3595
  120OSM   C13F12710   2.258   4.783   7.691  0.0249  0.6688  0.0495
  120OSM   H13F12711   2.220   4.679   7.677  0.4224  0.4630  0.4565
  120OSM   H13G12712   2.363   4.795   7.723  0.1636  0.9518 -0.5117
  120OSM   C14F12713   2.231   4.844   7.555 -0.2402 -0.1555 -0.0604
  120OSM   H14F12714   2.264   4.950   7.551  0.4826 -0.3956 -0.8389
  120OSM   H14G12715   2.123   4.826   7.535 -0.0202 -0.9600 -0.5652
  120OSM   C15F12716   2.312   4.773   7.444 -0.3187  0.3747  0.2459
  120OSM   H15F12717   2.285   4.665   7.444  0.3761  0.1249  3.4445
  120OSM   H15G12718   2.421   4.786   7.462  0.2697  0.6133 -2.8860
  120OSM   C16F12719   2.289   4.845   7.305  0.0660 -0.0896  0.5402
  120OSM   H16F12720   2.366   4.924   7.298  0.1752 -0.3256 -1.3692
  120OSM   H16G12721   2.191   4.895   7.290 -0.3800 -1.4678 -1.4868
  120OSM   C17F12722   2.313   4.758   7.177  0.9868 -0.6699  0.4057
  120OSM   H17F12723   2.292   4.816   7.085 -0.3784  1.1640  1.7982
  120OSM   H17G12724   2.232   4.682   7.177  0.7469 -0.4971 -2.3068
  120OSM   C18F12725   2.438   4.682   7.174  0.2718 -0.3189  0.0058
  120OSM   H18F12726   2.527   4.742   7.204 -0.2052  0.2662  0.2716
  120OSM   H18G12727   2.448   4.633   7.075 -0.0996  0.2934 -0.3451
  120OSM   H18H12728   2.443   4.607   7.256  0.4324 -0.8698 -0.4985
  121OSM      N12729   2.397   0.091   6.360 -0.2570  0.3242 -0.0960
  121OSM    C1512730   2.500   0.199   6.381  0.4272  0.1059 -0.6185
  121OSM   H15A12731   2.551   0.177   6.473 -0.7496  0.7889  0.2330
  121OSM   H15B12732   2.444   0.292   6.386 -1.9017 -1.2568  0.9024
  121OSM   H15C12733   2.577   0.196   6.306  2.0436 -2.1071  1.0037
  121OSM    C1412734   2.298   0.107   6.463  0.5488  0.4551 -0.8690
  121OSM   H14A12735   2.347   0.134   6.555  1.5648 -2.6346 -0.3910
  121OSM   H14B12736   2.231   0.024   6.483  0.6944  0.7804  1.1720
  121OSM   H14C12737   2.242   0.195   6.436 -0.1183  0.7656  1.3503
  121OSM    C1312738   2.328   0.112   6.232 -0.1090  0.7179 -0.1802
  121OSM   H13A12739   2.391   0.145   6.151  0.5391  0.6189  0.2788
  121OSM   H13B12740   2.243   0.178   6.242 -1.4707 -1.1840  1.6894
  121OSM   H13C12741   2.278   0.023   6.198  0.4164 -0.0667  1.0470
  121OSM    C1212742   2.469  -0.045   6.363 -0.1434 -0.8597  0.2825
  121OSM   H12A12743   2.383  -0.110   6.359  0.2119 -1.3003 -0.8351
  121OSM   H12B12744   2.503  -0.064   6.463 -0.1793  1.0233  0.6881
  121OSM    C1112745   2.581  -0.076   6.258  0.5571  0.3194  0.8387
  121OSM   H11A12746   2.666  -0.009   6.284  2.2964 -0.8458 -1.4155
  121OSM   H11B12747   2.549  -0.064   6.152 -0.4504 -2.6065  0.7299
  121OSM      P12748   2.767  -0.256   6.245  0.3551  0.2955 -0.2041
  121OSM    O1312749   2.756  -0.391   6.188  0.2346  0.0611  0.2681
  121OSM    O1412750   2.843  -0.153   6.170  0.0061  0.3922  0.8670
  121OSM    O1112751   2.843  -0.261   6.385 -0.9265 -0.4171 -0.3008
  121OSM    O1212752   2.616  -0.214   6.281 -0.1412 -0.7925  0.6592
  121OSM    C1S12753   2.804  -0.299   6.516 -0.4335  0.7016  1.2336
  121OSM    H1S12754   2.841  -0.402   6.540 -1.1789 -0.1244 -0.9142
  121OSM    H1T12755   2.695  -0.312   6.529 -0.7711  1.2674 -0.7352
  121OSM     NF12756   2.762  -0.207   6.745  0.2708 -0.2637  0.2681
  121OSM    HNF12757   2.703  -0.133   6.777 -0.8628 -1.0889  0.1471
  121OSM    C2S12758   2.844  -0.192   6.619  0.1765  0.1597 -0.0276
  121OSM    H2S12759   2.947  -0.204   6.657  1.3317  0.9988 -2.7116
  121OSM    C3S12760   2.833  -0.045   6.562  0.3179 -0.2296 -0.6187
  121OSM    H3S12761   2.730  -0.017   6.533  0.6949  0.3928 -1.3870
  121OSM     O312762   2.910  -0.010   6.451 -0.2535  0.2978  0.4522
  121OSM    HO312763   2.902  -0.093   6.404 -0.7618  0.1578  0.7815
  121OSM    C4S12764   2.866   0.043   6.678  0.0092  0.0645 -0.0810
  121OSM    H4S12765   2.771   0.071   6.726  0.6756  0.4349  1.0351
  121OSM    C5S12766   2.986   0.097   6.712  0.1551 -0.7469  0.0678
  121OSM    H5S12767   3.076   0.079   6.652 -0.4530 -0.0143 -1.0887
  121OSM    C6S12768   3.007   0.182   6.840 -0.5676 -0.7496 -0.3607
  121OSM    H6S12769   3.065   0.269   6.803  0.2294 -1.3116 -0.4605
  121OSM    H6T12770   3.081   0.120   6.895  0.1432  0.3602 -0.0254
  121OSM    C7S12771   2.886   0.213   6.914  0.2858  0.0443  0.1698
  121OSM    H7S12772   2.806   0.251   6.847  0.2524  1.9975  1.2291
  121OSM    H7T12773   2.899   0.305   6.976 -1.4521  0.9574 -0.7439
  121OSM    C8S12774   2.827   0.102   7.002 -0.2155  0.2804 -0.1209
  121OSM    H8S12775   2.825   0.013   6.936  2.8642  0.5536 -0.7166
  121OSM    H8T12776   2.731   0.130   7.051 -0.1772  2.6117 -1.2729
  121OSM    C9S12777   2.913   0.050   7.122  0.2773  0.6272 -0.4280
  121OSM    H9S12778   3.019   0.032   7.094  0.6940  2.1204  0.1072
  121OSM    H9T12779   2.864  -0.047   7.146  0.2847  0.4038 -1.2784
  121OSM   C10S12780   2.899   0.149   7.243  0.5938  0.1195  0.1900
  121OSM   H10S12781   2.790   0.158   7.262  0.2980 -0.9995 -0.8280
  121OSM   H10T12782   2.938   0.245   7.203  0.5796  1.2712  2.7950
  121OSM   C11S12783   2.971   0.099   7.368  0.5815  0.0052 -0.2592
  121OSM   H11S12784   3.078   0.088   7.341  0.2000  0.5847 -2.1683
  121OSM   H11T12785   2.942  -0.007   7.388  1.0042  0.0479  0.5849
  121OSM   C12S12786   2.969   0.182   7.497  0.2262 -0.1200 -0.5610
  121OSM   H12S12787   2.874   0.238   7.511 -0.9565 -1.9131 -0.9384
  121OSM   H12T12788   3.053   0.252   7.482  2.3870 -1.6468  3.2043
  121OSM   C13S12789   3.010   0.104   7.628 -0.3863 -0.0154  0.2585
  121OSM   H13S12790   3.053   0.008   7.594  2.3547  1.8355 -1.9576
  121OSM   H13T12791   2.923   0.100   7.697 -0.2931  1.8939  0.5339
  121OSM   C14S12792   3.133   0.170   7.701 -0.0438  0.4025  0.2203
  121OSM   H14S12793   3.094   0.266   7.739 -1.5974 -1.0479  2.5297
  121OSM   H14T12794   3.214   0.188   7.627  0.3429  1.3711  0.8635
  121OSM   C15S12795   3.203   0.078   7.810  0.2748 -0.5703 -0.1867
  121OSM   H15S12796   3.289   0.137   7.849 -0.2119 -0.3056  0.5156
  121OSM   H15T12797   3.240  -0.014   7.760  0.8548 -0.0748 -0.6859
  121OSM   C16S12798   3.095   0.050   7.925 -0.6608 -0.0520 -0.3516
  121OSM   H16S12799   3.125  -0.029   7.996 -1.3057 -0.9693 -1.0741
  121OSM   H16T12800   3.005   0.013   7.870 -0.1517  1.1218 -2.0512
  121OSM   C17S12801   3.051   0.172   8.011  0.3244  0.1470 -0.7350
  121OSM   H17S12802   2.999   0.249   7.949 -1.7506 -1.4229 -1.0590
  121OSM   H17T12803   3.137   0.224   8.058  1.1344 -2.3689  0.7668
  121OSM   C18S12804   2.959   0.137   8.127  0.3651 -0.1362  0.0411
  121OSM   H18S12805   2.863   0.094   8.091  0.9221 -0.4126 -1.1287
  121OSM   H18T12806   2.945   0.233   8.183  1.7148 -1.5981  3.1427
  121OSM   H18U12807   3.014   0.064   8.190  2.5008 -0.2973 -1.9191
  121OSM    C1F12808   2.770  -0.305   6.829 -0.2848 -0.8025  0.2498
  121OSM     OF12809   2.831  -0.408   6.799  0.5254  0.4034 -0.0096
  121OSM    C2F12810   2.698  -0.293   6.956 -0.1444  0.1390  0.4804
  121OSM    H2F12811   2.592  -0.275   6.928 -0.4590 -0.2337  1.3827
  121OSM    H2G12812   2.731  -0.205   7.016 -0.7134  1.0594 -0.5406
  121OSM    C3F12813   2.714  -0.409   7.046  0.2596 -0.4097 -0.2661
  121OSM    H3F12814   2.821  -0.437   7.050  0.4011 -0.2620 -2.1043
  121OSM    H3G12815   2.651  -0.480   6.988 -0.7003 -1.4781  1.9766
  121OSM    C4F12816   2.666  -0.384   7.188 -0.5137 -0.3950  0.5730
  121OSM    H4F12817   2.646  -0.483   7.234 -0.8205 -0.1767  0.9201
  121OSM    H4G12818   2.567  -0.333   7.187  0.0741  0.8655  2.0459
  121OSM    C5F12819   2.777  -0.316   7.270 -0.0799  0.3553  0.3186
  121OSM    H5F12820   2.790  -0.210   7.240 -2.2528  0.1538 -1.6460
  121OSM    H5G12821   2.878  -0.360   7.262 -0.3052 -0.0016 -0.7787
  121OSM    C6F12822   2.746  -0.322   7.427  0.0754 -0.1281  0.0570
  121OSM    H6F12823   2.725  -0.429   7.448  3.7880 -1.1672 -0.9212
  121OSM    H6G12824   2.656  -0.262   7.455  0.8838  1.8358 -1.3241
  121OSM    C7F12825   2.866  -0.268   7.511  0.1894 -0.8796  0.0942
  121OSM    H7F12826   2.865  -0.157   7.508  0.5422 -0.8819 -1.6294
  121OSM    H7G12827   2.957  -0.298   7.454  0.4804  1.6761 -0.9068
  121OSM    C8F12828   2.871  -0.317   7.651 -0.3564  0.9387  0.1844
  121OSM    H8F12829   2.873  -0.427   7.646 -1.8685  0.9336 -1.0895
  121OSM    H8G12830   2.792  -0.293   7.725 -0.1086  3.6129 -0.2981
  121OSM    C9F12831   2.998  -0.268   7.708  0.0660  0.7760 -0.4256
  121OSM    H9F12832   3.051  -0.189   7.653  0.5194  0.2791 -0.7170
  121OSM   C10F12833   3.051  -0.310   7.824 -0.6506  0.0108 -0.3905
  121OSM   H10F12834   3.155  -0.285   7.852  0.3324 -2.7291 -1.2228
  121OSM   C11F12835   2.987  -0.424   7.903  0.2850  0.1484  0.9180
  121OSM   H11F12836   3.071  -0.485   7.945  0.8263 -2.5141 -3.4626
  121OSM   H11G12837   2.930  -0.491   7.836  0.7384 -1.0789  1.7079
  121OSM   C12F12838   2.889  -0.384   8.022  0.0116  0.7917  0.0662
  121OSM   H12F12839   2.826  -0.475   8.035  2.0212 -0.8033 -0.7627
  121OSM   H12G12840   2.833  -0.290   8.004  0.2599  0.9425  0.0754
  121OSM   C13F12841   2.974  -0.347   8.149 -0.7955  0.0707  0.4154
  121OSM   H13F12842   3.047  -0.268   8.120 -0.3451  0.2375  1.9457
  121OSM   H13G12843   3.037  -0.436   8.173  2.4662  2.5021  1.5287
  121OSM   C14F12844   2.882  -0.283   8.249  0.1331 -1.0765  0.6401
  121OSM   H14F12845   2.796  -0.352   8.265 -0.8927 -0.3972 -1.5983
  121OSM   H14G12846   2.831  -0.187   8.226  3.2569  0.6218  0.2302
  121OSM   C15F12847   2.954  -0.254   8.382 -0.1229  0.1840  0.4728
  121OSM   H15F12848   3.060  -0.224   8.366 -0.8593  2.9714  0.1992
  121OSM   H15G12849   2.957  -0.352   8.433  3.4344  0.1152  0.3569
  121OSM   C16F12850   2.882  -0.153   8.481  0.1626  0.4138 -0.3563
  121OSM   H16F12851   2.780  -0.195   8.495  1.8630 -3.2675  2.8573
  121OSM   H16G12852   2.887  -0.050   8.441  2.1228  0.0009 -1.3134
  121OSM   C17F12853   2.950  -0.150   8.621  0.0287 -0.3845 -0.2689
  121OSM   H17F12854   3.058  -0.131   8.607  0.1165 -0.0244  0.7890
  121OSM   H17G12855   2.946  -0.249   8.672 -0.5895  0.3318  1.1645
  121OSM   C18F12856   2.906  -0.035   8.710  0.3922  0.3837  0.2695
  121OSM   H18F12857   2.795  -0.035   8.719  0.2947  0.9054 -0.8824
  121OSM   H18G12858   2.936   0.059   8.660  0.8053 -0.3689 -0.9197
  121OSM   H18H12859   2.942  -0.060   8.813 -0.7068 -1.4861  0.2486
  122OSM      N12860   1.353   0.508   5.874  0.3718  0.0002 -0.5268
  122OSM    C1512861   1.238   0.561   5.800  0.5722  0.0733 -0.2927
  122OSM   H15A12862   1.252   0.661   5.762  0.3274  0.6944  1.1866
  122OSM   H15B12863   1.156   0.563   5.871  2.4839  0.6137  2.0341
  122OSM   H15C12864   1.228   0.496   5.715  1.3022  0.9732 -1.0841
  122OSM    C1412865   1.315   0.368   5.914  0.3380  0.3711 -0.2732
  122OSM   H14A12866   1.399   0.322   5.964  0.8761  1.2608 -0.3344
  122OSM   H14B12867   1.283   0.316   5.825 -0.9433  0.5150  0.0931
  122OSM   H14C12868   1.233   0.354   5.983  0.0986 -1.4321 -0.8672
  122OSM    C1312869   1.466   0.499   5.774 -0.2333  0.5459 -0.0427
  122OSM   H13A12870   1.445   0.411   5.715 -1.5240 -0.2934  1.6213
  122OSM   H13B12871   1.558   0.485   5.829  0.0632  0.7292 -0.4783
  122OSM   H13C12872   1.488   0.579   5.704  0.8930 -0.1186 -0.4790
  122OSM    C1212873   1.389   0.589   5.995 -0.2208 -0.0407 -0.3374
  122OSM   H12A12874   1.430   0.683   5.961 -2.1132  1.4262  1.1454
  122OSM   H12B12875   1.466   0.534   6.047 -0.0879 -1.0069 -1.5195
  122OSM    C1112876   1.273   0.621   6.099 -0.0434 -0.3177  0.5220
  122OSM   H11A12877   1.238   0.521   6.132 -0.6141 -0.9541 -1.8146
  122OSM   H11B12878   1.187   0.667   6.046 -0.2666 -1.7100 -0.3687
  122OSM      P12879   1.337   0.860   6.153  0.4936 -0.3507 -0.0625
  122OSM    O1312880   1.472   0.892   6.091 -0.4194 -0.5942  0.3469
  122OSM    O1412881   1.211   0.897   6.076 -0.1988  0.0355  0.4646
  122OSM    O1112882   1.322   0.949   6.285  0.0472  0.5299 -0.2148
  122OSM    O1212883   1.324   0.712   6.204 -0.1965 -0.3966  0.3238
  122OSM    C1S12884   1.317   0.891   6.413  0.5394 -0.0893 -1.0335
  122OSM    H1S12885   1.369   0.792   6.417  0.8646  0.1293  0.8996
  122OSM    H1T12886   1.211   0.869   6.440  0.8210 -0.8390 -0.5113
  122OSM     NF12887   1.391   0.911   6.658  0.8942 -0.0866  0.0967
  122OSM    HNF12888   1.326   0.933   6.730 -0.4905 -3.0075 -0.1161
  122OSM    C2S12889   1.376   0.979   6.526 -0.1647  0.0160  0.2886
  122OSM    H2S12890   1.479   1.013   6.503 -0.4368  1.0909  0.6095
  122OSM    C3S12891   1.313   1.122   6.529 -0.6222  0.8576 -0.8018
  122OSM    H3S12892   1.205   1.114   6.553 -0.0837 -3.4742  1.1300
  122OSM     O312893   1.314   1.177   6.402 -0.3959 -0.1160  0.1415
  122OSM    HO312894   1.350   1.110   6.343  1.7433  0.6877  0.4272
  122OSM    C4S12895   1.390   1.217   6.624  0.0486  0.5088 -0.6025
  122OSM    H4S12896   1.500   1.212   6.612 -0.0325  1.5038 -2.0305
  122OSM    C5S12897   1.333   1.304   6.713  0.5354 -0.6181  0.2186
  122OSM    H5S12898   1.226   1.327   6.698  1.2062  2.1755 -0.9138
  122OSM    C6S12899   1.406   1.399   6.800 -0.2862 -1.6803 -0.3433
  122OSM    H6S12900   1.361   1.500   6.814  1.4483 -0.8263 -0.5960
  122OSM    H6T12901   1.508   1.420   6.761 -0.6985  0.3399 -0.4242
  122OSM    C7S12902   1.434   1.339   6.937 -0.2147  0.5343  0.2557
  122OSM    H7S12903   1.495   1.248   6.918  3.8057  2.3878  2.8351
  122OSM    H7T12904   1.338   1.304   6.980  1.1376 -4.1507  0.0240
  122OSM    C8S12905   1.507   1.431   7.046  0.0030  0.3902 -0.2004
  122OSM    H8S12906   1.433   1.511   7.066 -3.6866 -3.1310  1.9437
  122OSM    H8T12907   1.607   1.465   7.011  0.1348  2.3646  1.8556
  122OSM    C9S12908   1.519   1.362   7.185  0.4025  0.5277 -0.2886
  122OSM    H9S12909   1.603   1.289   7.189  0.5273  0.7083  0.4686
  122OSM    H9T12910   1.425   1.306   7.204 -0.5233  1.2885 -2.2664
  122OSM   C10S12911   1.520   1.464   7.303  0.5470 -0.3206 -0.0494
  122OSM   H10S12912   1.438   1.538   7.298  0.7104 -0.1943 -1.5189
  122OSM   H10T12913   1.611   1.527   7.287  1.1390 -1.3323 -0.8501
  122OSM   C11S12914   1.563   1.420   7.444 -0.0758 -0.0752  1.0548
  122OSM   H11S12915   1.663   1.372   7.444 -0.2049 -0.4275 -0.7388
  122OSM   H11T12916   1.495   1.335   7.465 -0.5314 -0.2196 -0.8047
  122OSM   C12S12917   1.561   1.542   7.538  0.3246 -0.5278 -0.4295
  122OSM   H12S12918   1.468   1.602   7.550  1.8676  1.4535  2.9237
  122OSM   H12T12919   1.638   1.610   7.497  1.0600  0.8714  2.9271
  122OSM   C13S12920   1.597   1.506   7.683 -0.1162  0.0610 -0.3920
  122OSM   H13S12921   1.599   1.607   7.730  2.0533  1.5865 -3.3984
  122OSM   H13T12922   1.696   1.460   7.704  0.5178  1.3620 -0.4612
  122OSM   C14S12923   1.496   1.415   7.743  0.3355 -1.0710 -0.2290
  122OSM   H14S12924   1.493   1.317   7.691  0.4692 -0.0662 -2.2506
  122OSM   H14T12925   1.395   1.454   7.721  1.7980  3.7589  0.4373
  122OSM   C15S12926   1.523   1.396   7.896  0.0722  0.3871 -0.6876
  122OSM   H15S12927   1.632   1.377   7.906  0.4673  2.2659 -0.9450
  122OSM   H15T12928   1.457   1.313   7.928 -0.5033  0.8179 -0.7466
  122OSM   C16S12929   1.478   1.509   7.986 -0.1730  0.4322 -0.6096
  122OSM   H16S12930   1.380   1.558   7.966 -0.4148  0.4987  0.5995
  122OSM   H16T12931   1.545   1.592   7.956  1.4716 -1.0684 -1.2516
  122OSM   C17S12932   1.507   1.469   8.134  0.7026 -0.3425 -0.6084
  122OSM   H17S12933   1.617   1.460   8.145  0.7158  1.0423  0.6588
  122OSM   H17T12934   1.459   1.374   8.166  1.7296 -1.1854 -1.5027
  122OSM   C18S12935   1.450   1.580   8.233 -0.2332 -0.0226  0.4237
  122OSM   H18S12936   1.340   1.572   8.243 -0.2259  0.9766  1.5665
  122OSM   H18T12937   1.470   1.684   8.198 -0.2305 -0.4194 -0.8049
  122OSM   H18U12938   1.490   1.557   8.334 -1.4104 -1.5133  0.5861
  122OSM    C1F12939   1.478   0.810   6.674 -0.3612  0.0392 -0.7216
  122OSM     OF12940   1.553   0.775   6.581  0.0133  0.2241  0.1105
  122OSM    C2F12941   1.473   0.734   6.809 -0.4860 -0.2259  0.0995
  122OSM    H2F12942   1.369   0.720   6.843 -1.0380  0.7473 -1.1052
  122OSM    H2G12943   1.527   0.803   6.877 -1.4465  0.4764  0.1629
  122OSM    C3F12944   1.540   0.593   6.802 -0.1283  0.1672  0.2665
  122OSM    H3F12945   1.647   0.606   6.778 -0.3318 -0.0506 -0.7973
  122OSM    H3G12946   1.498   0.521   6.728  0.6593 -0.4700  0.4257
  122OSM    C4F12947   1.540   0.528   6.945  0.6783  0.9356  0.2917
  122OSM    H4F12948   1.583   0.425   6.941 -1.3542  0.0516 -1.5817
  122OSM    H4G12949   1.438   0.501   6.980  1.0094 -1.1153 -0.1838
  122OSM    C5F12950   1.597   0.611   7.056  0.4516 -0.0071 -0.2978
  122OSM    H5F12951   1.546   0.708   7.068 -0.5371 -0.7421  2.0777
  122OSM    H5G12952   1.698   0.639   7.018  0.7843 -2.0943 -1.1501
  122OSM    C6F12953   1.601   0.534   7.193  0.4589 -0.9501 -0.6279
  122OSM    H6F12954   1.661   0.442   7.179  2.0235 -0.0865  0.1497
  122OSM    H6G12955   1.500   0.495   7.217  0.3465 -0.4621 -0.2822
  122OSM    C7F12956   1.639   0.625   7.308 -0.4325 -0.3004  0.3373
  122OSM    H7F12957   1.562   0.705   7.313 -0.0475  0.0893  0.0597
  122OSM    H7G12958   1.730   0.685   7.286 -2.1259  2.2080 -0.1531
  122OSM    C8F12959   1.629   0.573   7.456 -0.0326 -0.2140 -0.7876
  122OSM    H8F12960   1.525   0.533   7.462  0.2555 -0.8572  0.0723
  122OSM    H8G12961   1.641   0.658   7.526  0.1160  1.5441 -2.8607
  122OSM    C9F12962   1.719   0.453   7.487  0.0816 -0.2588  1.0952
  122OSM    H9F12963   1.754   0.405   7.394  0.9276  2.5727 -0.1632
  122OSM   C10F12964   1.740   0.399   7.611  0.8721  0.5842  0.4308
  122OSM   H10F12965   1.801   0.310   7.634  1.6160  1.4816  2.0979
  122OSM   C11F12966   1.673   0.455   7.739  0.0899 -0.0345 -0.2697
  122OSM   H11F12967   1.614   0.376   7.791 -1.1614  0.0553 -1.5041
  122OSM   H11G12968   1.611   0.547   7.726 -0.6850 -0.0565  2.5457
  122OSM   C12F12969   1.778   0.486   7.840 -0.5997  0.0742  0.0816
  122OSM   H12F12970   1.841   0.565   7.792 -1.7098  0.9831  0.0754
  122OSM   H12G12971   1.848   0.406   7.873 -1.1111 -0.2671  0.3407
  122OSM   C13F12972   1.727   0.537   7.974  0.7049 -0.6544 -0.0331
  122OSM   H13F12973   1.681   0.448   8.021 -2.0681  0.2139 -0.9375
  122OSM   H13G12974   1.652   0.618   7.963  2.6342  1.3086  0.4674
  122OSM   C14F12975   1.841   0.575   8.068  0.3366 -0.5130 -0.8169
  122OSM   H14F12976   1.901   0.661   8.032 -0.5831  1.0253  1.0979
  122OSM   H14G12977   1.907   0.486   8.079  0.1124 -0.4852  1.2182
  122OSM   C15F12978   1.809   0.613   8.213  0.7932 -0.0023  0.1496
  122OSM   H15F12979   1.744   0.703   8.216  1.4069  0.4749 -0.6118
  122OSM   H15G12980   1.902   0.639   8.267 -0.1405  1.2929  1.1979
  122OSM   C16F12981   1.749   0.492   8.284 -0.1737 -0.9601  0.0387
  122OSM   H16F12982   1.787   0.402   8.231  2.4735  0.0864  0.0272
  122OSM   H16G12983   1.641   0.494   8.257  0.0308  0.4849 -0.7733
  122OSM   C17F12984   1.783   0.483   8.434  0.4401 -0.4153  0.2963
  122OSM   H17F12985   1.887   0.463   8.468  0.7083  0.3129 -0.0831
  122OSM   H17G12986   1.735   0.389   8.469 -2.3722  0.4164 -0.9702
  122OSM   C18F12987   1.717   0.602   8.505 -0.3081  1.0531  0.4084
  122OSM   H18F12988   1.773   0.697   8.497 -2.1087  2.3525  2.0730
  122OSM   H18G12989   1.709   0.561   8.609  1.3072 -0.6262 -0.0686
  122OSM   H18H12990   1.619   0.623   8.458  0.9695  3.3600 -1.4207
  123OSM      N12991   0.156   5.380   6.404  0.3940 -0.0699  0.3571
  123OSM    C1512992   0.198   5.268   6.308 -1.2368 -0.3993 -0.0235
  123OSM   H15A12993   0.301   5.244   6.327 -1.9548 -2.1386  2.2097
  123OSM   H15B12994   0.193   5.292   6.203  2.6095 -2.4386 -0.8654
  123OSM   H15C12995   0.144   5.178   6.335 -1.1335 -0.8433 -1.2651
  123OSM    C1412996   0.235   5.511   6.377  0.4107  0.6367  0.6270
  123OSM   H14A12997   0.220   5.582   6.457 -0.6053  0.1332  0.9031
  123OSM   H14B12998   0.214   5.553   6.279 -1.6614  1.2149  1.2717
  123OSM   H14C12999   0.342   5.500   6.369  0.4562  1.4680 -0.1099
  123OSM    C1313000   0.012   5.417   6.376  0.3900 -0.1286  0.5924
  123OSM   H13A13001  -0.021   5.493   6.445 -1.5887 -0.3588 -0.0366
  123OSM   H13B13002  -0.063   5.341   6.363 -0.4460  0.5966  1.0510
  123OSM   H13C13003  -0.005   5.465   6.280 -2.7673  0.6981  1.4512
  123OSM    C1213004   0.165   5.332   6.548  0.3425 -0.5522  0.4572
  123OSM   H12A13005   0.147   5.412   6.619 -0.9190  0.3016 -0.7899
  123OSM   H12B13006   0.268   5.300   6.552  0.8452  0.9598  0.2159
  123OSM    C1113007   0.069   5.212   6.585  0.0535 -0.4745 -0.2788
  123OSM   H11A13008   0.108   5.155   6.671 -0.7483  1.2910  1.3197
  123OSM   H11B13009   0.072   5.141   6.500 -0.2690  1.7476 -2.2784
  123OSM      P13010  -0.188   5.168   6.609 -0.6201 -0.0936 -0.0048
  123OSM    O1313011  -0.303   5.254   6.647  0.1962  0.2007  0.1133
  123OSM    O1413012  -0.202   5.107   6.472  0.6734 -0.2216 -0.2235
  123OSM    O1113013  -0.153   5.053   6.715 -0.4778 -0.4337  0.0031
  123OSM    O1213014  -0.065   5.256   6.605  0.1447  0.3592  0.0134
  123OSM    C1S13015  -0.098   5.078   6.842  0.6250  0.1854  0.0277
  123OSM    H1S13016  -0.077   5.183   6.868 -0.1439  0.1140  0.9905
  123OSM    H1T13017   0.001   5.029   6.846 -0.3733 -1.8755  1.3321
  123OSM     NF13018  -0.123   5.060   7.083  0.6100  0.5365 -0.2232
  123OSM    HNF13019  -0.082   4.983   7.133 -0.5462 -0.7888 -1.2188
  123OSM    C2S13020  -0.192   5.023   6.957 -0.3640 -0.5186 -0.1091
  123OSM    H2S13021  -0.289   5.078   6.956 -0.0245  0.1877  1.6348
  123OSM    C3S13022  -0.214   4.868   6.942  0.3551 -0.3161 -0.0151
  123OSM    H3S13023  -0.116   4.819   6.962 -0.2187 -1.0743  1.0381
  123OSM     O313024  -0.270   4.819   6.822 -0.3802  0.1894  0.0454
  123OSM    HO313025  -0.253   4.882   6.751 -1.4532 -0.2731 -0.6514
  123OSM    C4S13026  -0.301   4.829   7.056 -0.0895 -0.0046 -0.5167
  123OSM    H4S13027  -0.251   4.811   7.152 -0.6284 -0.9576 -0.4024
  123OSM    C5S13028  -0.433   4.844   7.049 -0.1066 -0.3952 -0.6408
  123OSM    H5S13029  -0.471   4.897   6.960 -1.3943  1.4280  0.8995
  123OSM    C6S13030  -0.526   4.802   7.159  0.1952 -0.1422 -0.6490
  123OSM    H6S13031  -0.565   4.700   7.139 -1.6894  0.5505 -0.6906
  123OSM    H6T13032  -0.614   4.869   7.158  1.2520  1.2998 -0.9133
  123OSM    C7S13033  -0.452   4.807   7.301  0.6555 -0.6473 -0.1590
  123OSM    H7S13034  -0.392   4.899   7.316  0.4749 -0.8215  1.8970
  123OSM    H7T13035  -0.382   4.721   7.312 -0.7658 -2.0305 -1.3955
  123OSM    C8S13036  -0.553   4.795   7.413 -0.5009 -0.0526  0.0293
  123OSM    H8S13037  -0.591   4.691   7.405  1.3807 -0.6516 -1.6497
  123OSM    H8T13038  -0.644   4.853   7.386 -1.7373 -0.7000  2.5073
  123OSM    C9S13039  -0.484   4.829   7.549 -0.1663 -0.5295 -0.3731
  123OSM    H9S13040  -0.467   4.939   7.545 -0.6896 -0.4029  0.4576
  123OSM    H9T13041  -0.391   4.770   7.563  0.1227 -0.2174 -0.9882
  123OSM   C10S13042  -0.572   4.804   7.675  0.2775 -0.0396 -0.2154
  123OSM   H10S13043  -0.591   4.695   7.672  1.7975 -0.3227 -0.4245
  123OSM   H10T13044  -0.669   4.857   7.664  0.4521  0.5677  1.0103
  123OSM   C11S13045  -0.499   4.825   7.808  0.1344 -0.6719  0.2192
  123OSM   H11S13046  -0.478   4.933   7.817 -2.9938 -0.1212  2.5093
  123OSM   H11T13047  -0.404   4.768   7.802 -0.1959 -1.0751 -2.9666
  123OSM   C12S13048  -0.598   4.805   7.926  0.4781  0.0928  0.5309
  123OSM   H12S13049  -0.644   4.706   7.902 -0.6408  0.6957  0.1431
  123OSM   H12T13050  -0.677   4.883   7.933  0.4671  0.0720  0.6608
  123OSM   C13S13051  -0.520   4.798   8.059 -0.2961  0.4259 -0.4456
  123OSM   H13S13052  -0.500   4.902   8.094 -0.2228  0.5489 -0.8554
  123OSM   H13T13053  -0.423   4.743   8.057  0.2421  1.3292  0.1116
  123OSM   C14S13054  -0.608   4.731   8.164  0.2197 -0.0819  0.9962
  123OSM   H14S13055  -0.651   4.637   8.122 -1.2760  1.3211 -0.7270
  123OSM   H14T13056  -0.691   4.804   8.170  0.6148  1.0181 -3.4991
  123OSM   C15S13057  -0.534   4.694   8.292  0.4839  0.0091  0.3849
  123OSM   H15S13058  -0.458   4.772   8.317  3.6028 -2.1865 -1.5553
  123OSM   H15T13059  -0.474   4.604   8.266  0.8892  0.3640  0.0758
  123OSM   C16S13060  -0.620   4.655   8.416  0.3607 -0.4612  0.1116
  123OSM   H16S13061  -0.670   4.557   8.402  0.2174 -0.4169  0.3075
  123OSM   H16T13062  -0.696   4.734   8.433  0.2596 -0.5083 -0.1267
  123OSM   C17S13063  -0.533   4.650   8.547  0.7236  0.3242  0.1569
  123OSM   H17S13064  -0.477   4.745   8.561  0.7879 -0.0095  2.5385
  123OSM   H17T13065  -0.455   4.572   8.529 -0.0190 -0.2609 -0.6085
  123OSM   C18S13066  -0.624   4.614   8.668 -0.2091 -0.1576  0.2017
  123OSM   H18S13067  -0.696   4.538   8.629  1.3415 -0.4456 -2.3215
  123OSM   H18T13068  -0.676   4.699   8.717 -2.4040 -3.0427  3.3564
  123OSM   H18U13069  -0.554   4.570   8.742 -0.7436 -1.8123 -0.2271
  123OSM    C1F13070  -0.126   5.181   7.133 -0.2423  0.2953 -0.6661
  123OSM     OF13071  -0.204   5.263   7.083 -0.4978 -0.0829  0.0116
  123OSM    C2F13072  -0.028   5.215   7.249  0.1228  0.6378  0.0251
  123OSM    H2F13073   0.050   5.137   7.243 -1.9226 -1.4331 -1.6411
  123OSM    H2G13074  -0.077   5.209   7.348 -1.9113  2.2185 -0.8092
  123OSM    C3F13075   0.013   5.362   7.239 -0.1201 -0.1953  0.8278
  123OSM    H3F13076  -0.071   5.421   7.281  0.1336  0.1621  0.8430
  123OSM    H3G13077   0.034   5.404   7.139  0.4644 -0.6603  0.7491
  123OSM    C4F13078   0.136   5.399   7.321 -0.0090  0.2792  0.7241
  123OSM    H4F13079   0.229   5.355   7.279  0.3971  1.4995  0.3194
  123OSM    H4G13080   0.120   5.356   7.423 -3.6589 -3.6121 -1.1515
  123OSM    C5F13081   0.155   5.552   7.335 -0.3397 -0.1177 -0.0621
  123OSM    H5F13082   0.184   5.597   7.237  1.0366 -2.9370 -1.0551
  123OSM    H5G13083   0.240   5.560   7.405  0.7421  2.9871 -1.5305
  123OSM    C6F13084   0.033   5.628   7.398  0.7888 -0.8386  0.2612
  123OSM    H6F13085  -0.050   5.625   7.323 -1.0728  0.4009  2.1708
  123OSM    H6G13086   0.058   5.736   7.403 -0.0934 -0.6626  1.0423
  123OSM    C7F13087  -0.014   5.578   7.533 -0.2719  0.1128 -0.2024
  123OSM    H7F13088   0.080   5.589   7.591  0.2047  1.5959 -1.2071
  123OSM    H7G13089  -0.035   5.469   7.536  1.6118 -0.2603  1.5851
  123OSM    C8F13090  -0.133   5.655   7.586  0.3646 -0.0814 -0.1528
  123OSM    H8F13091  -0.215   5.640   7.513  1.0311  0.3474 -0.9997
  123OSM    H8G13092  -0.106   5.762   7.578  0.7425 -0.1149  0.5669
  123OSM    C9F13093  -0.192   5.604   7.721 -0.2430 -0.1491  0.7916
  123OSM    H9F13094  -0.273   5.532   7.707  0.2464 -0.3330 -1.5532
  123OSM   C10F13095  -0.161   5.656   7.835  0.0288  0.6629 -0.6221
  123OSM   H10F13096  -0.213   5.608   7.920  2.5139 -0.2655  0.4516
  123OSM   C11F13097  -0.079   5.776   7.871  0.2996 -0.0329 -0.0239
  123OSM   H11F13098  -0.104   5.819   7.971 -0.8709 -1.1475  0.1986
  123OSM   H11G13099  -0.086   5.859   7.798 -0.6073 -0.8770 -0.9389
  123OSM   C12F13100   0.079   5.756   7.876  0.3504 -0.0401 -0.4170
  123OSM   H12F13101   0.141   5.847   7.862  1.6447 -0.8526 -0.1612
  123OSM   H12G13102   0.102   5.694   7.786 -0.0158  0.2230 -0.6955
  123OSM   C13F13103   0.129   5.682   8.006  0.6487 -0.2212  0.9068
  123OSM   H13F13104   0.221   5.623   7.987  1.9766  1.6143  1.3349
  123OSM   H13G13105   0.042   5.615   8.025 -1.0031  2.0394  1.8444
  123OSM   C14F13106   0.162   5.784   8.111  0.5480  0.2434  0.0337
  123OSM   H14F13107   0.063   5.819   8.147 -0.6215 -1.4136 -1.4186
  123OSM   H14G13108   0.227   5.866   8.072  3.0885 -2.4948 -1.9534
  123OSM   C15F13109   0.222   5.730   8.243  0.6163 -0.2974  0.0293
  123OSM   H15F13110   0.143   5.661   8.278  0.5559  0.1497  0.8025
  123OSM   H15G13111   0.227   5.811   8.319 -0.5156  1.2193 -1.4335
  123OSM   C16F13112   0.364   5.678   8.223  0.8124  0.0361  0.1795
  123OSM   H16F13113   0.424   5.767   8.195  2.2979 -0.1319  2.4819
  123OSM   H16G13114   0.365   5.605   8.140  0.6207 -1.8905  1.7971
  123OSM   C17F13115   0.426   5.609   8.342  0.0066  0.1916  0.0928
  123OSM   H17F13116   0.353   5.528   8.363 -0.0154 -0.3260 -1.8414
  123OSM   H17G13117   0.441   5.675   8.430  0.0388 -0.7984  0.8610
  123OSM   C18F13118   0.558   5.537   8.305  0.6125  0.2038 -0.0514
  123OSM   H18F13119   0.581   5.453   8.373  0.6345  1.1074  1.0831
  123OSM   H18G13120   0.631   5.620   8.297 -0.6568  1.3542 -0.1140
  123OSM   H18H13121   0.554   5.496   8.202  3.0789 -2.2368  0.7217
  124OSM      N13122   0.756   0.815   6.377 -0.4280  1.2576  0.0298
  124OSM    C1513123   0.889   0.868   6.405  0.4038  0.4901 -0.1710
  124OSM   H15A13124   0.896   0.975   6.404 -1.4979  0.6857  1.6096
  124OSM   H15B13125   0.960   0.829   6.334  1.9487  1.4967  0.7662
  124OSM   H15C13126   0.918   0.833   6.503 -1.4101 -0.0121  0.2172
  124OSM    C1413127   0.756   0.671   6.409 -0.0237  0.6560  0.0206
  124OSM   H14A13128   0.828   0.610   6.356 -0.5945  0.4064 -0.4756
  124OSM   H14B13129   0.656   0.637   6.386  0.1633  1.1608 -1.6835
  124OSM   H14C13130   0.768   0.665   6.516 -1.6041 -0.3748  0.1758
  124OSM    C1313131   0.659   0.873   6.473 -0.2817 -0.2187 -0.8257
  124OSM   H13A13132   0.563   0.825   6.456 -0.6488  0.6508 -1.2784
  124OSM   H13B13133   0.660   0.981   6.468 -0.1123 -0.1977 -0.2933
  124OSM   H13C13134   0.676   0.840   6.574 -1.0442 -0.4876 -0.7766
  124OSM    C1213135   0.716   0.849   6.236  0.2339  0.4434  0.0687
  124OSM   H12A13136   0.777   0.789   6.169  2.3089  2.5272 -0.0546
  124OSM   H12B13137   0.742   0.948   6.201 -0.9068  0.5529 -0.5085
  124OSM    C1113138   0.568   0.841   6.195 -0.2822  0.0909  0.4399
  124OSM   H11A13139   0.555   0.872   6.089  0.2747 -0.1068  0.3107
  124OSM   H11B13140   0.510   0.911   6.259 -0.2360  0.2080  0.3526
  124OSM      P13141   0.386   0.653   6.221  0.0172  0.1972  0.4848
  124OSM    O1313142   0.303   0.735   6.128  0.5015  0.5511  0.0138
  124OSM    O1413143   0.384   0.504   6.216  0.2140 -0.2008  0.0565
  124OSM    O1113144   0.357   0.705   6.370  0.0674  0.1111  0.1564
  124OSM    O1213145   0.528   0.703   6.201 -0.4221  0.8465  0.5829
  124OSM    C1S13146   0.386   0.625   6.487 -0.2399 -0.4573 -0.4208
  124OSM    H1S13147   0.495   0.604   6.481 -0.2541 -0.2501 -2.0754
  124OSM    H1T13148   0.333   0.527   6.493  2.7078 -2.1632 -0.3625
  124OSM     NF13149   0.405   0.617   6.744  0.3938 -0.7377  0.0383
  124OSM    HNF13150   0.348   0.555   6.797 -0.9544  0.1652 -0.3036
  124OSM    C2S13151   0.354   0.693   6.623  0.4940 -0.1097 -0.9128
  124OSM    H2S13152   0.404   0.792   6.621  0.4816 -0.0648  0.3887
  124OSM    C3S13153   0.197   0.719   6.623 -0.7522  0.5316  0.5492
  124OSM    H3S13154   0.150   0.619   6.613  0.6295 -0.3910  2.5602
  124OSM     O313155   0.147   0.805   6.517  0.1014 -0.6306 -0.2015
  124OSM    HO313156   0.222   0.834   6.464 -0.4356  3.6860  0.9957
  124OSM    C4S13157   0.164   0.777   6.755 -0.0117  0.1982 -0.1207
  124OSM    H4S13158   0.225   0.863   6.787  0.9916 -0.3285 -0.5728
  124OSM    C5S13159   0.060   0.740   6.829  0.3607  0.1641 -0.3377
  124OSM    H5S13160  -0.020   0.677   6.787 -0.3173  1.9214 -1.7817
  124OSM    C6S13161   0.031   0.798   6.966 -0.5767  0.1306  0.3109
  124OSM    H6S13162  -0.077   0.825   6.968 -0.6333  0.5102 -2.6834
  124OSM    H6T13163   0.097   0.884   6.989 -0.7684  0.5429 -0.6504
  124OSM    C7S13164   0.057   0.691   7.079  0.0011  0.8566  0.2721
  124OSM    H7S13165   0.166   0.669   7.073 -0.4630 -2.0910  0.7138
  124OSM    H7T13166   0.013   0.589   7.074  1.3900  0.2456 -0.2623
  124OSM    C8S13167   0.020   0.742   7.219  0.5035  0.7355  0.4640
  124OSM    H8S13168  -0.088   0.768   7.224 -0.0737 -1.2807 -0.5126
  124OSM    H8T13169   0.060   0.844   7.238 -0.7588  1.2452  0.5369
  124OSM    C9S13170   0.056   0.652   7.335 -0.6582 -0.3525  0.8715
  124OSM    H9S13171   0.166   0.639   7.334 -0.5749 -0.0276  2.7370
  124OSM    H9T13172   0.005   0.554   7.322  0.2064 -0.5754 -1.2765
  124OSM   C10S13173   0.017   0.711   7.471  0.2474 -0.1673  0.5960
  124OSM   H10S13174  -0.090   0.689   7.491  0.7587 -1.8227  1.6766
  124OSM   H10T13175   0.022   0.822   7.467 -0.5142 -0.1569 -1.7825
  124OSM   C11S13176   0.079   0.660   7.598  0.6599  0.3272  0.2462
  124OSM   H11S13177   0.188   0.678   7.592  0.7166 -0.4240 -1.5941
  124OSM   H11T13178   0.054   0.552   7.603 -1.6435  0.8183  0.4701
  124OSM   C12S13179   0.023   0.717   7.727  0.5255  0.6275 -0.7145
  124OSM   H12S13180  -0.080   0.677   7.738 -0.6338  3.1223 -1.5663
  124OSM   H12T13181   0.013   0.827   7.715  1.9985  0.8042 -0.5348
  124OSM   C13S13182   0.106   0.680   7.846 -0.0908 -0.2071  0.6263
  124OSM   H13S13183   0.207   0.722   7.826 -1.6131  3.2327 -0.6912
  124OSM   H13T13184   0.120   0.570   7.840  1.3658  0.0247 -0.8893
  124OSM   C14S13185   0.064   0.737   7.979  0.7662  0.2845  0.0195
  124OSM   H14S13186  -0.026   0.690   8.024 -0.3360  1.9080 -0.4209
  124OSM   H14T13187   0.037   0.844   7.974  3.6594  1.0463 -2.1526
  124OSM   C15S13188   0.169   0.721   8.086  0.2246 -0.0382  0.5099
  124OSM   H15S13189   0.261   0.775   8.055 -0.2775  0.5934  0.1027
  124OSM   H15T13190   0.207   0.617   8.094  0.6310  0.1550  1.0913
  124OSM   C16S13191   0.118   0.780   8.223  0.3338 -0.4720  0.3694
  124OSM   H16S13192   0.018   0.738   8.245 -0.8957  2.5991  1.2223
  124OSM   H16T13193   0.094   0.888   8.232  1.4720 -0.2498  0.8382
  124OSM   C17S13194   0.214   0.734   8.333  0.0987  0.2920 -0.4467
  124OSM   H17S13195   0.312   0.770   8.295 -0.4791  0.4557 -1.8656
  124OSM   H17T13196   0.217   0.623   8.342  1.8799  0.0693 -2.8673
  124OSM   C18S13197   0.190   0.786   8.475 -0.1302  0.1024  0.1636
  124OSM   H18S13198   0.079   0.780   8.484 -0.6412  2.6156 -2.7228
  124OSM   H18T13199   0.223   0.891   8.486  0.5928  0.0101 -0.9269
  124OSM   H18U13200   0.240   0.719   8.548 -0.4945  2.5912  2.8734
  124OSM    C1F13201   0.532   0.615   6.767 -0.2919 -0.1224 -1.3814
  124OSM     OF13202   0.619   0.681   6.709  0.0567  0.3786  0.5932
  124OSM    C2F13203   0.572   0.512   6.864  0.2449 -0.6090 -0.1166
  124OSM    H2F13204   0.682   0.500   6.849  0.1891  0.2743 -1.4707
  124OSM    H2G13205   0.527   0.414   6.840  1.4871 -0.9189 -1.3527
  124OSM    C3F13206   0.548   0.554   7.014 -0.1929 -0.0987 -0.2878
  124OSM    H3F13207   0.583   0.478   7.088  1.4887 -0.7719 -1.7006
  124OSM    H3G13208   0.438   0.564   7.018 -0.0509  2.2242 -1.2408
  124OSM    C4F13209   0.610   0.690   7.053 -0.4568  0.2781 -0.4629
  124OSM    H4F13210   0.563   0.715   7.151  0.7969  0.9573 -0.0104
  124OSM    H4G13211   0.580   0.764   6.976  0.2279 -0.1880 -1.1916
  124OSM    C5F13212   0.765   0.687   7.068 -0.4647  0.6152 -0.1993
  124OSM    H5F13213   0.805   0.786   7.036 -0.8372  1.8853  2.8985
  124OSM    H5G13214   0.826   0.617   7.007 -1.4093 -0.1201 -0.3186
  124OSM    C6F13215   0.818   0.681   7.219  0.3281 -0.0116 -0.3133
  124OSM    H6F13216   0.783   0.772   7.271  1.4706  0.7839 -0.8979
  124OSM    H6G13217   0.929   0.686   7.217  0.2942  0.4791 -1.1366
  124OSM    C7F13218   0.766   0.553   7.284 -0.3779  0.5455 -0.1685
  124OSM    H7F13219   0.811   0.480   7.214  0.1787  0.5758  0.1475
  124OSM    H7G13220   0.655   0.548   7.283 -0.4321  0.0686  2.1284
  124OSM    C8F13221   0.818   0.510   7.425 -0.4846 -0.0297 -0.7882
  124OSM    H8F13222   0.926   0.537   7.426 -0.9855  2.2871  0.6182
  124OSM    H8G13223   0.808   0.400   7.433 -0.6923 -0.0518 -1.3206
  124OSM    C9F13224   0.760   0.583   7.539  0.0350 -0.3358  0.0134
  124OSM    H9F13225   0.688   0.662   7.513 -0.7672 -1.4168 -1.1874
  124OSM   C10F13226   0.803   0.569   7.664  0.4344  0.1906  0.0750
  124OSM   H10F13227   0.752   0.625   7.743  1.7420 -0.0764  1.1399
  124OSM   C11F13228   0.911   0.466   7.707 -0.9078  0.3156 -1.1259
  124OSM   H11F13229   1.005   0.521   7.729  0.3230 -1.5946 -1.2812
  124OSM   H11G13230   0.941   0.405   7.619  2.2162  1.8978 -1.3156
  124OSM   C12F13231   0.894   0.387   7.837  0.5046 -0.4636 -0.8429
  124OSM   H12F13232   0.986   0.324   7.837  2.1892  1.8303  0.4618
  124OSM   H12G13233   0.801   0.327   7.829  0.1558 -0.0534  0.0338
  124OSM   C13F13234   0.901   0.467   7.967 -0.0504  0.0328 -0.0789
  124OSM   H13F13235   0.806   0.518   7.994 -1.6935 -4.4223  4.1767
  124OSM   H13G13236   0.980   0.544   7.954  0.9326 -1.1865 -1.8926
  124OSM   C14F13237   0.940   0.378   8.090 -0.0423  0.4207  0.0279
  124OSM   H14F13238   1.037   0.326   8.078  1.2025  2.5845  0.1031
  124OSM   H14G13239   0.863   0.299   8.092 -1.0521  1.3542 -0.7687
  124OSM   C15F13240   0.949   0.444   8.223  0.1360 -0.6307 -0.1065
  124OSM   H15F13241   0.855   0.502   8.236  0.4355  0.1224 -1.1508
  124OSM   H15G13242   1.037   0.511   8.216  0.5198 -1.0873  0.2998
  124OSM   C16F13243   0.969   0.347   8.342  0.7366  0.4487  0.9373
  124OSM   H16F13244   1.055   0.281   8.319 -1.7200 -2.1562 -1.5854
  124OSM   H16G13245   0.888   0.271   8.343  0.1768  0.9242 -1.6337
  124OSM   C17F13246   0.974   0.417   8.476  0.3802  0.4780 -0.6523
  124OSM   H17F13247   0.975   0.333   8.548  1.4845 -1.2003 -2.5199
  124OSM   H17G13248   0.879   0.474   8.481  1.6633  2.8619 -1.3503
  124OSM   C18F13249   1.086   0.518   8.492 -0.0408  0.1625  0.3639
  124OSM   H18F13250   1.184   0.472   8.468 -0.5024  0.3848 -2.2029
  124OSM   H18G13251   1.087   0.552   8.598  0.1590  0.6932  0.1961
  124OSM   H18H13252   1.083   0.603   8.421  1.7292  1.5687  1.8731
  125OSM      N13253   3.211   6.554   6.228  0.0455 -0.7088  0.7522
  125OSM    C1513254   3.243   6.653   6.337  0.0255  0.2207 -0.8369
  125OSM   H15A13255   3.293   6.615   6.425  1.3665  2.2174 -0.6813
  125OSM   H15B13256   3.151   6.695   6.376 -0.3583 -1.2642 -0.0546
  125OSM   H15C13257   3.294   6.741   6.301  0.1262  1.4216  1.9895
  125OSM    C1413258   3.140   6.627   6.121 -0.6388 -0.7852  1.1901
  125OSM   H14A13259   3.128   6.558   6.038  1.6786  0.0943  0.0336
  125OSM   H14B13260   3.189   6.714   6.081 -0.8830 -1.2830 -0.2748
  125OSM   H14C13261   3.043   6.657   6.158 -0.4669 -1.0818  1.8987
  125OSM    C1313262   3.350   6.514   6.178 -0.2484 -0.1201  0.0600
  125OSM   H13A13263   3.343   6.460   6.085  1.3948  0.2250 -0.2938
  125OSM   H13B13264   3.392   6.464   6.264  0.9362  2.2208  0.9226
  125OSM   H13C13265   3.409   6.604   6.169 -0.5632  0.0572 -0.2593
  125OSM    C1213266   3.139   6.433   6.276  0.1420  0.1977 -0.4111
  125OSM   H12A13267   3.112   6.369   6.193 -2.3105  1.7106 -0.8927
  125OSM   H12B13268   3.051   6.467   6.328 -0.9364 -2.0069 -0.6812
  125OSM    C1113269   3.214   6.351   6.383  0.4614 -0.6809  0.7079
  125OSM   H11A13270   3.146   6.281   6.437 -0.2457  1.0515  2.1906
  125OSM   H11B13271   3.253   6.423   6.458  1.2889 -1.1005  0.6869
  125OSM      P13272   3.309   6.152   6.227  0.3005 -0.1553  0.0916
  125OSM    O1313273   3.202   6.176   6.128  0.2705  0.6225  1.2608
  125OSM    O1413274   3.436   6.115   6.168  0.1580  0.0927 -0.2091
  125OSM    O1113275   3.265   6.033   6.316  0.5391 -0.1950  0.3340
  125OSM    O1213276   3.323   6.277   6.327 -0.2714 -0.4500 -0.0408
  125OSM    C1S13277   3.307   6.017   6.449  1.1682 -0.6057  0.2492
  125OSM    H1S13278   3.321   6.108   6.510 -0.9890 -0.1301  0.0981
  125OSM    H1T13279   3.404   5.962   6.453 -0.0478 -2.9109 -0.4739
  125OSM     NF13280   3.248   5.912   6.668 -0.1623 -0.0378 -0.7965
  125OSM    HNF13281   3.299   5.829   6.688  1.1297  1.0176  0.5337
  125OSM    C2S13282   3.207   5.929   6.531 -0.1067 -0.1885  0.0076
  125OSM    H2S13283   3.109   5.982   6.527 -0.6537 -1.2182 -1.7075
  125OSM    C3S13284   3.188   5.795   6.460  0.2502  0.3986 -0.4485
  125OSM    H3S13285   3.279   5.732   6.451 -1.2077 -1.7283 -1.1217
  125OSM     O313286   3.164   5.801   6.318  0.1507 -0.5846 -0.0322
  125OSM    HO313287   3.181   5.892   6.295 -0.4401 -0.6586 -0.8067
  125OSM    C4S13288   3.080   5.713   6.526 -0.1162 -0.2716  0.1964
  125OSM    H4S13289   3.017   5.769   6.596 -0.0249 -1.5418  1.3297
  125OSM    C5S13290   3.061   5.577   6.528  0.5687  0.5621  0.2225
  125OSM    H5S13291   3.133   5.513   6.473 -0.1775  0.3832 -0.5669
  125OSM    C6S13292   2.947   5.506   6.601 -0.1644  0.5349  0.5312
  125OSM    H6S13293   2.979   5.478   6.704 -1.8910  1.8423  1.4939
  125OSM    H6T13294   2.926   5.410   6.550  0.9782  0.8571 -0.6074
  125OSM    C7S13295   2.817   5.587   6.623 -0.3725  0.6521 -0.1085
  125OSM    H7S13296   2.789   5.638   6.528 -1.4266  1.5501  0.6643
  125OSM    H7T13297   2.844   5.664   6.698 -0.3670  2.0142 -1.4586
  125OSM    C8S13298   2.695   5.511   6.675  0.4826 -0.4545  0.8712
  125OSM    H8S13299   2.646   5.460   6.590  0.6202 -0.2195  0.6503
  125OSM    H8T13300   2.622   5.581   6.719 -0.1025  0.1544 -0.9744
  125OSM    C9S13301   2.731   5.403   6.778  0.3346 -0.3525  0.6125
  125OSM    H9S13302   2.797   5.324   6.737  0.6042  0.7213 -1.1488
  125OSM    H9T13303   2.636   5.361   6.817 -0.3268  2.3940  2.2495
  125OSM   C10S13304   2.784   5.462   6.905  0.0235  0.3811  0.3803
  125OSM   H10S13305   2.718   5.549   6.925 -1.2564 -0.4347 -0.1426
  125OSM   H10T13306   2.886   5.498   6.880  0.7427 -1.3685  0.6353
  125OSM   C11S13307   2.765   5.362   7.023  0.3034 -0.3382 -0.4732
  125OSM   H11S13308   2.847   5.288   7.041  0.1735 -0.4957 -0.5279
  125OSM   H11T13309   2.669   5.308   7.010 -1.6779  2.7073  0.5787
  125OSM   C12S13310   2.740   5.444   7.148  0.0673 -0.2963  0.0627
  125OSM   H12S13311   2.650   5.506   7.126 -1.1050 -2.0722 -0.3806
  125OSM   H12T13312   2.824   5.508   7.180 -0.0551  0.8019 -1.6465
  125OSM   C13S13313   2.710   5.364   7.271  0.0906 -0.3917 -0.1537
  125OSM   H13S13314   2.801   5.311   7.303  0.7975 -1.0589 -3.0034
  125OSM   H13T13315   2.637   5.281   7.256 -2.7123  1.9407 -0.4644
  125OSM   C14S13316   2.661   5.461   7.392 -0.2250  0.0591 -0.1774
  125OSM   H14S13317   2.569   5.518   7.366  0.6969  1.5011 -0.4189
  125OSM   H14T13318   2.745   5.533   7.403  0.5560 -0.9224  0.4193
  125OSM   C15S13319   2.631   5.389   7.526 -0.7986  0.7066  0.6457
  125OSM   H15S13320   2.724   5.332   7.546 -0.1174  1.2026 -0.9604
  125OSM   H15T13321   2.544   5.323   7.506 -0.9221  0.5982  1.5058
  125OSM   C16S13322   2.605   5.485   7.646  0.2240  0.4034  0.0165
  125OSM   H16S13323   2.516   5.545   7.616 -0.4067 -1.3443 -1.8096
  125OSM   H16T13324   2.692   5.553   7.651  1.4081 -1.1094  1.0463
  125OSM   C17S13325   2.569   5.415   7.780  0.0983 -0.2016  0.0413
  125OSM   H17S13326   2.657   5.369   7.829 -0.7515  0.6771  2.5680
  125OSM   H17T13327   2.492   5.339   7.758 -0.2096  0.1706 -0.1837
  125OSM   C18S13328   2.510   5.511   7.878 -0.5947  0.0250 -0.4423
  125OSM   H18S13329   2.432   5.573   7.829  0.8681  2.2944 -0.0732
  125OSM   H18T13330   2.593   5.567   7.927 -0.5914  0.7503 -1.2594
  125OSM   H18U13331   2.463   5.452   7.960  0.9461 -0.9443 -0.2027
  125OSM    C1F13332   3.255   6.019   6.750 -0.7648 -0.3767  0.3776
  125OSM     OF13333   3.205   6.125   6.712 -0.0915 -0.8971  0.6038
  125OSM    C2F13334   3.326   6.002   6.879  0.3636  0.8420  0.3799
  125OSM    H2F13335   3.430   6.039   6.861  0.5117 -0.7315 -2.6564
  125OSM    H2G13336   3.339   5.893   6.898  0.0142  0.4482 -1.4642
  125OSM    C3F13337   3.270   6.085   6.996 -0.5019 -0.1644  0.2399
  125OSM    H3F13338   3.166   6.052   7.018  0.2611 -2.7687  0.3549
  125OSM    H3G13339   3.276   6.191   6.965  0.4303  0.0094  0.9860
  125OSM    C4F13340   3.357   6.074   7.120 -0.1482  0.1110 -0.0673
  125OSM    H4F13341   3.467   6.084   7.103 -0.1243  0.4335  0.2787
  125OSM    H4G13342   3.335   5.978   7.173 -0.3245 -0.6284 -1.4220
  125OSM    C5F13343   3.342   6.183   7.221 -0.0023 -0.4286 -0.4842
  125OSM    H5F13344   3.234   6.176   7.248  0.1849 -2.1443 -0.1241
  125OSM    H5G13345   3.360   6.280   7.169  0.3783 -1.3882 -2.2199
  125OSM    C6F13346   3.430   6.179   7.351  0.0218  0.0666  0.8824
  125OSM    H6F13347   3.540   6.173   7.337  0.0174  0.1870  0.7955
  125OSM    H6G13348   3.419   6.081   7.401  0.8511 -0.4773  0.0335
  125OSM    C7F13349   3.410   6.293   7.447  0.2447 -0.0021 -0.1123
  125OSM    H7F13350   3.309   6.340   7.447 -0.4170 -1.3306  1.0665
  125OSM    H7G13351   3.477   6.376   7.414  0.0592  0.4297  0.5684
  125OSM    C8F13352   3.460   6.259   7.597  0.2912 -0.2840 -0.1793
  125OSM    H8F13353   3.498   6.354   7.640 -1.1825 -0.8039  2.5131
  125OSM    H8G13354   3.533   6.175   7.589 -0.4929 -0.9045 -0.9745
  125OSM    C9F13355   3.337   6.219   7.685  0.9861 -0.0554 -0.0450
  125OSM    H9F13356   3.243   6.208   7.628  0.0020 -1.6830  1.7671
  125OSM   C10F13357   3.338   6.212   7.822  0.2452 -0.0354 -0.6729
  125OSM   H10F13358   3.246   6.192   7.879 -0.6351 -2.3151 -2.6772
  125OSM   C11F13359   3.458   6.253   7.907  0.5140 -0.1198  1.0318
  125OSM   H11F13360   3.511   6.338   7.859  0.0887  0.0720  0.8946
  125OSM   H11G13361   3.531   6.170   7.900  1.3921  0.7601 -0.8110
  125OSM   C12F13362   3.432   6.281   8.054  0.4456 -0.1102 -0.0183
  125OSM   H12F13363   3.528   6.305   8.105 -0.2873 -0.1552  1.4190
  125OSM   H12G13364   3.385   6.192   8.101  0.8244  0.1017  0.7654
  125OSM   C13F13365   3.345   6.403   8.089 -0.4376 -0.1517 -0.7684
  125OSM   H13F13366   3.243   6.379   8.051 -0.5710  1.2264 -1.3204
  125OSM   H13G13367   3.381   6.499   8.047  3.1462 -1.2348 -0.4490
  125OSM   C14F13368   3.324   6.434   8.241 -0.5576 -1.0995 -0.3308
  125OSM   H14F13369   3.295   6.337   8.289 -3.7396  0.7255  1.8522
  125OSM   H14G13370   3.234   6.497   8.258  0.5872  0.1285  1.5710
  125OSM   C15F13371   3.450   6.497   8.313  0.0543  0.0558 -0.0089
  125OSM   H15F13372   3.486   6.572   8.239 -1.7051 -0.1249 -1.1045
  125OSM   H15G13373   3.535   6.427   8.328  2.0388  2.6376  1.8307
  125OSM   C16F13374   3.417   6.572   8.442  0.6267  0.0428 -0.1571
  125OSM   H16F13375   3.398   6.504   8.528  0.1835  0.9466  0.4710
  125OSM   H16G13376   3.325   6.628   8.416  0.2263  0.1657  1.3899
  125OSM   C17F13377   3.526   6.671   8.475 -0.2538  0.3907  0.3911
  125OSM   H17F13378   3.487   6.747   8.546  0.4876  1.7139 -0.5852
  125OSM   H17G13379   3.563   6.720   8.383  0.9854 -0.5248  0.3789
  125OSM   C18F13380   3.648   6.605   8.539  0.1917  1.0213 -0.2982
  125OSM   H18F13381   3.691   6.528   8.471 -1.5677 -0.2502 -0.0356
  125OSM   H18G13382   3.620   6.550   8.631  1.3120  1.3233  0.2380
  125OSM   H18H13383   3.725   6.681   8.567  3.0950 -1.6525 -0.5032
  126OSM      N13384   6.468   4.746   6.393  0.0395 -0.1486 -0.0215
  126OSM    C1513385   6.414   4.865   6.469 -0.3241  0.8039  0.8889
  126OSM   H15A13386   6.343   4.916   6.406 -1.4646 -0.3416  1.1991
  126OSM   H15B13387   6.487   4.935   6.505 -0.5556  0.2077  2.5918
  126OSM   H15C13388   6.372   4.823   6.559  2.1179 -1.2052  1.1943
  126OSM    C1413389   6.353   4.661   6.347  0.9957 -0.5226  0.0489
  126OSM   H14A13390   6.375   4.573   6.288  0.0102 -1.7827  1.4915
  126OSM   H14B13391   6.284   4.730   6.301  1.1967  0.4918  1.2244
  126OSM   H14C13392   6.297   4.624   6.431  1.3912 -1.0572  0.0856
  126OSM    C1313393   6.529   4.802   6.272 -0.0467  0.6050 -0.4246
  126OSM   H13A13394   6.565   4.721   6.210 -1.0805  0.2720 -0.6107
  126OSM   H13B13395   6.611   4.869   6.295 -0.4610  1.0645 -0.2529
  126OSM   H13C13396   6.462   4.863   6.214 -0.0843 -1.5324 -2.7894
  126OSM    C1213397   6.557   4.667   6.482 -0.1605 -0.2998 -0.4534
  126OSM   H12A13398   6.590   4.581   6.426 -1.7220 -2.8306  2.2208
  126OSM   H12B13399   6.507   4.619   6.565  2.5058  1.3682  2.3358
  126OSM    C1113400   6.677   4.741   6.528  0.0443  0.5577 -0.5626
  126OSM   H11A13401   6.723   4.672   6.601 -1.8926 -1.8451 -1.5033
  126OSM   H11B13402   6.666   4.830   6.594  0.6057 -1.2988  2.1840
  126OSM      P13403   6.892   4.669   6.396  0.1633 -0.2920  0.2923
  126OSM    O1313404   6.839   4.535   6.355 -0.1486  0.3265 -0.9270
  126OSM    O1413405   6.982   4.737   6.300  0.0393  0.3686  0.0874
  126OSM    O1113406   6.962   4.657   6.535 -0.0730 -0.5208 -0.2973
  126OSM    O1213407   6.774   4.766   6.429  0.1715  0.2028  0.0278
  126OSM    C1S13408   6.976   4.769   6.620  0.3810 -0.1028 -0.9660
  126OSM    H1S13409   6.898   4.756   6.698  0.4831 -0.0962 -0.8628
  126OSM    H1T13410   6.951   4.866   6.573 -1.4787 -0.0414  0.0592
  126OSM     NF13411   7.117   4.884   6.800  0.3585  0.6437  0.2614
  126OSM    HNF13412   7.126   4.980   6.773  1.8514  1.0528  2.0221
  126OSM    C2S13413   7.114   4.777   6.699 -0.7333 -0.8355 -0.2344
  126OSM    H2S13414   7.122   4.680   6.752 -2.2070 -0.2773  1.0483
  126OSM    C3S13415   7.221   4.798   6.583  0.1222  0.6269  0.6231
  126OSM    H3S13416   7.200   4.898   6.539 -1.2683  0.1125  0.0817
  126OSM     O313417   7.223   4.697   6.483  0.3890 -0.2431 -0.0123
  126OSM    HO313418   7.136   4.664   6.505  0.1714  1.6253  2.4482
  126OSM    C4S13419   7.355   4.806   6.653  0.1032 -0.1675  0.0072
  126OSM    H4S13420   7.395   4.907   6.673  1.7822 -0.8792  0.4393
  126OSM    C5S13421   7.428   4.700   6.700 -0.4887 -0.6804  0.2135
  126OSM    H5S13422   7.398   4.595   6.690  0.2424 -0.8807  0.1074
  126OSM    C6S13423   7.568   4.729   6.758 -0.8008  0.0117 -0.4310
  126OSM    H6S13424   7.619   4.824   6.729  0.6365 -0.5335  0.2279
  126OSM    H6T13425   7.643   4.649   6.740 -1.4518 -1.2542  2.0318
  126OSM    C7S13426   7.549   4.735   6.914 -0.1402  0.8038  0.2198
  126OSM    H7S13427   7.528   4.630   6.945 -0.2590  1.1802  1.4683
  126OSM    H7T13428   7.460   4.790   6.951 -0.2897 -0.1545  1.3237
  126OSM    C8S13429   7.669   4.787   6.991 -0.5661 -0.2853 -0.4933
  126OSM    H8S13430   7.662   4.895   6.967 -0.3213  0.0913  1.0434
  126OSM    H8T13431   7.765   4.743   6.955  0.9276  1.8616  0.6637
  126OSM    C9S13432   7.660   4.759   7.137 -0.5068  0.2944  0.1416
  126OSM    H9S13433   7.668   4.650   7.159  1.1186  0.2636 -0.4855
  126OSM    H9T13434   7.564   4.783   7.188  0.6926  0.8458  2.2290
  126OSM   C10S13435   7.776   4.833   7.210 -0.1664 -0.6960  0.1901
  126OSM   H10S13436   7.781   4.939   7.179  0.7598 -0.8791 -0.3117
  126OSM   H10T13437   7.874   4.792   7.177 -0.3862 -0.2181 -1.1076
  126OSM   C11S13438   7.750   4.835   7.362 -1.0462 -0.7644  0.7316
  126OSM   H11S13439   7.746   4.737   7.413  1.6990 -2.2313 -1.6020
  126OSM   H11T13440   7.652   4.887   7.371 -1.1577 -0.3700 -1.9204
  126OSM   C12S13441   7.864   4.914   7.439  0.0923  0.0914  0.1167
  126OSM   H12S13442   7.870   5.017   7.398  1.3146  0.2514  0.6414
  126OSM   H12T13443   7.966   4.874   7.419 -0.2620 -0.4185 -0.7274
  126OSM   C13S13444   7.837   4.926   7.592  0.2255  0.0964  0.1705
  126OSM   H13S13445   7.825   4.821   7.626 -0.2017  0.3809  0.9127
  126OSM   H13T13446   7.740   4.975   7.614 -0.5907 -0.7528 -1.3575
  126OSM   C14S13447   7.960   4.977   7.665  0.4813  0.0876 -0.1355
  126OSM   H14S13448   7.989   5.076   7.623  0.9082 -0.8481 -2.1302
  126OSM   H14T13449   8.045   4.910   7.642 -0.3372 -0.3522 -2.0929
  126OSM   C15S13450   7.930   4.993   7.820 -0.1503  0.9142  0.2426
  126OSM   H15S13451   7.886   4.896   7.851  0.0489 -0.0128 -2.1235
  126OSM   H15T13452   7.854   5.073   7.836 -0.6134  0.8476 -1.4224
  126OSM   C16S13453   8.057   5.032   7.902  0.0300 -0.0745  0.3504
  126OSM   H16S13454   8.096   5.131   7.871  1.1143 -0.4893  0.3376
  126OSM   H16T13455   8.144   4.965   7.883 -0.6070 -0.3892 -1.6343
  126OSM   C17S13456   8.039   5.039   8.053 -0.3157  0.3394 -0.2001
  126OSM   H17S13457   8.144   5.025   8.087 -0.2606  0.3650 -0.3572
  126OSM   H17T13458   7.975   4.954   8.083 -1.7267 -0.1403 -3.9832
  126OSM   C18S13459   8.011   5.176   8.107  0.3338  0.6891  0.1952
  126OSM   H18S13460   8.085   5.251   8.072  0.4920  0.4899  0.1023
  126OSM   H18T13461   8.018   5.174   8.217  0.4905 -2.5408  0.2182
  126OSM   H18U13462   7.909   5.207   8.074  0.4078  2.0058  1.1394
  126OSM    C1F13463   7.074   4.859   6.923 -0.0967 -0.2869  0.3918
  126OSM     OF13464   7.045   4.743   6.962  0.3145  0.2671 -0.5604
  126OSM    C2F13465   7.069   4.984   7.009  0.0372  0.0454 -0.1100
  126OSM    H2F13466   6.967   5.029   7.017 -0.4609 -1.1368  0.3837
  126OSM    H2G13467   7.129   5.070   6.972 -1.4819  1.0503 -0.3673
  126OSM    C3F13468   7.140   4.944   7.136 -0.2006 -0.5143  0.0486
  126OSM    H3F13469   7.246   4.919   7.114  0.2935  0.3731  1.2925
  126OSM    H3G13470   7.085   4.865   7.191  0.2663  0.4739  2.0238
  126OSM    C4F13471   7.135   5.057   7.234  0.5350  0.3269 -0.3676
  126OSM    H4F13472   7.035   5.071   7.280  0.6431 -0.3786  0.1005
  126OSM    H4G13473   7.151   5.149   7.175 -0.1563  1.5397  1.2426
  126OSM    C5F13474   7.238   5.056   7.347 -0.4321  0.3270 -0.4871
  126OSM    H5F13475   7.218   5.137   7.420  2.3652  0.5923  0.0964
  126OSM    H5G13476   7.343   5.064   7.313  0.6600 -1.3180  2.0845
  126OSM    C6F13477   7.252   4.923   7.429  0.0170  0.2955 -0.3247
  126OSM    H6F13478   7.252   4.842   7.353 -0.3207 -0.0122 -0.0043
  126OSM    H6G13479   7.168   4.902   7.499  0.8557 -2.6768 -0.0750
  126OSM    C7F13480   7.375   4.922   7.520  0.6812 -0.3573 -0.4208
  126OSM    H7F13481   7.374   5.009   7.590  2.1613 -0.3978 -0.3183
  126OSM    H7G13482   7.466   4.938   7.459  1.6090  0.9610  1.2381
  126OSM    C8F13483   7.396   4.784   7.581  0.2171  0.7492 -0.2492
  126OSM    H8F13484   7.440   4.724   7.499 -0.1102 -0.0399  0.1407
  126OSM    H8G13485   7.296   4.745   7.610  1.2018 -2.6357 -1.0603
  126OSM    C9F13486   7.506   4.791   7.692 -0.3191 -0.0625 -0.6353
  126OSM    H9F13487   7.614   4.796   7.671 -0.6768 -1.4186 -3.2401
  126OSM   C10F13488   7.471   4.815   7.822 -0.2866  0.3484 -0.5987
  126OSM   H10F13489   7.553   4.832   7.893  1.0431 -0.1533 -1.9467
  126OSM   C11F13490   7.335   4.827   7.880  0.2824  0.1354  0.3740
  126OSM   H11F13491   7.281   4.747   7.825  0.5072  0.6702 -0.6624
  126OSM   H11G13492   7.293   4.928   7.863  0.1285  0.2484  1.3845
  126OSM   C12F13493   7.330   4.789   8.028  0.1698  0.6933  0.0420
  126OSM   H12F13494   7.228   4.810   8.069 -0.2242 -0.6900 -0.1869
  126OSM   H12G13495   7.412   4.845   8.077  1.0964 -0.6696  0.0947
  126OSM   C13F13496   7.353   4.639   8.047 -0.0418  0.1887  0.0760
  126OSM   H13F13497   7.448   4.601   8.005  1.1196  1.2959  1.5947
  126OSM   H13G13498   7.268   4.588   7.995  1.7980 -2.1045 -0.8609
  126OSM   C14F13499   7.352   4.607   8.199 -0.7846 -0.0381  0.2994
  126OSM   H14F13500   7.255   4.627   8.248 -2.2689 -0.0947 -2.4101
  126OSM   H14G13501   7.422   4.678   8.250  1.6938 -0.2821 -2.4892
  126OSM   C15F13502   7.387   4.460   8.236 -0.0530 -0.1218  0.6764
  126OSM   H15F13503   7.409   4.474   8.344 -1.7472  1.7533  0.8495
  126OSM   H15G13504   7.470   4.428   8.171 -1.4586  0.0865 -1.3060
  126OSM   C16F13505   7.269   4.363   8.226  0.3534  0.0620  0.3052
  126OSM   H16F13506   7.245   4.341   8.120 -0.8753  0.0264  0.5812
  126OSM   H16G13507   7.177   4.413   8.263  0.3632 -0.6272  1.2994
  126OSM   C17F13508   7.292   4.226   8.296 -0.3385  0.3329 -0.5779
  126OSM   H17F13509   7.386   4.182   8.258  0.0383 -0.5764  1.2825
  126OSM   H17G13510   7.210   4.161   8.260 -1.2601  1.1294  0.0266
  126OSM   C18F13511   7.295   4.228   8.452  0.4140 -0.5167 -0.2392
  126OSM   H18F13512   7.372   4.294   8.497 -1.0131  2.4969 -1.9139
  126OSM   H18G13513   7.297   4.124   8.491 -0.2378  0.0037  1.2543
  126OSM   H18H13514   7.208   4.276   8.501 -0.7090 -0.0538 -2.5131
  127OSM      N13515   6.618   3.632   6.273 -0.0808 -0.6801  0.0431
  127OSM    C1513516   6.493   3.602   6.198  0.0108  0.3106  0.5551
  127OSM   H15A13517   6.434   3.529   6.251 -0.7196 -0.7513 -1.6111
  127OSM   H15B13518   6.510   3.553   6.103  1.5590  0.8130  0.5455
  127OSM   H15C13519   6.431   3.690   6.188 -1.6959 -1.0157 -1.3762
  127OSM    C1413520   6.670   3.506   6.330  0.1577  0.3804  0.5201
  127OSM   H14A13521   6.764   3.535   6.375  0.8675  1.0997 -1.3377
  127OSM   H14B13522   6.692   3.438   6.249  1.8952  0.5748  0.7766
  127OSM   H14C13523   6.615   3.448   6.403  2.1342 -0.8180  1.1441
  127OSM    C1313524   6.718   3.693   6.177 -0.0271  0.1249  0.6021
  127OSM   H13A13525   6.754   3.622   6.104 -2.0972 -1.1350  0.7411
  127OSM   H13B13526   6.808   3.719   6.230 -0.0802  1.9702 -0.1383
  127OSM   H13C13527   6.692   3.783   6.124  1.4348  0.7567  0.9075
  127OSM    C1213528   6.594   3.732   6.377  0.3058 -0.2795 -0.3207
  127OSM   H12A13529   6.554   3.823   6.336 -0.5329 -1.7825 -3.1159
  127OSM   H12B13530   6.688   3.758   6.423 -0.2350  0.8569  0.1889
  127OSM    C1113531   6.489   3.697   6.486 -0.6349  0.1980  0.5586
  127OSM   H11A13532   6.534   3.608   6.535  1.5964  0.6127 -0.6161
  127OSM   H11B13533   6.391   3.673   6.440  0.5572 -0.2053 -1.9460
  127OSM      P13534   6.427   3.952   6.536 -0.7351 -0.5150 -0.5829
  127OSM    O1313535   6.487   4.059   6.622  0.5946  0.1061  0.2682
  127OSM    O1413536   6.445   3.983   6.393 -0.3144  0.1940 -0.4001
  127OSM    O1113537   6.278   3.952   6.573 -0.1005  0.0453 -0.5301
  127OSM    O1213538   6.477   3.808   6.577  0.5547  0.2144  0.2876
  127OSM    C1S13539   6.231   3.908   6.699 -0.6222 -0.7998  0.3258
  127OSM    H1S13540   6.297   3.838   6.754  0.4071 -0.4564 -0.4526
  127OSM    H1T13541   6.131   3.864   6.676 -0.7307 -2.3326  3.2482
  127OSM     NF13542   6.172   3.989   6.927 -0.1071 -0.4230 -0.4575
  127OSM    HNF13543   6.077   3.974   6.955 -0.1001 -2.1347 -1.2034
  127OSM    C2S13544   6.207   4.032   6.792 -0.1780 -0.1792  0.1802
  127OSM    H2S13545   6.301   4.092   6.793  1.2107 -2.2478  0.6683
  127OSM    C3S13546   6.085   4.110   6.739  0.1995  0.0824  0.1951
  127OSM    H3S13547   6.001   4.037   6.735 -0.7107  1.1143  0.1464
  127OSM     O313548   6.089   4.164   6.601  0.0717  0.1401  0.0897
  127OSM    HO313549   6.164   4.113   6.568 -0.4716  1.1185 -2.9876
  127OSM    C4S13550   6.053   4.226   6.830 -0.1508  0.3890  0.4350
  127OSM    H4S13551   5.970   4.202   6.899 -1.7653  0.0887 -1.5113
  127OSM    C5S13552   6.108   4.353   6.833 -0.2500 -0.5392 -0.2268
  127OSM    H5S13553   6.191   4.376   6.765  2.4357 -3.4546  1.7450
  127OSM    C6S13554   6.068   4.466   6.935  0.1748  0.3363  0.3999
  127OSM    H6S13555   6.025   4.558   6.891  1.0653  1.2145  1.3300
  127OSM    H6T13556   6.168   4.503   6.968 -0.4729  0.6380  2.1292
  127OSM    C7S13557   6.008   4.421   7.068 -0.2155 -0.3058  0.4649
  127OSM    H7S13558   6.090   4.373   7.125  2.7603  1.8994 -1.6877
  127OSM    H7T13559   5.929   4.342   7.063 -1.3056  0.6732  1.4302
  127OSM    C8S13560   5.954   4.540   7.152  0.3593  0.4906 -0.0399
  127OSM    H8S13561   5.884   4.595   7.085  1.9982  1.3635 -1.1203
  127OSM    H8T13562   6.027   4.621   7.175  0.0562  1.2631 -1.6873
  127OSM    C9S13563   5.874   4.512   7.284 -0.4900 -0.0890  0.0512
  127OSM    H9S13564   5.850   4.404   7.294  0.9620 -0.8684 -3.2982
  127OSM    H9T13565   5.782   4.572   7.268  0.9982  2.3648  0.0884
  127OSM   C10S13566   5.941   4.563   7.411 -0.1382  0.7724  0.4831
  127OSM   H10S13567   5.953   4.673   7.416  3.9902  0.5556 -0.9643
  127OSM   H10T13568   6.047   4.534   7.394 -0.6503 -1.5706  0.9259
  127OSM   C11S13569   5.886   4.490   7.539 -0.7420 -0.0702  0.4562
  127OSM   H11S13570   5.912   4.383   7.528 -1.3770 -0.3401  1.4167
  127OSM   H11T13571   5.775   4.498   7.531 -0.7449 -1.5576 -1.3674
  127OSM   C12S13572   5.935   4.550   7.675  0.2748  0.1319 -0.7038
  127OSM   H12S13573   5.916   4.660   7.672 -3.1033 -0.3206  0.2959
  127OSM   H12T13574   6.042   4.521   7.687 -0.6321 -2.8340  1.1824
  127OSM   C13S13575   5.863   4.482   7.794  0.3978 -0.5216 -0.0975
  127OSM   H13S13576   5.875   4.372   7.790 -0.8369 -0.6380 -0.9599
  127OSM   H13T13577   5.758   4.511   7.773  0.1227  0.3251  2.0864
  127OSM   C14S13578   5.895   4.540   7.937 -0.5200  0.2497  0.1052
  127OSM   H14S13579   5.891   4.650   7.927 -0.2203  0.1231 -1.9957
  127OSM   H14T13580   5.998   4.505   7.963 -0.8451 -2.1154 -1.3997
  127OSM   C15S13581   5.792   4.499   8.045  0.4416 -0.1410  1.3555
  127OSM   H15S13582   5.781   4.388   8.051  1.9495 -0.3034  1.4685
  127OSM   H15T13583   5.697   4.555   8.029  0.7069 -0.0559 -0.0300
  127OSM   C16S13584   5.846   4.548   8.180  0.8645  0.6371 -0.2869
  127OSM   H16S13585   5.876   4.655   8.176  0.6971  0.7234  0.6060
  127OSM   H16T13586   5.941   4.490   8.185 -0.4556 -1.9394 -2.4823
  127OSM   C17S13587   5.742   4.517   8.290  0.8493  0.0106 -0.2611
  127OSM   H17S13588   5.643   4.566   8.276  0.3204 -0.4562  1.5638
  127OSM   H17T13589   5.777   4.562   8.385 -1.0705 -0.1068  0.5621
  127OSM   C18S13590   5.700   4.370   8.307  0.3966  0.7076 -0.3515
  127OSM   H18S13591   5.661   4.322   8.214 -0.5760  1.0577 -0.1396
  127OSM   H18T13592   5.617   4.365   8.382 -1.8731  0.7506 -2.7174
  127OSM   H18U13593   5.789   4.311   8.337  1.0508  0.8280 -1.9531
  127OSM    C1F13594   6.267   3.939   7.008 -0.1617 -0.2282 -0.1916
  127OSM     OF13595   6.384   3.948   6.976  0.4937  0.3284 -0.4878
  127OSM    C2F13596   6.222   3.874   7.134  0.3287  0.2378  0.1911
  127OSM    H2F13597   6.170   3.779   7.111  1.0405 -0.8453  2.7235
  127OSM    H2G13598   6.162   3.945   7.196 -0.5751 -0.6894  0.4113
  127OSM    C3F13599   6.343   3.823   7.214 -0.1162 -0.1290  0.2810
  127OSM    H3F13600   6.424   3.898   7.212 -0.7536  0.6208  1.5434
  127OSM    H3G13601   6.379   3.739   7.150 -0.8025 -1.4427  1.5540
  127OSM    C4F13602   6.322   3.777   7.357  0.5430  0.0428  0.1175
  127OSM    H4F13603   6.414   3.719   7.377 -0.7641 -1.6911  1.2737
  127OSM    H4G13604   6.235   3.710   7.363 -0.4727  1.3979  1.0842
  127OSM    C5F13605   6.310   3.886   7.461  0.1325 -0.9546  0.9586
  127OSM    H5F13606   6.291   3.979   7.403 -1.0703 -1.3514  0.6878
  127OSM    H5G13607   6.408   3.891   7.514  0.3176  0.4482  0.5309
  127OSM    C6F13608   6.186   3.869   7.555  0.5362  0.4010  0.0019
  127OSM    H6F13609   6.213   3.781   7.618  1.4135 -1.4310 -2.7332
  127OSM    H6G13610   6.087   3.857   7.506 -1.6053  0.8356  3.8243
  127OSM    C7F13611   6.164   3.987   7.647 -0.2364 -0.1151 -0.0950
  127OSM    H7F13612   6.125   4.072   7.587  1.2370  1.0115  0.4796
  127OSM    H7G13613   6.263   4.027   7.678 -0.0460  0.7936 -1.7478
  127OSM    C8F13614   6.063   3.961   7.764 -0.6084  0.2848 -1.2760
  127OSM    H8F13615   5.964   3.918   7.737 -0.3342 -2.8550  1.9944
  127OSM    H8G13616   6.051   4.061   7.810  1.8110  0.0853 -0.0872
  127OSM    C9F13617   6.131   3.873   7.869 -0.2722  0.0767  0.5040
  127OSM    H9F13618   6.146   3.770   7.834  0.7480 -0.3522  2.0634
  127OSM   C10F13619   6.167   3.899   7.998  0.6216  0.5132 -0.3557
  127OSM   H10F13620   6.206   3.814   8.057  1.4463  1.6310  0.7634
  127OSM   C11F13621   6.139   4.027   8.068  0.2664  0.2489 -0.0204
  127OSM   H11F13622   6.079   4.093   8.002 -1.1863 -2.4552 -1.5191
  127OSM   H11G13623   6.234   4.077   8.100  0.4272 -0.0308 -0.0569
  127OSM   C12F13624   6.056   4.004   8.201  0.0816  0.9568  0.5349
  127OSM   H12F13625   6.107   3.927   8.261  1.9869  0.6032 -1.4085
  127OSM   H12G13626   5.950   3.981   8.174  0.0564 -0.6278  1.8682
  127OSM   C13F13627   6.044   4.128   8.287 -0.0412 -0.7083 -0.1539
  127OSM   H13F13628   5.982   4.203   8.233 -0.5466 -1.6877 -0.9734
  127OSM   H13G13629   6.146   4.171   8.298 -0.3658 -0.2601  1.3665
  127OSM   C14F13630   5.993   4.102   8.429  0.2101  0.1776  0.1649
  127OSM   H14F13631   6.053   4.018   8.469  1.2697  0.0987 -1.4896
  127OSM   H14G13632   5.888   4.069   8.419  0.4544 -1.3408  1.9900
  127OSM   C15F13633   6.009   4.219   8.525  0.1378  0.5445 -0.1660
  127OSM   H15F13634   5.967   4.303   8.466 -0.3652 -0.4419 -1.2529
  127OSM   H15G13635   6.119   4.237   8.532  0.1155  0.8633 -0.5734
  127OSM   C16F13636   5.954   4.195   8.666 -0.8731 -0.2098 -0.2053
  127OSM   H16F13637   5.994   4.098   8.704  1.0711 -0.0207 -1.6390
  127OSM   H16G13638   5.845   4.179   8.653 -0.9822 -0.5815  1.0056
  127OSM   C17F13639   5.987   4.305   8.774 -0.3114  0.0523  0.3639
  127OSM   H17F13640   5.985   4.409   8.733  2.3818  0.4912  1.1355
  127OSM   H17G13641   6.095   4.284   8.792 -0.5362 -1.9617 -0.4713
  127OSM   C18F13642   5.903   4.285   8.899 -0.4973 -0.4104 -0.1680
  127OSM   H18F13643   5.798   4.282   8.864 -0.4027  0.7394 -0.6027
  127OSM   H18G13644   5.926   4.367   8.970 -0.2439  0.6785 -1.4636
  127OSM   H18H13645   5.935   4.189   8.944  0.6486  0.5370  1.1254
  128OSM      N13646   5.223   2.316   6.054 -0.4033 -0.7255 -0.6103
  128OSM    C1513647   5.248   2.170   6.075  0.5329  0.3459 -0.1853
  128OSM   H15A13648   5.298   2.128   5.989  0.4256 -0.4285  0.1184
  128OSM   H15B13649   5.154   2.121   6.094  0.2471  1.2502  0.9161
  128OSM   H15C13650   5.307   2.161   6.165 -0.2657  2.2653  0.5814
  128OSM    C1413651   5.134   2.330   5.938  0.1426  0.0424  0.0983
  128OSM   H14A13652   5.184   2.299   5.847 -1.6036 -1.9262 -0.2598
  128OSM   H14B13653   5.107   2.432   5.913 -3.6651 -0.2949  2.0976
  128OSM   H14C13654   5.049   2.264   5.949  0.0328  0.2170  0.2879
  128OSM    C1313655   5.152   2.372   6.172 -0.3225  0.3673 -0.4039
  128OSM   H13A13656   5.057   2.321   6.184  0.1754 -1.0176 -2.0472
  128OSM   H13B13657   5.120   2.475   6.163 -0.8608  0.4740  1.9145
  128OSM   H13C13658   5.211   2.352   6.260 -1.4464  3.1053  1.1020
  128OSM    C1213659   5.349   2.394   6.040 -0.3647 -0.0319 -0.0467
  128OSM   H12A13660   5.328   2.495   6.009  1.8735  0.6028  0.2849
  128OSM   H12B13661   5.416   2.357   5.963 -2.9205  0.6811 -2.8187
  128OSM    C1113662   5.431   2.406   6.170  0.6181 -0.1602 -0.4213
  128OSM   H11A13663   5.385   2.472   6.247  0.6569 -1.6764  0.9543
  128OSM   H11B13664   5.523   2.459   6.135 -0.1277  1.5484  0.1169
  128OSM      P13665   5.589   2.196   6.226  0.5960  0.7463  0.1123
  128OSM    O1313666   5.564   2.077   6.143 -0.1649  0.0113 -0.6030
  128OSM    O1413667   5.702   2.283   6.177  0.5875  0.0084 -0.3162
  128OSM    O1113668   5.612   2.156   6.370 -0.3891  0.0940 -0.2969
  128OSM    O1213669   5.454   2.283   6.237 -0.6240 -0.5747  0.2171
  128OSM    C1S13670   5.687   2.032   6.396 -0.0363 -0.2828  0.2349
  128OSM    H1S13671   5.789   2.044   6.352 -0.9388 -0.7750 -2.1670
  128OSM    H1T13672   5.632   1.944   6.357 -0.7150 -0.3184  1.2352
  128OSM     NF13673   5.816   1.905   6.568 -0.0752 -0.1881 -0.1786
  128OSM    HNF13674   5.786   1.811   6.582 -2.1835  0.2877 -1.1541
  128OSM    C2S13675   5.705   1.995   6.548  0.3232  0.2127  1.3584
  128OSM    H2S13676   5.733   2.087   6.604  0.9506 -0.5942  2.4114
  128OSM    C3S13677   5.567   1.950   6.605 -0.3416 -0.3404 -0.4932
  128OSM    H3S13678   5.545   1.850   6.561  1.2400 -0.4442 -1.1220
  128OSM     O313679   5.461   2.040   6.580  0.3783 -0.6613 -0.1155
  128OSM    HO313680   5.501   2.109   6.526 -2.0021 -2.2084 -4.3071
  128OSM    C4S13681   5.587   1.902   6.757  0.4627 -0.3019 -0.4102
  128OSM    H4S13682   5.667   1.827   6.766  1.8244  1.1855  0.3063
  128OSM    C5S13683   5.542   1.961   6.871 -0.2599 -0.7887  0.1265
  128OSM    H5S13684   5.486   2.056   6.873  1.9176  0.5651  0.2934
  128OSM    C6S13685   5.580   1.916   7.005 -0.3981 -0.2860 -0.5237
  128OSM    H6S13686   5.534   1.821   7.037  0.7606 -0.3730  1.0411
  128OSM    H6T13687   5.549   2.001   7.069  1.5877  1.0698 -1.2537
  128OSM    C7S13688   5.733   1.894   7.004 -0.1159 -1.4710 -0.1930
  128OSM    H7S13689   5.772   1.999   7.002 -0.0826 -1.4250  1.4931
  128OSM    H7T13690   5.767   1.827   6.922 -2.6405 -2.5694 -0.4130
  128OSM    C8S13691   5.777   1.819   7.132 -0.1001 -0.3831 -0.1363
  128OSM    H8S13692   5.888   1.810   7.131 -0.2143 -3.0810  1.8448
  128OSM    H8T13693   5.726   1.721   7.122 -1.5057  0.4171 -1.0765
  128OSM    C9S13694   5.746   1.887   7.265  0.0156 -0.2413  0.2482
  128OSM    H9S13695   5.641   1.922   7.273  0.3613  1.0932 -0.8358
  128OSM    H9T13696   5.804   1.981   7.276 -1.1371  1.0489 -3.4614
  128OSM   C10S13697   5.775   1.798   7.385  0.4104  0.3762 -0.6602
  128OSM   H10S13698   5.875   1.749   7.375  1.0686  1.1481  1.4948
  128OSM   H10T13699   5.714   1.706   7.387 -2.3314  2.0671  1.7702
  128OSM   C11S13700   5.755   1.863   7.521 -0.2079 -0.3485 -0.0475
  128OSM   H11S13701   5.664   1.927   7.520  0.0733  0.1945  2.6958
  128OSM   H11T13702   5.828   1.945   7.531  0.4254 -0.7450 -1.1941
  128OSM   C12S13703   5.732   1.789   7.653 -0.9085  0.2426 -0.2685
  128OSM   H12S13704   5.820   1.724   7.672 -0.5726  0.0579 -2.2582
  128OSM   H12T13705   5.636   1.732   7.655 -0.9142  0.2642  0.7691
  128OSM   C13S13706   5.712   1.889   7.773 -0.3528 -0.7044  0.2509
  128OSM   H13S13707   5.627   1.959   7.757  0.2012 -0.2719 -0.9455
  128OSM   H13T13708   5.800   1.956   7.782 -0.6021 -0.2721 -0.3684
  128OSM   C14S13709   5.700   1.833   7.914  0.0823  0.1821  0.0329
  128OSM   H14S13710   5.788   1.770   7.942 -0.3426 -1.1957 -1.5780
  128OSM   H14T13711   5.613   1.764   7.908  0.8521 -0.7779 -0.3886
  128OSM   C15S13712   5.668   1.935   8.025 -0.5590 -0.6246 -0.1631
  128OSM   H15S13713   5.634   1.876   8.113  1.1180 -0.7479  0.4563
  128OSM   H15T13714   5.590   2.004   7.988 -0.2528 -0.6374 -0.8540
  128OSM   C16S13715   5.789   2.019   8.075  0.0567 -0.1395  0.1989
  128OSM   H16S13716   5.830   2.089   7.999  2.4115 -1.6647 -0.0510
  128OSM   H16T13717   5.874   1.957   8.112  2.3718  2.4736 -0.3085
  128OSM   C17S13718   5.738   2.112   8.195 -0.3733  0.2775  0.1761
  128OSM   H17S13719   5.712   2.041   8.277  0.4153  0.1430  0.3131
  128OSM   H17T13720   5.644   2.165   8.169  0.3743  1.5113 -0.0764
  128OSM   C18S13721   5.854   2.194   8.249  0.0824 -0.3819  0.3531
  128OSM   H18S13722   5.932   2.122   8.282  1.2309  0.3093 -0.7780
  128OSM   H18T13723   5.815   2.243   8.341 -0.4539  1.4215 -0.7816
  128OSM   H18U13724   5.900   2.261   8.173  0.1815  0.0250  0.7695
  128OSM    C1F13725   5.945   1.944   6.569  0.1522  0.0972 -0.2430
  128OSM     OF13726   5.979   2.059   6.590 -0.0911 -0.9228 -0.5395
  128OSM    C2F13727   6.038   1.827   6.563  0.1086 -0.1289 -0.3094
  128OSM    H2F13728   6.120   1.858   6.495  0.4297  1.1254  0.6094
  128OSM    H2G13729   5.990   1.735   6.524 -1.7301  1.1405 -1.2310
  128OSM    C3F13730   6.105   1.793   6.699  0.4791  0.3153  0.0050
  128OSM    H3F13731   6.026   1.759   6.768  0.7130 -2.8386 -1.1270
  128OSM    H3G13732   6.159   1.880   6.744  1.6910  0.3222 -1.3877
  128OSM    C4F13733   6.212   1.679   6.688  0.2370  0.1938 -0.2035
  128OSM    H4F13734   6.293   1.724   6.626 -0.7893  1.6679 -0.5257
  128OSM    H4G13735   6.169   1.585   6.647  0.9420 -1.0634  1.8238
  128OSM    C5F13736   6.270   1.634   6.821  0.1870  0.7989 -0.1158
  128OSM    H5F13737   6.323   1.539   6.798 -0.8310  0.3415 -0.6496
  128OSM    H5G13738   6.191   1.604   6.894  2.3825  0.0042  2.1031
  128OSM    C6F13739   6.361   1.737   6.888 -0.1936 -0.1119 -0.2526
  128OSM    H6F13740   6.296   1.818   6.928 -0.1910 -0.3812  0.3114
  128OSM    H6G13741   6.435   1.778   6.817  0.4901 -0.7019  0.1032
  128OSM    C7F13742   6.438   1.680   7.008  0.0480 -0.5613 -0.3610
  128OSM    H7F13743   6.505   1.600   6.969 -1.7442 -3.4124  1.9607
  128OSM    H7G13744   6.365   1.621   7.067  0.6747  0.4953  1.5400
  128OSM    C8F13745   6.522   1.776   7.087  0.4332 -0.7124 -0.1021
  128OSM    H8F13746   6.449   1.849   7.129  0.3723  1.1336 -3.0310
  128OSM    H8G13747   6.584   1.830   7.011 -0.2136  0.7283  0.3489
  128OSM    C9F13748   6.614   1.706   7.184  0.3614 -0.2281  0.4052
  128OSM    H9F13749   6.679   1.628   7.143  0.4163  1.5047 -3.1981
  128OSM   C10F13750   6.624   1.734   7.315  0.6019 -0.0627  0.6403
  128OSM   H10F13751   6.701   1.686   7.377  0.1726 -0.5108  0.8367
  128OSM   C11F13752   6.552   1.842   7.394  0.0256 -1.1452  0.1982
  128OSM   H11F13753   6.474   1.891   7.333  0.4595 -0.7160 -0.0251
  128OSM   H11G13754   6.619   1.925   7.425  0.4267 -1.5049  0.3169
  128OSM   C12F13755   6.493   1.777   7.527 -0.6260  0.7256 -0.0777
  128OSM   H12F13756   6.449   1.869   7.570  0.3509  1.4556 -0.6135
  128OSM   H12G13757   6.571   1.735   7.594 -0.3797 -1.2089 -1.4844
  128OSM   C13F13758   6.383   1.670   7.506  0.1046  0.4870  0.6963
  128OSM   H13F13759   6.430   1.595   7.440  1.3905 -0.1656  2.2934
  128OSM   H13G13760   6.295   1.711   7.451 -1.1120 -0.4067  1.9179
  128OSM   C14F13761   6.342   1.605   7.637 -0.4411 -0.9831 -0.2252
  128OSM   H14F13762   6.427   1.568   7.698 -0.4707 -0.9532 -0.1657
  128OSM   H14G13763   6.277   1.516   7.617 -1.0466 -0.6256  0.1194
  128OSM   C15F13764   6.258   1.709   7.717  0.6141  0.1243 -0.0448
  128OSM   H15F13765   6.170   1.723   7.651  3.6576  0.7094 -4.4775
  128OSM   H15G13766   6.304   1.808   7.740 -1.6495  0.5765  3.0944
  128OSM   C16F13767   6.217   1.641   7.850  0.4368  0.5162  0.0764
  128OSM   H16F13768   6.318   1.630   7.896  0.4747  0.9824  0.1087
  128OSM   H16G13769   6.169   1.541   7.845  2.0224 -0.3313  1.0464
  128OSM   C17F13770   6.133   1.731   7.937 -0.4112  0.2027 -0.8141
  128OSM   H17F13771   6.050   1.764   7.871 -1.5478  0.4695  0.6800
  128OSM   H17G13772   6.186   1.812   7.992 -0.7447 -0.0571 -0.0988
  128OSM   C18F13773   6.066   1.650   8.054  0.2522 -0.0536 -0.5105
  128OSM   H18F13774   6.153   1.621   8.116  2.6998 -1.0489 -4.0762
  128OSM   H18G13775   6.013   1.563   8.008  0.8015 -1.0338  0.6590
  128OSM   H18H13776   6.004   1.710   8.124  2.8340  2.2062  0.0199
  129OSM      N13777   1.947   3.362   5.795 -0.2089 -0.4215  0.4977
  129OSM    C1513778   1.955   3.210   5.829  0.5728 -0.4509  0.3103
  129OSM   H15A13779   2.057   3.177   5.816  1.5915  1.7944  1.8955
  129OSM   H15B13780   1.906   3.153   5.752  0.8723 -1.8272  1.1125
  129OSM   H15C13781   1.924   3.195   5.931  2.3096 -0.6738  0.8413
  129OSM    C1413782   1.984   3.384   5.644 -0.1865 -0.1313 -0.8268
  129OSM   H14A13783   1.906   3.353   5.576 -0.4305 -1.4880  0.0205
  129OSM   H14B13784   2.072   3.330   5.611 -0.7824 -1.7003  0.0028
  129OSM   H14C13785   2.001   3.488   5.624 -1.5210  0.3552  0.4161
  129OSM    C1313786   1.799   3.405   5.813 -0.9541 -0.3270 -0.1389
  129OSM   H13A13787   1.782   3.511   5.797 -0.1895 -0.0407  0.8408
  129OSM   H13B13788   1.775   3.393   5.918 -0.9149  2.8684  0.3349
  129OSM   H13C13789   1.742   3.339   5.750  1.7594 -2.3930 -0.6526
  129OSM    C1213790   2.040   3.450   5.880  0.0603 -0.5490 -0.3345
  129OSM   H12A13791   2.036   3.552   5.844  0.1046  0.3836  2.1309
  129OSM   H12B13792   2.141   3.411   5.876  0.1160 -0.6157  1.1868
  129OSM    C1113793   2.001   3.462   6.027  0.1817  1.1017 -0.1357
  129OSM   H11A13794   1.894   3.491   6.038 -0.5631 -0.8252 -1.6312
  129OSM   H11B13795   2.064   3.542   6.071  0.2617  2.6988 -2.8969
  129OSM      P13796   2.141   3.289   6.167 -0.4132  0.3551  0.2266
  129OSM    O1313797   2.101   3.161   6.227  0.1907  0.6284 -0.1743
  129OSM    O1413798   2.253   3.282   6.073 -0.1390  0.8618 -0.0721
  129OSM    O1113799   2.171   3.395   6.280  0.0059 -0.0575 -0.2848
  129OSM    O1213800   2.014   3.334   6.091 -0.2015  0.2584  0.1790
  129OSM    C1S13801   2.077   3.409   6.388 -0.1166  0.4512  0.3422
  129OSM    H1S13802   1.996   3.333   6.385 -0.9220  1.1870  2.1932
  129OSM    H1T13803   2.042   3.515   6.385 -0.0242  0.4877 -2.7265
  129OSM     NF13804   2.066   3.398   6.630  0.4677 -0.5353 -0.3113
  129OSM    HNF13805   2.097   3.452   6.708  0.8541 -2.3725  0.8745
  129OSM    C2S13806   2.155   3.398   6.522 -1.0936 -0.4407  0.2053
  129OSM    H2S13807   2.210   3.302   6.514  1.5440  1.1019 -2.8885
  129OSM    C3S13808   2.275   3.501   6.529  0.6902 -0.3101 -0.1500
  129OSM    H3S13809   2.236   3.605   6.526  0.6007 -0.3106  0.8208
  129OSM     O313810   2.363   3.504   6.415 -0.0639  0.1588  0.2608
  129OSM    HO313811   2.313   3.460   6.345 -0.2874  0.7111  0.0672
  129OSM    C4S13812   2.354   3.497   6.658  0.0686  0.2647 -0.3823
  129OSM    H4S13813   2.328   3.582   6.723 -0.0582 -0.2575  0.2698
  129OSM    C5S13814   2.453   3.406   6.694  0.8702 -0.2126  0.5654
  129OSM    H5S13815   2.487   3.352   6.605 -0.5364 -2.0269  1.0827
  129OSM    C6S13816   2.540   3.384   6.816  0.1070  0.2714 -0.1871
  129OSM    H6S13817   2.636   3.437   6.799  0.1536  0.7258  1.3541
  129OSM    H6T13818   2.557   3.276   6.831 -1.3303  0.2291  1.4324
  129OSM    C7S13819   2.485   3.435   6.953 -0.0623 -0.0222 -0.1578
  129OSM    H7S13820   2.403   3.362   6.969  0.7972 -0.6441  1.6701
  129OSM    H7T13821   2.442   3.538   6.950 -0.2266 -0.0692  0.5059
  129OSM    C8S13822   2.583   3.413   7.073  0.3132 -0.3352  0.3866
  129OSM    H8S13823   2.672   3.479   7.062  0.1938 -0.2795 -0.3170
  129OSM    H8T13824   2.612   3.306   7.070 -0.0777 -0.4313 -1.3808
  129OSM    C9S13825   2.513   3.445   7.209 -0.4055 -0.1969  0.1081
  129OSM    H9S13826   2.446   3.359   7.230 -0.9607  0.2114  0.0240
  129OSM    H9T13827   2.452   3.537   7.205  0.0743  0.1562  0.6935
  129OSM   C10S13828   2.608   3.478   7.321 -0.3490  0.7364  0.3828
  129OSM   H10S13829   2.675   3.564   7.301  1.1502  0.0356  2.1380
  129OSM   H10T13830   2.671   3.387   7.334 -2.2343 -0.8999 -1.3347
  129OSM   C11S13831   2.547   3.515   7.454  0.1177  0.2010  0.0743
  129OSM   H11S13832   2.481   3.428   7.473  1.5229 -0.9527 -0.1319
  129OSM   H11T13833   2.486   3.606   7.436 -2.1725 -0.7726  2.3402
  129OSM   C12S13834   2.643   3.539   7.570 -0.2922  0.8118  0.4654
  129OSM   H12S13835   2.714   3.620   7.542 -1.2251  1.5254  0.1187
  129OSM   H12T13836   2.708   3.450   7.588 -1.5483 -0.3709 -0.5885
  129OSM   C13S13837   2.571   3.556   7.706 -0.0684 -0.7060  0.2616
  129OSM   H13S13838   2.496   3.475   7.718  0.3398 -0.7967  2.7422
  129OSM   H13T13839   2.524   3.657   7.701 -0.6266 -1.0081 -1.1353
  129OSM   C14S13840   2.667   3.550   7.823  0.4876 -0.0233 -0.5110
  129OSM   H14S13841   2.752   3.622   7.816  0.0709  0.9634  2.7452
  129OSM   H14T13842   2.711   3.448   7.823  0.8657  0.1297  0.0171
  129OSM   C15S13843   2.592   3.585   7.954  0.2095 -0.7156 -0.4857
  129OSM   H15S13844   2.486   3.552   7.953 -0.8781  2.3974 -1.5799
  129OSM   H15T13845   2.605   3.695   7.956  0.5209 -0.7321 -1.2298
  129OSM   C16S13846   2.664   3.522   8.070  0.1290  0.5561  0.8662
  129OSM   H16S13847   2.683   3.418   8.035  1.7354  0.8538  0.7964
  129OSM   H16T13848   2.618   3.508   8.170 -0.7399  0.7423  0.5011
  129OSM   C17S13849   2.798   3.593   8.098 -0.5351 -0.2494 -0.4682
  129OSM   H17S13850   2.797   3.688   8.154  0.7446  0.5460 -1.7329
  129OSM   H17T13851   2.847   3.621   8.002 -0.1039 -0.7075 -0.3873
  129OSM   C18S13852   2.905   3.512   8.171 -0.0641 -0.9081  0.0728
  129OSM   H18S13853   2.862   3.461   8.260  1.5039  0.7956  1.9125
  129OSM   H18T13854   2.990   3.573   8.209  0.2654 -1.3347  0.0343
  129OSM   H18U13855   2.942   3.439   8.096 -1.1311 -1.1533 -0.2348
  129OSM    C1F13856   1.959   3.326   6.642 -0.3446 -0.1298  0.4839
  129OSM     OF13857   1.941   3.221   6.590 -0.3401  0.1427  0.2241
  129OSM    C2F13858   1.847   3.386   6.728  0.2388  0.8793  0.2488
  129OSM    H2F13859   1.778   3.444   6.664 -0.4934  0.6552  0.8286
  129OSM    H2G13860   1.902   3.465   6.783  2.3055  0.9008 -1.6800
  129OSM    C3F13861   1.767   3.271   6.806  0.0163  0.4457  0.3004
  129OSM    H3F13862   1.832   3.218   6.880 -0.9779 -1.3379 -0.0693
  129OSM    H3G13863   1.745   3.194   6.730 -0.8729  1.2118 -0.2294
  129OSM    C4F13864   1.633   3.312   6.870  0.2089 -0.1828  0.0620
  129OSM    H4F13865   1.578   3.232   6.923 -1.2397 -0.7610 -2.1655
  129OSM    H4G13866   1.554   3.340   6.797 -0.6688 -1.2954  0.5603
  129OSM    C5F13867   1.651   3.427   6.974 -0.0644 -0.2609 -0.5846
  129OSM    H5F13868   1.548   3.452   7.007  0.0259 -1.8895  1.1080
  129OSM    H5G13869   1.701   3.512   6.922  0.8171 -0.8623 -0.7321
  129OSM    C6F13870   1.725   3.391   7.105 -0.3651 -0.0662  0.3797
  129OSM    H6F13871   1.733   3.479   7.172  2.4723 -0.0677  0.1462
  129OSM    H6G13872   1.825   3.347   7.087 -1.6739 -3.4008  0.5104
  129OSM    C7F13873   1.650   3.286   7.191 -0.2743 -0.1110 -0.1605
  129OSM    H7F13874   1.658   3.188   7.140  1.1130 -0.5505  0.8388
  129OSM    H7G13875   1.544   3.319   7.188 -0.3765 -0.1278  1.7344
  129OSM    C8F13876   1.709   3.287   7.337  0.7134 -0.3572  0.6122
  129OSM    H8F13877   1.718   3.392   7.372 -1.0813 -0.4196  1.3688
  129OSM    H8G13878   1.808   3.237   7.337 -0.1341 -2.1342  1.5279
  129OSM    C9F13879   1.624   3.210   7.435  0.4684  0.6514  0.4036
  129OSM    H9F13880   1.524   3.190   7.395  0.8236 -0.5983  0.0869
  129OSM   C10F13881   1.645   3.183   7.565  0.0900  0.0746  0.1531
  129OSM   H10F13882   1.578   3.117   7.623 -1.1485  0.5534 -0.6949
  129OSM   C11F13883   1.775   3.227   7.634  0.9762  0.0980 -0.0778
  129OSM   H11F13884   1.790   3.336   7.616 -0.7396  0.7329  1.7966
  129OSM   H11G13885   1.858   3.172   7.587 -0.9651 -1.2592 -2.0959
  129OSM   C12F13886   1.767   3.214   7.792 -0.1300  0.2263  0.1347
  129OSM   H12F13887   1.871   3.218   7.830  0.0212  3.1145 -0.3738
  129OSM   H12G13888   1.719   3.116   7.811 -0.9242  0.2525 -1.5371
  129OSM   C13F13889   1.678   3.319   7.860 -0.6331 -0.1087 -0.1454
  129OSM   H13F13890   1.573   3.284   7.848 -0.5094  0.1217 -2.3254
  129OSM   H13G13891   1.678   3.422   7.818 -1.0421  0.0174  0.1619
  129OSM   C14F13892   1.708   3.333   8.010 -0.6631  0.3903  0.1977
  129OSM   H14F13893   1.631   3.400   8.054 -0.9948  1.1465 -1.4655
  129OSM   H14G13894   1.805   3.388   8.009  0.0892 -0.8920 -0.9094
  129OSM   C15F13895   1.707   3.205   8.091 -0.3738 -0.2422 -0.5471
  129OSM   H15F13896   1.784   3.131   8.063  0.2173  0.6198 -1.2470
  129OSM   H15G13897   1.608   3.154   8.090  0.2753 -1.6331  0.7861
  129OSM   C16F13898   1.733   3.232   8.241 -0.4191  0.3063 -0.0967
  129OSM   H16F13899   1.654   3.300   8.279  0.7405  2.0228 -0.6390
  129OSM   H16G13900   1.817   3.303   8.253  0.0940 -0.5309  1.7059
  129OSM   C17F13901   1.752   3.112   8.334 -0.8655 -0.0316  0.4190
  129OSM   H17F13902   1.857   3.083   8.308 -1.3391 -0.1910 -1.4431
  129OSM   H17G13903   1.678   3.032   8.310  2.0155 -2.7970 -0.0197
  129OSM   C18F13904   1.742   3.139   8.486  0.1729 -0.0428  0.1199
  129OSM   H18F13905   1.829   3.202   8.515  0.4262 -1.1334  1.9271
  129OSM   H18G13906   1.749   3.047   8.549 -1.3922  0.0278  0.4367
  129OSM   H18H13907   1.649   3.187   8.524  0.6218  1.6567 -0.8266
  130OSM      N13908   4.492   0.980   6.436 -0.3179  0.3614 -0.2046
  130OSM    C1513909   4.375   1.009   6.522 -0.0327 -0.2540 -0.6464
  130OSM   H15A13910   4.408   1.008   6.625 -0.4734  0.8709 -0.4765
  130OSM   H15B13911   4.299   0.933   6.513 -1.2749  0.6963  1.1724
  130OSM   H15C13912   4.329   1.106   6.507 -0.8352 -0.1070  2.1571
  130OSM    C1413913   4.550   0.849   6.472 -0.7275  0.4665  0.0907
  130OSM   H14A13914   4.492   0.771   6.426  0.8390 -0.4430 -0.4516
  130OSM   H14B13915   4.565   0.829   6.577 -2.4142 -0.5328  0.1810
  130OSM   H14C13916   4.649   0.837   6.430  0.2836 -0.2419  2.4668
  130OSM    C1313917   4.459   0.971   6.292  0.0096 -0.2610 -0.1749
  130OSM   H13A13918   4.421   1.065   6.254 -0.4758 -0.1211  0.6307
  130OSM   H13B13919   4.378   0.902   6.274 -0.8089  0.5031  0.5116
  130OSM   H13C13920   4.548   0.958   6.231  0.0122  3.9770 -1.4077
  130OSM    C1213921   4.590   1.093   6.468 -0.2200  0.7513  0.0888
  130OSM   H12A13922   4.590   1.106   6.575  2.9002 -2.3942  0.6652
  130OSM   H12B13923   4.557   1.184   6.420  1.7646  1.9705  0.9071
  130OSM    C1113924   4.734   1.090   6.412  0.1978  0.4184  0.0621
  130OSM   H11A13925   4.781   1.189   6.430 -1.0707  1.6964 -3.0561
  130OSM   H11B13926   4.707   1.079   6.305  1.0317 -0.4731 -0.0744
  130OSM      P13927   4.930   0.918   6.387 -0.3213  0.3187  0.1784
  130OSM    O1313928   4.899   0.775   6.358 -0.0558  0.2859 -0.5001
  130OSM    O1413929   4.959   0.995   6.260 -0.2252 -0.3997 -0.8520
  130OSM    O1113930   5.042   0.933   6.497  0.0364 -0.6780  0.1667
  130OSM    O1213931   4.802   0.977   6.462 -0.1402 -0.3354  0.4736
  130OSM    C1S13932   5.010   0.935   6.635 -0.1704 -0.7716 -0.7925
  130OSM    H1S13933   4.921   0.873   6.660  1.4302 -3.1617 -0.6905
  130OSM    H1T13934   4.982   1.041   6.654  2.0018 -0.4724  1.1549
  130OSM     NF13935   5.068   0.891   6.860  0.7103  0.1059 -0.3861
  130OSM    HNF13936   5.097   0.957   6.929  2.0647  0.6773 -1.4523
  130OSM    C2S13937   5.129   0.897   6.728  0.5200  0.1061  0.0099
  130OSM    H2S13938   5.159   0.790   6.721  2.8602  0.6854  0.3313
  130OSM    C3S13939   5.236   1.009   6.715 -0.1141  0.0576  0.5177
  130OSM    H3S13940   5.173   1.101   6.718 -2.1119 -1.1447 -1.1008
  130OSM     O313941   5.300   1.017   6.586 -0.1162  0.1424 -0.0494
  130OSM    HO313942   5.239   0.978   6.523  0.4923 -0.8197 -0.0527
  130OSM    C4S13943   5.337   1.008   6.829  0.1274  0.1858 -0.3257
  130OSM    H4S13944   5.284   1.055   6.914  0.8953 -0.6761  0.6529
  130OSM    C5S13945   5.466   0.954   6.840 -0.2461  0.0543 -0.5380
  130OSM    H5S13946   5.512   0.902   6.755 -3.0652 -0.7082 -1.7012
  130OSM    C6S13947   5.541   0.964   6.976  1.2553 -0.9060  0.4079
  130OSM    H6S13948   5.632   1.024   6.957 -0.5328  1.3989 -1.5623
  130OSM    H6T13949   5.562   0.863   7.017  0.0697 -0.4393  2.3044
  130OSM    C7S13950   5.478   1.053   7.087  0.1113 -0.4434 -0.7653
  130OSM    H7S13951   5.379   1.015   7.121  0.7035 -1.1512  0.2410
  130OSM    H7T13952   5.462   1.156   7.050 -1.4699 -0.8551 -1.3472
  130OSM    C8S13953   5.564   1.080   7.211  0.8947  0.1285 -0.2938
  130OSM    H8S13954   5.484   1.117   7.279  0.2792  1.4960 -1.6900
  130OSM    H8T13955   5.631   1.167   7.192  0.7364  1.0838  2.9536
  130OSM    C9S13956   5.631   0.961   7.270 -0.0517 -0.3926  0.3434
  130OSM    H9S13957   5.721   0.939   7.208 -1.1064  2.2137 -2.3634
  130OSM    H9T13958   5.563   0.874   7.265 -2.4787  1.5070 -2.2723
  130OSM   C10S13959   5.677   0.990   7.410 -0.0097  0.0107  0.0295
  130OSM   H10S13960   5.590   0.989   7.479 -0.1428 -1.4485 -0.1317
  130OSM   H10T13961   5.717   1.092   7.424 -0.0312 -0.2210  1.9335
  130OSM   C11S13962   5.778   0.893   7.465  0.1729 -0.0776 -0.2891
  130OSM   H11S13963   5.867   0.881   7.400  0.8137 -1.4552  0.7880
  130OSM   H11T13964   5.731   0.793   7.475 -0.6590  0.4946  2.8585
  130OSM   C12S13965   5.822   0.922   7.607  0.4132 -1.2194 -1.0007
  130OSM   H12S13966   5.732   0.939   7.670  0.2795 -1.3375 -1.1584
  130OSM   H12T13967   5.867   1.024   7.601  0.6109 -1.3363 -1.5655
  130OSM   C13S13968   5.927   0.825   7.666 -0.5890 -0.5872  0.1234
  130OSM   H13S13969   6.022   0.879   7.683 -1.8317  1.4579  0.8823
  130OSM   H13T13970   5.937   0.738   7.598 -3.4320 -1.3343  0.5386
  130OSM   C14S13971   5.887   0.765   7.803  0.6824 -0.3951  0.4415
  130OSM   H14S13972   5.914   0.658   7.809  0.1400 -0.5596 -0.0075
  130OSM   H14T13973   5.776   0.767   7.803  0.6529  2.2555 -0.5247
  130OSM   C15S13974   5.946   0.839   7.925  0.7350 -0.0809  0.6776
  130OSM   H15S13975   5.886   0.932   7.938  0.1140  0.3543 -3.7177
  130OSM   H15T13976   6.053   0.862   7.903  0.9246 -1.7420 -0.3493
  130OSM   C16S13977   5.944   0.759   8.058 -0.0080  0.9923  0.3101
  130OSM   H16S13978   5.985   0.658   8.043 -1.3709  0.2441  1.3785
  130OSM   H16T13979   5.834   0.742   8.065 -0.3341  2.8115  0.2454
  130OSM   C17S13980   5.994   0.826   8.186  0.1955 -0.4797 -0.2970
  130OSM   H17S13981   5.970   0.934   8.181 -0.9604 -0.5792  1.9499
  130OSM   H17T13982   6.104   0.821   8.200 -0.0151 -0.9777  1.4724
  130OSM   C18S13983   5.940   0.763   8.317 -0.3549 -0.4012 -0.0781
  130OSM   H18S13984   5.950   0.653   8.308 -1.4137 -0.5193  0.0635
  130OSM   H18T13985   5.831   0.783   8.324 -0.7929 -2.4306 -0.4508
  130OSM   H18U13986   5.996   0.803   8.405 -1.2624 -0.6336  0.6172
  130OSM    C1F13987   4.985   0.791   6.899 -0.0844 -0.2492  0.1107
  130OSM     OF13988   4.976   0.679   6.846 -0.4752 -0.3453  0.5182
  130OSM    C2F13989   4.914   0.820   7.021  0.1866  0.3145 -0.3465
  130OSM    H2F13990   4.839   0.901   7.007 -0.2838 -0.1222 -0.3441
  130OSM    H2G13991   4.980   0.871   7.095  0.1810  1.1570 -0.9010
  130OSM    C3F13992   4.843   0.698   7.076  0.0791 -0.4649  0.0644
  130OSM    H3F13993   4.909   0.617   7.114 -1.8507 -2.0837  0.1685
  130OSM    H3G13994   4.777   0.660   6.995 -1.7914  3.0359 -0.2385
  130OSM    C4F13995   4.758   0.738   7.208 -0.2806  0.0025 -0.5363
  130OSM    H4F13996   4.668   0.789   7.168 -0.1564  0.7537  0.1090
  130OSM    H4G13997   4.813   0.811   7.272  0.8375 -0.7861 -0.5690
  130OSM    C5F13998   4.703   0.626   7.291  0.5045  0.0486  0.1219
  130OSM    H5F13999   4.661   0.548   7.223  2.6198  1.0661 -2.5742
  130OSM    H5G14000   4.615   0.672   7.342 -1.8051 -1.2207 -2.4225
  130OSM    C6F14001   4.788   0.567   7.404 -0.1048  0.1415 -0.2784
  130OSM    H6F14002   4.882   0.534   7.354  0.0985  1.1112 -0.5713
  130OSM    H6G14003   4.739   0.472   7.433  1.3228 -0.1026  1.4706
  130OSM    C7F14004   4.796   0.652   7.531 -0.1584  0.3445  0.5618
  130OSM    H7F14005   4.697   0.693   7.561 -0.5841 -0.9649  0.9927
  130OSM    H7G14006   4.858   0.742   7.510 -1.7397  1.3452 -0.0403
  130OSM    C8F14007   4.856   0.579   7.648  0.1441  0.6023  0.8795
  130OSM    H8F14008   4.957   0.543   7.622 -0.6973 -1.3065  0.0635
  130OSM    H8G14009   4.792   0.489   7.663 -0.0063  0.4943 -0.3520
  130OSM    C9F14010   4.865   0.667   7.773  0.5664  0.0661 -0.7158
  130OSM    H9F14011   4.924   0.759   7.764 -1.6981  1.4484 -2.7453
  130OSM   C10F14012   4.799   0.655   7.895  0.3354  0.9126  0.9244
  130OSM   H10F14013   4.819   0.728   7.975 -0.4091  0.9353  1.0938
  130OSM   C11F14014   4.703   0.540   7.933  0.2073  0.0823 -0.6153
  130OSM   H11F14015   4.768   0.458   7.968  0.9799  1.6887  2.0456
  130OSM   H11G14016   4.642   0.518   7.842 -0.7762 -0.0060  0.0454
  130OSM   C12F14017   4.604   0.558   8.057 -0.1090  0.1158  0.2151
  130OSM   H12F14018   4.557   0.460   8.083  2.3559 -1.2091  0.0016
  130OSM   H12G14019   4.530   0.640   8.045 -1.2909 -0.8731  0.4963
  130OSM   C13F14020   4.680   0.584   8.190 -0.5818 -0.4112  0.0631
  130OSM   H13F14021   4.720   0.687   8.181  2.7451 -1.5309  0.5679
  130OSM   H13G14022   4.771   0.521   8.203 -1.1313 -0.9481  1.5864
  130OSM   C14F14023   4.583   0.568   8.311  0.0702  0.3026  1.1853
  130OSM   H14F14024   4.550   0.462   8.318  2.6188 -0.6314  0.1188
  130OSM   H14G14025   4.497   0.637   8.296  1.8575  2.3326 -0.4122
  130OSM   C15F14026   4.655   0.594   8.440  0.3629 -0.1635  0.5849
  130OSM   H15F14027   4.702   0.694   8.428 -0.8240  0.4045  0.5057
  130OSM   H15G14028   4.735   0.518   8.453  0.6563  0.2303  1.1099
  130OSM   C16F14029   4.568   0.596   8.572 -0.2309  0.3282 -0.3190
  130OSM   H16F14030   4.495   0.513   8.584  1.2821 -0.8854  0.9204
  130OSM   H16G14031   4.499   0.682   8.570  1.8120  2.0202 -1.2598
  130OSM   C17F14032   4.653   0.626   8.693 -0.5519 -0.4756  0.0028
  130OSM   H17F14033   4.721   0.542   8.722 -1.0677 -0.8257  0.2072
  130OSM   H17G14034   4.585   0.623   8.781  0.3905  2.1895  0.9376
  130OSM   C18F14035   4.737   0.759   8.694 -0.4154  0.1113 -0.3969
  130OSM   H18F14036   4.751   0.817   8.601 -0.3094  1.4569  0.4289
  130OSM   H18G14037   4.835   0.726   8.735  1.3701  1.4469 -3.2925
  130OSM   H18H14038   4.692   0.832   8.765 -0.1365 -1.0893  1.0675
  131OSM      N14039   3.775   3.274   6.191  0.4987  0.1088 -0.3142
  131OSM    C1514040   3.770   3.159   6.092  0.2835  0.3021 -0.6668
  131OSM   H15A14041   3.846   3.087   6.116  0.2219  0.2635 -0.5874
  131OSM   H15B14042   3.785   3.186   5.988 -0.3945 -0.0178 -0.8582
  131OSM   H15C14043   3.682   3.100   6.114  0.2456  0.5636 -0.1225
  131OSM    C1414044   3.921   3.308   6.221  0.2497 -0.1042 -0.2212
  131OSM   H14A14045   3.929   3.402   6.274 -0.3779  0.4180 -1.0351
  131OSM   H14B14046   3.984   3.316   6.134  0.8067 -1.7904  0.0059
  131OSM   H14C14047   3.971   3.244   6.292  1.2823  3.4106  2.5148
  131OSM    C1314048   3.718   3.392   6.122 -0.4556  0.0575 -0.2967
  131OSM   H13A14049   3.611   3.398   6.136 -0.5059 -1.1436 -0.0082
  131OSM   H13B14050   3.758   3.382   6.022  2.1436 -2.0923  0.8241
  131OSM   H13C14051   3.748   3.482   6.174 -1.3111  0.3941 -0.3723
  131OSM    C1214052   3.692   3.233   6.308  0.5961  0.5483 -0.2358
  131OSM   H12A14053   3.728   3.134   6.332 -1.3865 -1.0137 -3.1667
  131OSM   H12B14054   3.589   3.234   6.275  0.6743 -0.9055 -0.5930
  131OSM    C1114055   3.692   3.318   6.437  0.3863 -0.6270 -0.5611
  131OSM   H11A14056   3.792   3.348   6.475  0.1345  2.9920 -2.3003
  131OSM   H11B14057   3.624   3.264   6.507 -2.2220 -0.8894 -3.0757
  131OSM      P14058   3.471   3.458   6.392 -0.0523 -0.0989 -0.2385
  131OSM    O1314059   3.433   3.606   6.395  0.8573 -0.7724 -0.4094
  131OSM    O1414060   3.425   3.383   6.277  0.2251 -1.1688 -0.1265
  131OSM    O1114061   3.411   3.383   6.519 -0.5691  0.2957 -0.0133
  131OSM    O1214062   3.631   3.447   6.414 -0.2208 -0.2870 -0.3369
  131OSM    C1S14063   3.427   3.436   6.653  0.3419 -0.2932 -0.5738
  131OSM    H1S14064   3.373   3.533   6.660 -1.2708 -0.6279 -5.0587
  131OSM    H1T14065   3.534   3.428   6.682  0.1216 -0.7400  0.1413
  131OSM     NF14066   3.381   3.375   6.896  0.3868  0.6401  1.0531
  131OSM    HNF14067   3.455   3.343   6.954 -1.5092  0.4725  3.5463
  131OSM    C2S14068   3.367   3.332   6.756  0.3682  0.5442  0.3406
  131OSM    H2S14069   3.260   3.312   6.734 -0.2339  3.2995  0.4018
  131OSM    C3S14070   3.437   3.187   6.732 -0.2179 -0.0847 -0.4260
  131OSM    H3S14071   3.547   3.200   6.737 -0.2702  1.0289 -1.5856
  131OSM     O314072   3.397   3.130   6.610  0.0046 -0.3229 -0.3590
  131OSM    HO314073   3.376   3.212   6.563 -0.0310  0.7880  1.5032
  131OSM    C4S14074   3.399   3.093   6.837  0.1711 -0.4855  0.2218
  131OSM    H4S14075   3.465   3.114   6.923  0.6837  3.0381 -0.8683
  131OSM    C5S14076   3.307   2.992   6.843 -0.3822 -0.7070 -0.1291
  131OSM    H5S14077   3.242   2.970   6.758 -1.0340  0.7432 -0.0392
  131OSM    C6S14078   3.282   2.906   6.964  0.1764  0.0924 -0.7184
  131OSM    H6S14079   3.314   2.802   6.942  0.8646 -0.0202  0.7305
  131OSM    H6T14080   3.172   2.910   6.975 -0.0542  0.6460 -2.7707
  131OSM    C7S14081   3.356   2.956   7.090  0.3979  0.4475  0.7575
  131OSM    H7S14082   3.313   3.056   7.110  0.4642  1.0894 -1.9305
  131OSM    H7T14083   3.465   2.963   7.068 -0.2420  0.4137 -3.2287
  131OSM    C8S14084   3.329   2.867   7.205  0.6743 -0.1974  0.6241
  131OSM    H8S14085   3.383   2.775   7.172  0.2905  0.4694 -2.0037
  131OSM    H8T14086   3.220   2.855   7.223  0.2359  1.3319 -0.8679
  131OSM    C9S14087   3.382   2.924   7.333  0.2849 -0.2682  0.1477
  131OSM    H9S14088   3.333   3.021   7.358  1.4624  0.8340 -1.6102
  131OSM    H9T14089   3.491   2.944   7.324  0.7755 -3.0156 -0.8429
  131OSM   C10S14090   3.360   2.833   7.455 -0.4625 -0.5426 -0.3486
  131OSM   H10S14091   3.412   2.736   7.437  0.9106  0.5321 -2.6174
  131OSM   H10T14092   3.253   2.801   7.460 -0.8831  0.7788 -0.4382
  131OSM   C11S14093   3.410   2.898   7.589 -0.0170 -0.0245  0.8726
  131OSM   H11S14094   3.348   2.860   7.674  0.8592 -3.4102  0.1433
  131OSM   H11T14095   3.410   3.008   7.574  0.9838  0.0099  1.0884
  131OSM   C12S14096   3.549   2.846   7.621 -0.0149  1.1447  0.2662
  131OSM   H12S14097   3.621   2.887   7.547  0.5028 -2.1556 -1.2205
  131OSM   H12T14098   3.549   2.735   7.610  0.0828  1.1941 -0.2900
  131OSM   C13S14099   3.596   2.874   7.763  0.3211  0.1257 -0.1343
  131OSM   H13S14100   3.674   2.807   7.806  0.7975  0.2986 -0.7120
  131OSM   H13T14101   3.508   2.851   7.827 -1.4483  1.3604 -2.0287
  131OSM   C14S14102   3.642   3.023   7.782  0.3006 -0.2517  0.8025
  131OSM   H14S14103   3.548   3.080   7.795 -1.3208 -2.2049 -1.6644
  131OSM   H14T14104   3.686   3.066   7.690 -0.8948  2.1089  1.2609
  131OSM   C15S14105   3.734   3.031   7.904  0.6116  0.0996  0.7041
  131OSM   H15S14106   3.756   3.139   7.923  1.4076  0.0244  0.2619
  131OSM   H15T14107   3.833   2.984   7.887  1.2336  0.6007  2.6066
  131OSM   C16S14108   3.684   2.980   8.036  0.5068 -0.9302 -0.7930
  131OSM   H16S14109   3.627   2.885   8.026 -2.1408  0.3259  0.9819
  131OSM   H16T14110   3.616   3.059   8.075  1.3741  0.4684 -2.0149
  131OSM   C17S14111   3.785   2.964   8.146 -0.2648 -0.4893 -0.1481
  131OSM   H17S14112   3.866   3.037   8.125 -1.0210 -0.2332 -2.3932
  131OSM   H17T14113   3.829   2.862   8.136 -1.3195 -0.8089 -1.9922
  131OSM   C18S14114   3.730   2.974   8.284  0.4584  0.7608  0.3022
  131OSM   H18S14115   3.808   2.946   8.358  0.8662 -0.1185 -0.4453
  131OSM   H18T14116   3.656   2.891   8.295  0.9546  0.1186 -0.9965
  131OSM   H18U14117   3.684   3.072   8.309  1.0078  1.5865 -1.7775
  131OSM    C1F14118   3.306   3.471   6.938  0.3900 -0.2506 -0.4703
  131OSM     OF14119   3.208   3.511   6.873  0.1653  0.2162 -0.6037
  131OSM    C2F14120   3.338   3.531   7.069  0.0891 -0.3306 -0.2772
  131OSM    H2F14121   3.439   3.572   7.051  0.7159 -1.5045  0.4452
  131OSM    H2G14122   3.336   3.451   7.146  1.1374  2.0771  2.3991
  131OSM    C3F14123   3.232   3.634   7.112 -0.0082 -0.4854 -0.0803
  131OSM    H3F14124   3.132   3.587   7.104  0.7430 -2.5967  1.9896
  131OSM    H3G14125   3.235   3.721   7.042 -1.2581  0.8012  1.3642
  131OSM    C4F14126   3.250   3.693   7.250 -0.5505  0.3301 -0.1292
  131OSM    H4F14127   3.342   3.755   7.244 -1.7273  2.0909 -1.0125
  131OSM    H4G14128   3.283   3.607   7.312 -1.6797 -0.4040 -0.5024
  131OSM    C5F14129   3.121   3.754   7.303  0.3747  0.8837  0.9833
  131OSM    H5F14130   3.039   3.680   7.317 -0.3423  1.4580 -0.1259
  131OSM    H5G14131   3.087   3.835   7.236 -0.6438  0.2129  0.6666
  131OSM    C6F14132   3.140   3.816   7.434  0.0652  0.2287 -0.3872
  131OSM    H6F14133   3.054   3.883   7.452 -1.0321 -1.5076  1.2491
  131OSM    H6G14134   3.228   3.883   7.439  0.6607 -0.5738  0.3298
  131OSM    C7F14135   3.138   3.710   7.547 -0.0519  0.2083  0.2944
  131OSM    H7F14136   3.229   3.651   7.523  0.3077  0.7474  0.2959
  131OSM    H7G14137   3.045   3.650   7.540 -0.5614  1.2078 -3.1076
  131OSM    C8F14138   3.157   3.770   7.688  0.2873 -0.9785 -0.3766
  131OSM    H8F14139   3.067   3.830   7.713  1.3275  0.2565  0.5375
  131OSM    H8G14140   3.244   3.840   7.687 -1.5865  1.5409  0.7353
  131OSM    C9F14141   3.175   3.668   7.801 -0.0178 -0.0175  1.1603
  131OSM    H9F14142   3.153   3.566   7.765  0.0872  0.5331 -0.5565
  131OSM   C10F14143   3.214   3.691   7.926 -0.6692 -0.4736  0.1097
  131OSM   H10F14144   3.218   3.604   7.994 -0.2395 -0.1191  0.5472
  131OSM   C11F14145   3.262   3.822   7.988 -0.8702 -0.2787  0.3479
  131OSM   H11F14146   3.250   3.914   7.926  2.9413  0.7215  0.8700
  131OSM   H11G14147   3.370   3.808   8.007 -0.6215  1.8614  0.7609
  131OSM   C12F14148   3.194   3.840   8.128 -0.4251 -0.2492  0.3936
  131OSM   H12F14149   3.084   3.856   8.126 -0.3776  0.0989  0.3653
  131OSM   H12G14150   3.227   3.940   8.166 -4.0981  0.6200  1.7362
  131OSM   C13F14151   3.215   3.730   8.238  0.1823 -0.9871  0.4609
  131OSM   H13F14152   3.324   3.711   8.249  0.0819 -1.4851  0.5944
  131OSM   H13G14153   3.168   3.633   8.210 -0.9920 -0.6330  1.1501
  131OSM   C14F14154   3.158   3.762   8.374 -0.1778 -0.3952  0.2760
  131OSM   H14F14155   3.050   3.785   8.365  0.1140  0.7831 -0.3000
  131OSM   H14G14156   3.206   3.856   8.408  0.4828 -0.9790  1.0204
  131OSM   C15F14157   3.206   3.665   8.480  0.1715 -0.3083 -0.2449
  131OSM   H15F14158   3.313   3.657   8.509  0.2540 -0.1132 -0.4962
  131OSM   H15G14159   3.197   3.560   8.444  0.2559 -1.0451  1.7510
  131OSM   C16F14160   3.140   3.681   8.621 -0.2182 -0.2580 -0.6138
  131OSM   H16F14161   3.035   3.714   8.610  0.4296  2.1657 -0.0020
  131OSM   H16G14162   3.203   3.760   8.666  0.2845 -2.3448  2.7047
  131OSM   C17F14163   3.132   3.555   8.706  0.1921 -0.0496 -0.8636
  131OSM   H17F14164   3.236   3.517   8.717  0.6346  1.2186 -0.4931
  131OSM   H17G14165   3.084   3.476   8.644  1.9070 -1.0313 -1.0029
  131OSM   C18F14166   3.057   3.566   8.837  0.4093  0.3347 -0.7886
  131OSM   H18F14167   3.050   3.463   8.877 -1.3523  0.1065 -1.5973
  131OSM   H18G14168   2.957   3.611   8.822  0.1366  0.0119  0.0180
  131OSM   H18H14169   3.105   3.635   8.909 -2.1029  0.8968  0.4371
  132OSM      N14170   0.238   1.119   6.100 -0.1552  0.0410 -0.5118
  132OSM    C1514171   0.116   1.059   6.037 -0.0200 -0.0687  0.6398
  132OSM   H15A14172   0.121   0.952   6.026 -2.2460 -0.2875  1.2454
  132OSM   H15B14173   0.092   1.107   5.943  1.2525 -2.6905 -1.1550
  132OSM   H15C14174   0.035   1.085   6.104 -0.4466 -0.3042  0.2204
  132OSM    C1414175   0.250   1.062   6.232 -0.1159  0.4233  0.7835
  132OSM   H14A14176   0.271   0.957   6.216  1.5469  1.1011 -2.4302
  132OSM   H14B14177   0.156   1.071   6.284 -2.2451  0.2247 -2.7658
  132OSM   H14C14178   0.327   1.114   6.288  1.0474  0.5969 -0.8920
  132OSM    C1314179   0.343   1.061   6.022  0.0574 -0.7095 -0.2996
  132OSM   H13A14180   0.440   1.093   6.057  0.7383 -1.1616 -1.6851
  132OSM   H13B14181   0.341   1.090   5.918  0.7801  1.3670  0.2232
  132OSM   H13C14182   0.339   0.953   6.026  0.6934 -0.9007 -2.9616
  132OSM    C1214183   0.245   1.270   6.101  0.5910 -0.1650 -0.4974
  132OSM   H12A14184   0.182   1.324   6.170  0.5313  0.2428 -0.8745
  132OSM   H12B14185   0.209   1.296   6.003  0.3159  1.5762  0.0416
  132OSM    C1114186   0.378   1.328   6.133  0.7768 -0.4178  0.0153
  132OSM   H11A14187   0.370   1.438   6.114  1.4760 -0.3798 -0.0786
  132OSM   H11B14188   0.457   1.291   6.064  0.8660  2.5322 -1.6779
  132OSM      P14189   0.569   1.292   6.308 -0.1365 -0.0732  0.1069
  132OSM    O1314190   0.574   1.186   6.411 -0.2636  0.3369 -0.1323
  132OSM    O1414191   0.664   1.284   6.196 -0.0074 -0.1613  0.1414
  132OSM    O1114192   0.612   1.432   6.377 -0.0989  0.5756  0.1241
  132OSM    O1214193   0.414   1.307   6.268  0.4178  0.5702  0.0855
  132OSM    C1S14194   0.542   1.501   6.481  0.1584 -0.1055 -0.2310
  132OSM    H1S14195   0.443   1.458   6.503 -0.5871  2.0536  1.0313
  132OSM    H1T14196   0.532   1.610   6.461 -0.7417 -0.1883 -0.2363
  132OSM     NF14197   0.546   1.577   6.712  0.8692 -0.0974  0.3860
  132OSM    HNF14198   0.586   1.663   6.743  2.9148 -1.3167  1.3255
  132OSM    C2S14199   0.624   1.505   6.611  0.2650 -0.4192  0.1132
  132OSM    H2S14200   0.646   1.404   6.649  0.0508 -0.1613  0.9495
  132OSM    C3S14201   0.764   1.571   6.588  1.0465  0.3752  0.2528
  132OSM    H3S14202   0.748   1.679   6.563  0.6654  0.5567  1.2308
  132OSM     O314203   0.837   1.532   6.472 -0.1935  0.1475 -0.2979
  132OSM    HO314204   0.778   1.470   6.428  0.1683 -0.6073  0.2644
  132OSM    C4S14205   0.845   1.570   6.712 -1.3353  0.5509  0.4094
  132OSM    H4S14206   0.829   1.659   6.775 -0.4513  0.3341  0.9631
  132OSM    C5S14207   0.929   1.468   6.750  0.9357 -0.0530 -0.3863
  132OSM    H5S14208   0.914   1.375   6.692 -0.8940  0.4145 -0.7343
  132OSM    C6S14209   1.009   1.446   6.879 -0.4311 -0.0205  0.0446
  132OSM    H6S14210   1.097   1.513   6.882 -2.2257  2.6121 -1.8544
  132OSM    H6T14211   1.045   1.341   6.881 -0.0462  0.0784 -1.1570
  132OSM    C7S14212   0.911   1.470   7.003  0.5493  0.2300  0.1722
  132OSM    H7S14213   0.830   1.394   7.009  0.5790 -0.2330 -3.4821
  132OSM    H7T14214   0.856   1.564   6.984  0.1831 -0.3636 -1.8806
  132OSM    C8S14215   0.986   1.476   7.140 -0.3717 -0.6087  0.8046
  132OSM    H8S14216   0.930   1.534   7.216 -2.2581 -0.8182 -0.3572
  132OSM    H8T14217   1.081   1.528   7.117 -0.6846  0.1054  1.0896
  132OSM    C9S14218   1.029   1.334   7.187  0.0204  0.3877 -0.2948
  132OSM    H9S14219   1.078   1.290   7.097  1.2507 -1.7233  1.3130
  132OSM    H9T14220   0.946   1.261   7.192  0.5141 -0.2428 -0.9459
  132OSM   C10S14221   1.120   1.342   7.308 -0.1538  0.1159 -1.0276
  132OSM   H10S14222   1.180   1.436   7.310 -0.5934  0.3823  0.0463
  132OSM   H10T14223   1.186   1.254   7.294  1.3097  1.4899 -3.6046
  132OSM   C11S14224   1.041   1.348   7.441  0.8110  0.3274 -0.7804
  132OSM   H11S14225   0.956   1.277   7.431  0.7919  0.3225 -0.5865
  132OSM   H11T14226   0.994   1.447   7.459 -0.6758 -0.3274 -0.9235
  132OSM   C12S14227   1.130   1.325   7.567  0.3377  0.3696  0.6763
  132OSM   H12S14228   1.208   1.404   7.571  0.7375  0.0944 -0.9818
  132OSM   H12T14229   1.189   1.233   7.547  1.3833  0.7931  1.6601
  132OSM   C13S14230   1.052   1.306   7.698  0.2890  0.2146  0.2307
  132OSM   H13S14231   0.992   1.214   7.686  0.1426  0.2406  0.7485
  132OSM   H13T14232   0.980   1.391   7.706 -0.8660 -0.4903 -1.8124
  132OSM   C14S14233   1.151   1.296   7.817  0.3751 -0.4437  0.7320
  132OSM   H14S14234   1.183   1.402   7.833  0.5615 -0.3877  0.0002
  132OSM   H14T14235   1.240   1.236   7.790  1.4152  1.1248  0.5383
  132OSM   C15S14236   1.074   1.249   7.944 -0.7082  0.3690 -0.3791
  132OSM   H15S14237   1.052   1.140   7.935 -0.1416  0.1529  0.6781
  132OSM   H15T14238   0.975   1.299   7.950 -1.2397 -0.6280 -0.5606
  132OSM   C16S14239   1.151   1.279   8.076 -0.1012  0.1840  0.0745
  132OSM   H16S14240   1.171   1.388   8.065 -2.3216  0.5369 -1.1365
  132OSM   H16T14241   1.241   1.213   8.079  0.1346  0.5334  0.6610
  132OSM   C17S14242   1.069   1.245   8.201 -0.9648 -0.2202  0.1038
  132OSM   H17S14243   1.146   1.253   8.281  0.4401  1.6524 -1.3407
  132OSM   H17T14244   1.036   1.139   8.193 -0.4619 -0.7789  3.7847
  132OSM   C18S14245   0.949   1.341   8.207 -0.0067 -0.6295 -0.2671
  132OSM   H18S14246   0.991   1.441   8.184 -0.3067 -0.1346  1.2331
  132OSM   H18T14247   0.892   1.337   8.302  0.0813  0.7614 -0.1337
  132OSM   H18U14248   0.884   1.324   8.118 -0.9358  1.1295  0.0373
  132OSM    C1F14249   0.433   1.531   6.764  0.4369  0.6137  0.1522
  132OSM     OF14250   0.404   1.409   6.752 -0.3671 -0.2150  0.6185
  132OSM    C2F14251   0.342   1.622   6.845  0.4554 -0.2095 -0.5219
  132OSM    H2F14252   0.246   1.619   6.788  1.2561 -2.3799 -1.8923
  132OSM    H2G14253   0.377   1.725   6.825 -2.1479  0.3988 -2.6278
  132OSM    C3F14254   0.337   1.591   6.997 -0.6793 -0.1664 -0.8243
  132OSM    H3F14255   0.304   1.489   7.025 -0.1143 -0.8641 -2.5675
  132OSM    H3G14256   0.261   1.665   7.030 -0.6207 -0.8756  1.0254
  132OSM    C4F14257   0.463   1.607   7.078  0.2619 -0.3939 -0.3112
  132OSM    H4F14258   0.523   1.699   7.060  0.7291 -0.9594 -1.7623
  132OSM    H4G14259   0.534   1.524   7.057  2.5050  1.8769 -2.5609
  132OSM    C5F14260   0.434   1.588   7.227  0.3065 -0.5577 -1.1128
  132OSM    H5F14261   0.380   1.493   7.246  0.2116 -0.3028 -0.0670
  132OSM    H5G14262   0.381   1.680   7.260  1.8362 -0.4519  1.2726
  132OSM    C6F14263   0.558   1.586   7.320  0.0310  0.3783 -0.0218
  132OSM    H6F14264   0.619   1.674   7.291  0.9935 -0.3713 -0.3437
  132OSM    H6G14265   0.622   1.495   7.310 -0.5220  0.0102 -0.2712
  132OSM    C7F14266   0.521   1.600   7.471 -0.1321 -0.4063 -0.2232
  132OSM    H7F14267   0.492   1.504   7.517  0.9727 -0.0401  1.3252
  132OSM    H7G14268   0.435   1.669   7.467 -1.4590 -1.9091  1.0240
  132OSM    C8F14269   0.628   1.682   7.550 -0.0392 -0.4901 -0.3074
  132OSM    H8F14270   0.560   1.751   7.604  1.6223  0.2257  0.9768
  132OSM    H8G14271   0.699   1.734   7.483  1.7621 -2.8879 -0.3788
  132OSM    C9F14272   0.726   1.604   7.637  0.5281  0.0508  0.0572
  132OSM    H9F14273   0.829   1.603   7.601 -0.0907  1.5856 -1.9572
  132OSM   C10F14274   0.688   1.530   7.740  0.0721 -0.1128 -0.2028
  132OSM   H10F14275   0.767   1.474   7.792  0.7823  0.0782 -1.0616
  132OSM   C11F14276   0.544   1.527   7.787 -0.6970 -0.3852 -0.0130
  132OSM   H11F14277   0.509   1.422   7.781 -1.4123 -0.1748  0.3618
  132OSM   H11G14278   0.473   1.582   7.721 -1.3518  1.0819  1.8378
  132OSM   C12F14279   0.533   1.575   7.931 -0.3142 -0.5169  0.0892
  132OSM   H12F14280   0.597   1.511   7.996 -1.5892 -1.4240  0.4973
  132OSM   H12G14281   0.432   1.561   7.976  1.0023  0.9350  3.8846
  132OSM   C13F14282   0.580   1.724   7.945  0.0921  0.3381  0.6501
  132OSM   H13F14283   0.504   1.786   7.892  0.6514 -1.2998 -2.3131
  132OSM   H13G14284   0.674   1.747   7.890  0.2814 -1.9562 -0.0895
  132OSM   C14F14285   0.590   1.762   8.096 -0.6127  0.0912 -0.5709
  132OSM   H14F14286   0.491   1.770   8.147  0.1561 -0.3821  1.0439
  132OSM   H14G14287   0.635   1.864   8.097 -0.0657 -0.1510  0.4720
  132OSM   C15F14288   0.674   1.674   8.183  0.1457  0.4832 -0.3551
  132OSM   H15F14289   0.779   1.657   8.149  0.8365 -0.0423  1.9042
  132OSM   H15G14290   0.627   1.574   8.193 -2.1577  1.5586  0.1736
  132OSM   C16F14291   0.696   1.738   8.326  0.3164  0.3019  0.3601
  132OSM   H16F14292   0.595   1.763   8.364  0.8921  0.6750  1.6976
  132OSM   H16G14293   0.758   1.829   8.308  0.4637 -0.2647 -2.4644
  132OSM   C17F14294   0.781   1.644   8.414  0.2026 -0.7093 -0.4085
  132OSM   H17F14295   0.882   1.632   8.369 -0.3372 -2.5083 -1.2445
  132OSM   H17G14296   0.737   1.542   8.404  1.3744 -1.0325 -3.3458
  132OSM   C18F14297   0.787   1.687   8.563 -0.3547  0.1494 -0.2498
  132OSM   H18F14298   0.845   1.612   8.620  1.3238  1.6782  0.1521
  132OSM   H18G14299   0.693   1.711   8.617 -0.9806 -0.8161 -0.9074
  132OSM   H18H14300   0.853   1.777   8.569 -0.4460  0.1299  1.6375
  133SAPE     N14301   0.884   4.226  10.822  0.2838 -0.2463  0.3317
  133SAPE   HN114302   0.911   4.172  10.906  1.1306  0.1718  0.3374
  133SAPE   HN214303   0.970   4.220  10.763 -0.6102  1.7779 -1.2740
  133SAPE   HN314304   0.861   4.321  10.855  0.6441 -0.6823  1.9420
  133SAPE   C1214305   0.762   4.176  10.746  0.5307  1.0185  0.5339
  133SAPE  H12A14306   0.780   4.073  10.708 -1.5059 -0.3689  2.9880
  133SAPE  H12B14307   0.760   4.249  10.662  3.6971  2.0182  1.2245
  133SAPE   C1114308   0.629   4.171  10.836  0.6882  0.1035  0.0644
  133SAPE  H11A14309   0.645   4.090  10.911  1.4966 -0.6266 -0.8740
  133SAPE  H11B14310   0.546   4.140  10.769 -0.1322  3.1209 -0.4456
  133SAPE     P14311   0.620   4.439  10.856 -0.1437 -0.5702  0.1285
  133SAPE   O1314312   0.548   4.535  10.945 -0.1634 -0.2561  0.3695
  133SAPE   O1414313   0.772   4.450  10.840 -0.5058  0.2284 -0.0779
  133SAPE   O1214314   0.600   4.292  10.911  0.8509 -0.1923  0.4012
  133SAPE   O1114315   0.558   4.427  10.712 -0.7016 -0.1890 -0.7616
  133SAPE    C114316   0.420   4.465  10.681 -0.5016 -0.5172 -0.9590
  133SAPE    HA14317   0.357   4.451  10.772  2.2471  2.0869  1.5855
  133SAPE    HB14318   0.425   4.574  10.659  1.7911  0.1209  2.0144
  133SAPE    C214319   0.367   4.384  10.564  0.3815  0.4018  1.0714
  133SAPE    HS14320   0.424   4.289  10.572  1.7720  1.0821 -0.2136
  133SAPE   O2114321   0.387   4.469  10.447  0.4982  0.0164  0.0816
  133SAPE   C2114322   0.429   4.413  10.336 -0.2282  1.0485  0.3633
  133SAPE   O2214323   0.462   4.290  10.326 -0.4697 -0.2235 -0.6072
  133SAPE   C2214324   0.431   4.523  10.228 -0.0078 -0.5028  0.1258
  133SAPE   H2R14325   0.328   4.566  10.223  0.0379 -0.2381  1.2669
  133SAPE   H2S14326   0.496   4.611  10.248 -0.3614  0.4761 -2.5480
  133SAPE    C314327   0.214   4.367  10.568  0.1878 -0.0416  0.1399
  133SAPE    HX14328   0.175   4.471  10.569 -2.4581 -0.9515 -0.9088
  133SAPE    HY14329   0.175   4.330  10.665  0.8048 -1.9890 -0.3156
  133SAPE   O3114330   0.150   4.294  10.470  0.0454 -0.3168  0.4629
  133SAPE   C3114331   0.186   4.173  10.467  1.1396 -0.7257 -0.0940
  133SAPE   O3214332   0.245   4.107  10.549 -0.5325 -0.3805  0.5294
  133SAPE   C3214333   0.160   4.122  10.327  0.1995 -0.2185  0.6235
  133SAPE   H2X14334   0.187   4.014  10.327  1.7201  0.1271 -0.5161
  133SAPE   H2Y14335   0.235   4.170  10.261  0.4643 -0.0463  1.0475
  133SAPE   C2314336   0.465   4.469  10.082 -0.7190 -0.5242 -0.1405
  133SAPE   H3R14337   0.392   4.414  10.018 -0.6807  1.8506 -2.3833
  133SAPE   H3S14338   0.551   4.400  10.091  0.7666  1.4060  1.3767
  133SAPE   C2414339   0.509   4.579   9.977  0.1221  0.3507 -0.3511
  133SAPE   H4R14340   0.440   4.666   9.982  1.7455  1.6324  1.1875
  133SAPE   H4S14341   0.492   4.536   9.876  1.3841 -1.0039 -0.0211
  133SAPE   C2514342   0.653   4.629  10.003 -0.6281  0.1559  0.1372
  133SAPE   H5R14343   0.665   4.700  10.087 -1.9487  1.3600 -0.6432
  133SAPE   C2614344   0.755   4.599   9.916  0.7753 -0.2503  0.5842
  133SAPE   H6R14345   0.857   4.632   9.941  1.1033 -0.0932 -0.8669
  133SAPE   C2714346   0.758   4.503   9.794  0.2318  0.2270 -0.1013
  133SAPE   H7R14347   0.656   4.481   9.757  0.5175  0.5060 -1.0880
  133SAPE   H7S14348   0.804   4.408   9.827  1.4366  0.3777 -1.2479
  133SAPE   C2814349   0.845   4.569   9.684 -0.0826  0.1058 -0.0285
  133SAPE   H8R14350   0.869   4.674   9.709 -3.2401  0.9776 -0.1861
  133SAPE   C2914351   0.900   4.517   9.568 -0.1850 -0.4781 -0.1853
  133SAPE   H9R14352   0.942   4.582   9.490 -1.8475 -0.2407 -0.9363
  133SAPE  C21014353   0.868   4.372   9.529  0.2772  0.6963 -0.5637
  133SAPE  H10R14354   0.828   4.313   9.613  2.1926  2.7569  1.9923
  133SAPE  H10S14355   0.960   4.311   9.511 -0.9861 -1.5462  0.2420
  133SAPE  C21114356   0.773   4.348   9.409 -0.7559  0.7448 -0.2110
  133SAPE  H11R14357   0.712   4.434   9.381  0.5404  1.6942 -0.1956
  133SAPE  C21214358   0.778   4.237   9.327  0.1166  0.3340 -0.4381
  133SAPE  H12R14359   0.714   4.240   9.237  0.9383 -0.1896 -1.0575
  133SAPE  C21314360   0.868   4.120   9.342 -0.2730 -0.1769 -0.0224
  133SAPE  H13R14361   0.911   4.124   9.444  0.3295 -0.4860 -0.2624
  133SAPE  H13S14362   0.954   4.121   9.272 -1.2550  2.0014 -1.2997
  133SAPE  C21414363   0.786   3.993   9.319 -0.7991  0.1753 -0.1708
  133SAPE  H14R14364   0.755   3.954   9.221 -0.1509 -1.0696  0.0997
  133SAPE  C21514365   0.741   3.915   9.416  0.4317  0.0804 -0.1590
  133SAPE  H15R14366   0.679   3.830   9.384 -0.9223  0.4390  1.3846
  133SAPE  C21614367   0.747   3.939   9.566  0.4430 -0.0466  0.0194
  133SAPE  H16R14368   0.833   4.003   9.596  1.1888 -1.6553  1.4661
  133SAPE  H16S14369   0.773   3.840   9.608 -0.9660 -0.0979  0.8355
  133SAPE  C21714370   0.614   3.986   9.631  0.2435  0.0021  0.6829
  133SAPE  H17R14371   0.530   3.921   9.598 -0.5013  1.7922 -1.1746
  133SAPE  H17S14372   0.598   4.092   9.604  1.3569 -0.0954 -0.4576
  133SAPE  C21814373   0.609   3.969   9.779 -0.3605  0.1321 -0.1562
  133SAPE  H18R14374   0.660   3.874   9.807  0.8616  1.0156  0.7192
  133SAPE  H18S14375   0.505   3.974   9.818  0.1756  1.5584  1.1443
  133SAPE  C21914376   0.683   4.083   9.851  0.0755 -0.1499  0.9642
  133SAPE  H19R14377   0.648   4.179   9.807  1.4339 -1.0404 -2.3635
  133SAPE  H19S14378   0.788   4.064   9.818 -0.3489 -0.2717 -0.3893
  133SAPE  C22014379   0.683   4.068  10.001  0.1331 -1.2726  0.1559
  133SAPE  H20R14380   0.726   3.968  10.018 -2.2178 -2.5698 -0.9939
  133SAPE  H20S14381   0.578   4.070  10.037  0.3015  2.5573  0.8970
  133SAPE  H20T14382   0.752   4.140  10.050 -1.1756 -0.7813  1.3588
  133SAPE   C3314383   0.017   4.140  10.266 -0.4160  0.2102 -0.4857
  133SAPE   H3X14384  -0.005   4.240  10.223 -1.5173 -0.3992 -1.3920
  133SAPE   H3Y14385  -0.054   4.124  10.349  0.3611 -0.8782 -0.0122
  133SAPE   C3414386  -0.007   4.032  10.155  0.1213 -0.0191 -0.6859
  133SAPE   H4X14387  -0.117   4.030  10.141 -0.5860  0.4284  3.4197
  133SAPE   H4Y14388   0.016   3.935  10.205 -1.3297 -0.6295 -1.1396
  133SAPE   C3514389   0.076   4.047  10.026  0.0377 -0.3771  0.1089
  133SAPE   H5X14390   0.043   3.948   9.988 -2.3918 -0.9730  3.3146
  133SAPE   H5Y14391   0.183   4.063  10.052 -0.5264  0.6089  2.0175
  133SAPE   C3614392   0.010   4.131   9.918  0.3734 -0.5510  0.2409
  133SAPE   H6X14393  -0.014   4.233   9.955  2.0112 -0.3036  0.7089
  133SAPE   H6Y14394  -0.087   4.086   9.886  0.5486 -0.7929  0.0491
  133SAPE   C3714395   0.111   4.152   9.803 -0.1857 -0.0527  0.1143
  133SAPE   H7X14396   0.073   4.237   9.742 -1.0324 -0.5825 -0.1070
  133SAPE   H7Y14397   0.120   4.057   9.747  0.4548  0.5621 -0.8608
  133SAPE   C3814398   0.249   4.205   9.843  0.1268 -0.2709 -0.3066
  133SAPE   H8X14399   0.305   4.123   9.892  1.7040  1.8303  1.6451
  133SAPE   H8Y14400   0.235   4.275   9.928  0.8934 -0.9085  0.3622
  133SAPE   C3914401   0.340   4.258   9.731 -0.0113  0.2514 -0.0436
  133SAPE   H9X14402   0.349   4.174   9.658  1.6154  0.8376 -0.5609
  133SAPE   H9Y14403   0.437   4.280   9.780  0.0068 -0.3224  0.1897
  133SAPE  C31014404   0.293   4.376   9.648 -0.2658  0.3733 -0.1953
  133SAPE  H10X14405   0.299   4.466   9.714 -0.3503  1.7689 -1.9964
  133SAPE  H10Y14406   0.187   4.368   9.614 -0.7294  0.5299  1.1227
  133SAPE  C31114407   0.382   4.412   9.531  0.2421  0.8633 -0.1203
  133SAPE  H11X14408   0.385   4.321   9.467 -4.1964 -0.4666  1.2191
  133SAPE  H11Y14409   0.484   4.433   9.571  0.9342  1.8631 -2.3111
  133SAPE  C31214410   0.333   4.527   9.448 -0.1422 -0.2249 -0.2266
  133SAPE  H12X14411   0.333   4.614   9.517  4.3408  0.0945 -0.3444
  133SAPE  H12Y14412   0.228   4.502   9.422 -1.0389  2.7682  0.1261
  133SAPE  C31314413   0.410   4.565   9.329 -0.1020  0.3332  0.1683
  133SAPE  H13X14414   0.514   4.593   9.358  0.5778 -3.6943  2.4533
  133SAPE  H13Y14415   0.363   4.651   9.278  1.6764  0.9372 -0.5422
  133SAPE  C31414416   0.432   4.452   9.228  0.8345 -0.3905 -0.4686
  133SAPE  H14X14417   0.476   4.363   9.278 -1.3037 -0.7690  0.8541
  133SAPE  H14Y14418   0.500   4.473   9.142  0.3479  0.2597 -0.7081
  133SAPE  C31514419   0.297   4.410   9.155  0.6594 -0.2348 -0.1501
  133SAPE  H15X14420   0.268   4.511   9.118  2.6265  0.3600 -0.1776
  133SAPE  H15Y14421   0.219   4.382   9.229 -1.2216  0.4660 -1.7727
  133SAPE  C31614422   0.325   4.312   9.043 -0.1989  0.4277  0.1754
  133SAPE  H16X14423   0.325   4.205   9.074 -0.6116 -0.4167 -2.4823
  133SAPE  H16Y14424   0.428   4.321   9.004 -0.8647 -0.1097 -1.8350
  133SAPE  C31714425   0.230   4.324   8.922  0.5804 -0.3062  0.5098
  133SAPE  H17X14426   0.258   4.413   8.861 -0.9593  1.2955  2.0055
  133SAPE  H17Y14427   0.122   4.331   8.950 -0.7268 -1.4603 -3.5775
  133SAPE  C31814428   0.250   4.189   8.849 -0.1489  0.2626 -0.0178
  133SAPE  H18X14429   0.170   4.174   8.773 -0.1452  1.1344 -0.2050
  133SAPE  H18Y14430   0.242   4.112   8.928  2.8082  1.7600  1.9379
  133SAPE  H18Z14431   0.349   4.170   8.802 -0.8043  0.6327 -1.6084
  134SAPE     N14432   2.846   0.305  10.904  0.6081 -0.1137  0.2184
  134SAPE   HN114433   2.808   0.231  10.966  0.7911  0.9575  1.6680
  134SAPE   HN214434   2.782   0.309  10.823 -0.6558  1.6255  1.2365
  134SAPE   HN314435   2.942   0.280  10.873  0.6394 -0.8316  0.8597
  134SAPE   C1214436   2.828   0.432  10.976  0.0488  1.0119 -0.7102
  134SAPE  H12A14437   2.888   0.419  11.068  0.5921 -1.7899 -1.3588
  134SAPE  H12B14438   2.719   0.440  10.997 -0.3235 -1.2300 -1.5002
  134SAPE   C1114439   2.872   0.543  10.886  0.2612 -0.5986 -0.1544
  134SAPE  H11A14440   2.874   0.637  10.946 -1.8790 -0.4984 -0.1741
  134SAPE  H11B14441   2.807   0.561  10.798  0.8189  0.4003 -0.3679
  134SAPE     P14442   3.128   0.613  10.838 -0.4225  0.0846  0.2870
  134SAPE   O1314443   3.131   0.687  10.968 -0.4259  0.0891  0.1231
  134SAPE   O1414444   3.257   0.543  10.809 -0.4633  0.2454 -0.5378
  134SAPE   O1214445   3.008   0.512  10.829  0.5669  0.3050  0.1764
  134SAPE   O1114446   3.099   0.714  10.724 -0.7579  0.0325 -0.8118
  134SAPE    C114447   3.198   0.790  10.651  0.3639  0.9740  0.0419
  134SAPE    HA14448   3.165   0.893  10.677 -0.5303  0.5018  0.8137
  134SAPE    HB14449   3.304   0.768  10.673  0.2299 -2.7282 -2.0679
  134SAPE    C214450   3.175   0.779  10.492 -0.3031 -0.8750 -0.2105
  134SAPE    HS14451   3.186   0.879  10.445 -2.0386 -0.1684  0.7729
  134SAPE   O2114452   3.048   0.733  10.458 -0.3971  0.5522 -0.1792
  134SAPE   C2114453   2.944   0.806  10.497 -0.1992 -0.0862 -0.1577
  134SAPE   O2214454   2.951   0.916  10.553  0.2207  0.0047 -0.0906
  134SAPE   C2214455   2.817   0.735  10.443 -0.2401 -0.8143 -0.1633
  134SAPE   H2R14456   2.829   0.706  10.336  2.6718  1.0077 -0.4427
  134SAPE   H2S14457   2.795   0.640  10.497  1.4083 -1.6335 -0.8750
  134SAPE    C314458   3.285   0.685  10.424  0.3918  0.4359 -0.0748
  134SAPE    HX14459   3.247   0.586  10.458 -0.0304  0.9582  1.0483
  134SAPE    HY14460   3.386   0.701  10.467  0.4118  0.5360 -0.1601
  134SAPE   O3114461   3.300   0.695  10.283  0.2920 -0.4337 -0.2185
  134SAPE   C3114462   3.407   0.652  10.227  0.6152 -0.3593  0.0656
  134SAPE   O3214463   3.500   0.597  10.284 -0.6518  0.1808  0.1935
  134SAPE   C3214464   3.394   0.668  10.077 -0.2518  0.1245 -0.6786
  134SAPE   H2X14465   3.314   0.605  10.032  0.0975 -0.0263 -1.0954
  134SAPE   H2Y14466   3.495   0.641  10.038  0.4007  2.7058 -0.9732
  134SAPE   C2314467   2.698   0.833  10.439 -0.0236 -0.2376 -0.4867
  134SAPE   H3R14468   2.713   0.911  10.362 -4.5157  0.2337 -1.1137
  134SAPE   H3S14469   2.688   0.886  10.537  0.7326  2.2431 -1.6692
  134SAPE   C2414470   2.560   0.763  10.413 -0.1197 -0.7881  0.4171
  134SAPE   H4R14471   2.539   0.696  10.500  1.9737 -0.2853  1.3886
  134SAPE   H4S14472   2.587   0.706  10.322  2.0098  0.1527  0.4025
  134SAPE   C2514473   2.455   0.868  10.394  0.0176 -0.1905  0.0300
  134SAPE   H5R14474   2.410   0.920  10.480 -1.1468 -0.3712 -0.4531
  134SAPE   C2614475   2.405   0.911  10.271 -0.2908  0.6985 -0.0171
  134SAPE   H6R14476   2.320   0.980  10.276 -2.6711 -2.1213  1.0558
  134SAPE   C2714477   2.450   0.871  10.132 -0.2683 -0.9441  0.3048
  134SAPE   H7R14478   2.549   0.822  10.126 -0.0115 -0.2861 -0.9925
  134SAPE   H7S14479   2.455   0.961  10.067 -0.7481 -2.0223 -1.2543
  134SAPE   C2814480   2.345   0.779  10.076 -0.3536  0.4466 -0.1728
  134SAPE   H8R14481   2.349   0.676  10.114 -0.5978  1.4712  2.9055
  134SAPE   C2914482   2.254   0.801   9.981  0.2331  0.4377 -0.1317
  134SAPE   H9R14483   2.187   0.719   9.951 -0.9125  1.0812  0.5873
  134SAPE  C21014484   2.223   0.935   9.911 -0.1264 -0.3728  0.4938
  134SAPE  H10R14485   2.318   0.992   9.909  0.7123 -1.6699  2.1701
  134SAPE  H10S14486   2.151   0.976   9.985 -0.9955 -1.2596  0.1682
  134SAPE  C21114487   2.161   0.932   9.774  0.3768  0.5078 -0.3403
  134SAPE  H11R14488   2.056   0.899   9.778  0.5983 -0.5853 -2.2462
  134SAPE  C21214489   2.218   0.965   9.656 -0.8047  0.1041  0.2785
  134SAPE  H12R14490   2.169   0.953   9.559  2.2043 -0.2408 -1.3305
  134SAPE  C21314491   2.362   1.012   9.636 -0.4249 -0.7470  0.3161
  134SAPE  H13R14492   2.396   0.968   9.540  0.8878  0.2114  0.3146
  134SAPE  H13S14493   2.435   0.975   9.711  1.9786  2.4205 -0.2440
  134SAPE  C21414494   2.365   1.165   9.643 -0.3263  0.1394  0.0623
  134SAPE  H14R14495   2.290   1.206   9.712 -0.4223  2.2306 -1.2297
  134SAPE  C21514496   2.440   1.247   9.558  0.8610  0.1067 -0.2976
  134SAPE  H15R14497   2.442   1.355   9.579  2.4897  0.3847 -1.6834
  134SAPE  C21614498   2.543   1.204   9.458  0.7335 -0.3467  0.4941
  134SAPE  H16R14499   2.558   1.094   9.464  0.7698 -0.3955 -0.4803
  134SAPE  H16S14500   2.637   1.256   9.489  1.4200 -0.5560 -1.1686
  134SAPE  C21714501   2.504   1.252   9.315 -0.0969  0.0532 -0.7715
  134SAPE  H17R14502   2.592   1.234   9.251  1.2962  1.9070  0.5342
  134SAPE  H17S14503   2.495   1.362   9.310  1.4880  0.2619  0.1968
  134SAPE  C21814504   2.384   1.179   9.249 -0.4681  0.5232 -0.3402
  134SAPE  H18R14505   2.295   1.184   9.316 -1.0559  0.4855 -1.1058
  134SAPE  H18S14506   2.403   1.071   9.230  1.2945  0.3812  1.8058
  134SAPE  C21914507   2.339   1.257   9.126 -0.1176 -0.0453  0.9175
  134SAPE  H19R14508   2.314   1.362   9.151 -1.0113  0.0668 -0.3371
  134SAPE  H19S14509   2.242   1.218   9.088  0.1912  0.2097 -0.1706
  134SAPE  C22014510   2.442   1.250   9.006  0.1133 -0.0762 -0.4700
  134SAPE  H20R14511   2.461   1.144   8.981  2.9742 -0.1832  1.6363
  134SAPE  H20S14512   2.534   1.307   9.034  1.5120 -1.2529 -2.4583
  134SAPE  H20T14513   2.400   1.307   8.921  0.3246  1.0240  0.1356
  134SAPE   C3314514   3.383   0.818  10.030  0.0314  0.1397 -0.6179
  134SAPE   H3X14515   3.469   0.878  10.067 -1.9151  2.5006  0.3852
  134SAPE   H3Y14516   3.287   0.849  10.077  0.8629 -2.2027  2.9889
  134SAPE   C3414517   3.395   0.834   9.881  0.1269  0.4599 -0.0539
  134SAPE   H4X14518   3.337   0.746   9.844 -0.0689  0.4317  0.3135
  134SAPE   H4Y14519   3.500   0.814   9.850  0.2757 -0.1750  0.8047
  134SAPE   C3514520   3.337   0.962   9.817  0.2614 -0.4660 -0.0260
  134SAPE   H5X14521   3.379   1.049   9.872 -2.4322 -1.0546  3.3107
  134SAPE   H5Y14522   3.229   0.967   9.844  0.1022  1.5059 -0.8549
  134SAPE   C3614523   3.339   0.977   9.667  0.3101 -0.1342 -0.0698
  134SAPE   H6X14524   3.292   0.885   9.625 -0.6724  0.1280  0.4285
  134SAPE   H6Y14525   3.449   0.969   9.651  0.7279 -0.8111  2.7011
  134SAPE   C3714526   3.278   1.100   9.609 -0.6530 -0.1465 -0.4788
  134SAPE   H7X14527   3.315   1.196   9.653 -0.6369 -0.4370  0.1562
  134SAPE   H7Y14528   3.168   1.097   9.623 -0.5552 -1.8365  0.1100
  134SAPE   C3814529   3.311   1.118   9.459 -0.1640 -0.0355 -0.0531
  134SAPE   H8X14530   3.273   1.020   9.423  0.8173 -0.7829  0.8801
  134SAPE   H8Y14531   3.421   1.131   9.448  0.1236 -0.2039  2.0904
  134SAPE   C3914532   3.235   1.233   9.398  0.2339  0.1247  1.1211
  134SAPE   H9X14533   3.267   1.333   9.436 -0.7205  0.8738  0.0258
  134SAPE   H9Y14534   3.129   1.213   9.423 -0.5960  0.9273 -1.4047
  134SAPE  C31014535   3.242   1.232   9.248  0.6800  0.4240  0.2024
  134SAPE  H10X14536   3.221   1.127   9.219 -1.4424  0.2570  2.0455
  134SAPE  H10Y14537   3.349   1.250   9.223  1.0104 -1.4415  0.1272
  134SAPE  C31114538   3.143   1.327   9.183  0.5432  0.5606 -0.3887
  134SAPE  H11X14539   3.188   1.427   9.204  0.0222  0.7525 -0.1786
  134SAPE  H11Y14540   3.044   1.325   9.233  1.8175  0.6404  2.3150
  134SAPE  C31214541   3.123   1.318   9.033 -0.1144 -0.1796 -0.5736
  134SAPE  H12X14542   3.084   1.218   9.006 -1.3809  0.3182 -0.6838
  134SAPE  H12Y14543   3.228   1.322   8.995  0.1709  0.7528  0.2598
  134SAPE  C31314544   3.034   1.429   8.970  0.2252 -0.1650 -0.6339
  134SAPE  H13X14545   3.040   1.426   8.859  0.0216  2.5330 -0.7969
  134SAPE  H13Y14546   3.066   1.530   9.003 -1.6790 -0.0115  0.9647
  134SAPE  C31414547   2.886   1.404   9.013 -0.1106  0.3077  0.1362
  134SAPE  H14X14548   2.881   1.390   9.123  3.2890 -1.4668  0.2298
  134SAPE  H14Y14549   2.861   1.302   8.976  2.0896 -0.2609  0.0755
  134SAPE  C31514550   2.793   1.514   8.957  0.0819 -0.2025 -0.2138
  134SAPE  H15X14551   2.852   1.609   8.951 -2.8078  1.7879  0.6756
  134SAPE  H15Y14552   2.706   1.529   9.025  0.6084  1.9638  0.0491
  134SAPE  C31614553   2.743   1.470   8.816 -0.0315  0.6378 -0.1278
  134SAPE  H16X14554   2.671   1.386   8.832  0.7389  0.1038  0.6442
  134SAPE  H16Y14555   2.817   1.426   8.747  0.2945 -1.6565  1.5759
  134SAPE  C31714556   2.659   1.585   8.761 -0.2739 -0.2450  0.1066
  134SAPE  H17X14557   2.586   1.622   8.835  2.1410 -0.4706  2.7452
  134SAPE  H17Y14558   2.607   1.549   8.669 -0.1518  0.5478 -0.2812
  134SAPE  C31814559   2.755   1.696   8.711 -0.3474 -0.1892  0.1132
  134SAPE  H18X14560   2.835   1.643   8.655 -1.0677  0.3870 -1.5349
  134SAPE  H18Y14561   2.803   1.758   8.790  4.1009 -0.7799 -1.8439
  134SAPE  H18Z14562   2.697   1.769   8.651 -2.5316 -1.0327  1.0861
  135SAPE     N14563   0.797   5.961  10.386 -0.7156 -0.5133 -0.2064
  135SAPE   HN114564   0.776   5.987  10.288  1.8527 -4.4170 -2.0406
  135SAPE   HN214565   0.801   5.858  10.396 -2.4811 -0.4872  1.2437
  135SAPE   HN314566   0.736   6.001  10.461 -0.5624 -1.0195  0.1911
  135SAPE   C1214567   0.932   6.023  10.435  0.5722 -1.1534 -0.3920
  135SAPE  H12A14568   0.941   5.990  10.540 -1.4296 -1.7581 -0.3649
  135SAPE  H12B14569   0.914   6.133  10.434  1.6703 -0.9541 -1.2881
  135SAPE   C1114570   1.049   5.995  10.340  0.2620 -0.5610  0.0843
  135SAPE  H11A14571   1.134   6.064  10.358  0.1000 -0.8363  2.2699
  135SAPE  H11B14572   1.023   6.021  10.236  0.7962 -0.0625  0.0700
  135SAPE     P14573   1.214   5.820  10.441 -0.2632 -0.1961  0.0238
  135SAPE   O1314574   1.325   5.911  10.413 -0.3637 -0.3858  0.1507
  135SAPE   O1414575   1.167   5.812  10.579  0.0041  0.0733 -0.2713
  135SAPE   O1214576   1.092   5.858  10.344 -0.4941  0.6531 -0.0902
  135SAPE   O1114577   1.243   5.673  10.390  0.0556  0.2430  0.1835
  135SAPE    C114578   1.141   5.574  10.369 -0.0314 -0.0979 -0.2329
  135SAPE    HA14579   1.162   5.486  10.434 -1.3229 -1.3553 -1.4411
  135SAPE    HB14580   1.043   5.613  10.405  0.3499  0.2684  0.4213
  135SAPE    C214581   1.134   5.522  10.222 -0.0596  0.6224  0.2300
  135SAPE    HS14582   1.053   5.446  10.227 -2.1360  2.4685 -2.4844
  135SAPE   O2114583   1.266   5.465  10.178  1.2685 -0.3248  0.3489
  135SAPE   C2114584   1.256   5.351  10.120 -0.1800 -0.5762 -0.5860
  135SAPE   O2214585   1.154   5.291  10.086 -0.5346  0.3780 -0.0449
  135SAPE   C2214586   1.401   5.296  10.104 -0.1111  0.6104 -0.6511
  135SAPE   H2R14587   1.477   5.377  10.111  0.7184 -0.2636  1.2711
  135SAPE   H2S14588   1.426   5.227  10.187  0.6865 -0.4479 -1.7438
  135SAPE    C314589   1.087   5.620  10.112  0.4040 -0.0954  1.3132
  135SAPE    HX14590   1.155   5.707  10.107 -0.4398  0.5963  1.5963
  135SAPE    HY14591   0.989   5.651  10.154 -0.3643 -1.2228  0.4300
  135SAPE   O3114592   1.087   5.552   9.983 -0.4035 -0.2444 -0.2342
  135SAPE   C3114593   0.966   5.508   9.935 -0.0964  0.5355 -0.3445
  135SAPE   O3214594   0.861   5.564   9.972 -0.2935 -0.1877  0.2955
  135SAPE   C3214595   0.971   5.397   9.838  0.0681 -0.8775 -0.2701
  135SAPE   H2X14596   1.011   5.308   9.892  0.4120 -1.3843 -1.3268
  135SAPE   H2Y14597   1.039   5.430   9.756  1.4912 -0.5414  0.9803
  135SAPE   C2314598   1.416   5.213   9.975  0.1371 -0.1847 -0.4406
  135SAPE   H3R14599   1.352   5.261   9.898  0.7331  1.6589  0.1657
  135SAPE   H3S14600   1.377   5.110   9.993 -0.6995 -0.3534 -2.8617
  135SAPE   C2414601   1.561   5.182   9.922 -0.0662  0.4138  0.3889
  135SAPE   H4R14602   1.563   5.118   9.831 -0.4862  1.7302 -0.5863
  135SAPE   H4S14603   1.628   5.135   9.996  2.0007  1.6528 -0.5985
  135SAPE   C2514604   1.632   5.312   9.885 -0.2107  0.4700  0.5504
  135SAPE   H5R14605   1.641   5.382   9.969  0.4436  2.6071 -1.1875
  135SAPE   C2614606   1.681   5.356   9.761 -0.0848 -0.0911  0.3196
  135SAPE   H6R14607   1.727   5.456   9.756 -0.0406  0.0421  2.2850
  135SAPE   C2714608   1.675   5.280   9.626  0.1737  0.2526 -0.3997
  135SAPE   H7R14609   1.578   5.311   9.581  1.3219  1.5567 -2.1258
  135SAPE   H7S14610   1.667   5.172   9.647  0.4580  0.6983  2.5326
  135SAPE   C2814611   1.784   5.311   9.532 -0.0644  0.2670 -0.1505
  135SAPE   H8R14612   1.882   5.307   9.582 -0.0345 -1.0438 -0.2871
  135SAPE   C2914613   1.775   5.320   9.399  0.8092 -0.0870 -0.1065
  135SAPE   H9R14614   1.869   5.341   9.346  0.1003 -0.3191 -1.4931
  135SAPE  C21014615   1.647   5.325   9.318  0.2998  0.0385  0.2122
  135SAPE  H10R14616   1.656   5.409   9.246  0.7509  0.4664  0.7604
  135SAPE  H10S14617   1.553   5.348   9.371  0.4803  0.0989  0.5105
  135SAPE  C21114618   1.637   5.192   9.252 -0.4222 -0.0722  0.1734
  135SAPE  H11R14619   1.613   5.113   9.324 -3.3841 -1.5072 -2.1576
  135SAPE  C21214620   1.668   5.158   9.125 -0.2630  0.5026  0.7223
  135SAPE  H12R14621   1.679   5.050   9.106 -0.0364  0.0981  2.8581
  135SAPE  C21314622   1.719   5.250   9.013  0.4507  0.1346 -0.3477
  135SAPE  H13R14623   1.766   5.195   8.929  0.4822 -0.2392 -0.0909
  135SAPE  H13S14624   1.804   5.314   9.044  0.9619  0.5289 -2.4509
  135SAPE  C21414625   1.601   5.325   8.954 -0.3367  0.1661 -0.0668
  135SAPE  H14R14626   1.527   5.356   9.029 -0.1265 -2.6920  1.4573
  135SAPE  C21514627   1.577   5.351   8.821 -0.1067 -0.7383  0.1268
  135SAPE  H15R14628   1.482   5.402   8.800  1.2510  2.1030  0.4834
  135SAPE  C21614629   1.656   5.300   8.703  0.1643 -1.0413  0.3914
  135SAPE  H16R14630   1.700   5.201   8.725 -1.9430 -2.8085 -2.6202
  135SAPE  H16S14631   1.737   5.369   8.669 -0.8762 -0.9116 -2.0143
  135SAPE  C21714632   1.570   5.284   8.582 -0.0041 -0.0263 -0.4862
  135SAPE  H17R14633   1.542   5.387   8.553  2.2595  1.3308  1.7529
  135SAPE  H17S14634   1.481   5.227   8.616 -0.2603  0.6229 -0.0610
  135SAPE  C21814635   1.641   5.202   8.471 -0.1293  0.0409  0.1708
  135SAPE  H18R14636   1.695   5.123   8.527  0.4284 -0.3815 -0.9349
  135SAPE  H18S14637   1.709   5.276   8.424  0.6776 -0.2078  0.9415
  135SAPE  C21914638   1.539   5.162   8.363  0.1885 -0.0841 -0.2027
  135SAPE  H19R14639   1.587   5.106   8.280 -1.2078 -0.6163 -0.6816
  135SAPE  H19S14640   1.482   5.240   8.308 -0.9920 -0.0883  0.9623
  135SAPE  C22014641   1.432   5.059   8.425 -0.1556  0.3474  0.0348
  135SAPE  H20R14642   1.475   5.003   8.510  1.3820  0.0908 -0.8757
  135SAPE  H20S14643   1.402   4.983   8.349  1.6638 -1.2761  0.8487
  135SAPE  H20T14644   1.338   5.101   8.466  0.1890 -0.1560  1.3733
  135SAPE   C3314645   0.849   5.354   9.766  0.6634 -0.1999  0.2508
  135SAPE   H3X14646   0.881   5.297   9.676  2.2468  0.3402  0.4382
  135SAPE   H3Y14647   0.781   5.435   9.734 -1.0628 -1.3641  0.8195
  135SAPE   C3414648   0.751   5.266   9.847  0.2264  0.0227  0.1605
  135SAPE   H4X14649   0.716   5.322   9.937  2.2179  0.0214  0.9859
  135SAPE   H4Y14650   0.805   5.186   9.901  0.6474  2.2725  3.3782
  135SAPE   C3514651   0.637   5.208   9.765  0.1633 -0.4125 -0.5159
  135SAPE   H5X14652   0.584   5.290   9.713 -0.8572 -0.5543  0.2824
  135SAPE   H5Y14653   0.558   5.167   9.831 -0.7017  1.5451 -0.2757
  135SAPE   C3614654   0.692   5.103   9.669 -0.6587  0.1489  0.3363
  135SAPE   H6X14655   0.797   5.087   9.704  0.3374 -0.6069 -2.6727
  135SAPE   H6Y14656   0.708   5.150   9.570 -3.1828 -1.2965 -0.8402
  135SAPE   C3714657   0.608   4.975   9.648 -0.2929  0.1810  0.0875
  135SAPE   H7X14658   0.511   4.996   9.597  0.9393 -0.0735 -2.5353
  135SAPE   H7Y14659   0.582   4.933   9.748 -1.3634 -0.1734 -0.3193
  135SAPE   C3814660   0.680   4.872   9.559 -0.3566  0.6843  0.7538
  135SAPE   H8X14661   0.606   4.793   9.535 -0.0071  0.8693 -1.0621
  135SAPE   H8Y14662   0.762   4.810   9.601  0.0161 -0.1152 -1.0845
  135SAPE   C3914663   0.740   4.933   9.427  0.2395  0.3999 -0.0076
  135SAPE   H9X14664   0.820   5.008   9.441 -1.5666  2.4169 -0.0246
  135SAPE   H9Y14665   0.649   4.979   9.383 -0.6069 -0.2567  0.9757
  135SAPE  C31014666   0.795   4.824   9.342  0.0376 -0.1041 -0.6142
  135SAPE  H10X14667   0.733   4.732   9.344 -0.4559  0.2299 -0.1145
  135SAPE  H10Y14668   0.898   4.799   9.375 -0.8205 -2.2356  0.6860
  135SAPE  C31114669   0.792   4.858   9.192  0.3679  0.3348  0.9554
  135SAPE  H11X14670   0.822   4.964   9.177  1.3547  0.3675  2.7683
  135SAPE  H11Y14671   0.683   4.863   9.172  0.8096  2.6976 -1.3339
  135SAPE  C31214672   0.848   4.753   9.096  0.0517 -0.1387  0.2382
  135SAPE  H12X14673   0.955   4.732   9.112  0.3713  1.3776  0.2673
  135SAPE  H12Y14674   0.839   4.785   8.990 -0.1850 -1.2565 -0.0935
  135SAPE  C31314675   0.775   4.617   9.099 -0.6652 -0.5274  0.7828
  135SAPE  H13X14676   0.665   4.625   9.093 -0.7799 -1.5492  1.3191
  135SAPE  H13Y14677   0.814   4.561   9.187  1.7815 -1.9835 -1.0778
  135SAPE  C31414678   0.825   4.539   8.978 -0.2814 -0.1271  0.6658
  135SAPE  H14X14679   0.936   4.536   8.985 -0.3296 -2.8727  1.4792
  135SAPE  H14Y14680   0.779   4.595   8.894 -0.6432 -1.5437 -0.1107
  135SAPE  C31514681   0.776   4.392   8.982 -0.6814  0.5343 -0.4451
  135SAPE  H15X14682   0.669   4.405   8.956 -0.8241 -2.8310 -2.0415
  135SAPE  H15Y14683   0.790   4.348   9.083  1.0655  0.7784 -0.5480
  135SAPE  C31614684   0.843   4.298   8.876 -0.8505 -0.3453  0.0823
  135SAPE  H16X14685   0.953   4.312   8.877 -1.0199  1.0195  1.0641
  135SAPE  H16Y14686   0.798   4.325   8.778  0.9711  1.1209 -0.3857
  135SAPE  C31714687   0.815   4.155   8.906  0.2583  0.2134  0.0508
  135SAPE  H17X14688   0.705   4.142   8.922  0.1695  0.3620 -0.4334
  135SAPE  H17Y14689   0.855   4.139   9.008 -0.9903  0.2169  0.5695
  135SAPE  C31814690   0.858   4.053   8.810  0.2083  0.2291  0.2666
  135SAPE  H18X14691   0.815   4.056   8.708 -2.4164 -2.6827  1.1199
  135SAPE  H18Y14692   0.817   3.954   8.838  1.2622 -0.1664  0.4804
  135SAPE  H18Z14693   0.969   4.047   8.800  0.3654  2.3129  0.3149
  136SAPE     N14694   4.607   5.976  10.882 -0.3036 -0.5521  0.4988
  136SAPE   HN114695   4.643   6.064  10.926  0.6571 -1.4703  1.6242
  136SAPE   HN214696   4.514   5.991  10.840  0.7330  1.8317 -1.1732
  136SAPE   HN314697   4.585   5.921  10.968  0.5595 -0.6540  0.6684
  136SAPE   C1214698   4.706   5.913  10.793  0.4181  0.3809 -0.3220
  136SAPE  H12A14699   4.798   5.919  10.855  0.3514 -2.2388  0.1403
  136SAPE  H12B14700   4.722   5.978  10.704 -0.3235  0.8122 -0.1503
  136SAPE   C1114701   4.663   5.768  10.749 -0.6460 -0.1827  0.0062
  136SAPE  H11A14702   4.747   5.717  10.695 -0.6207 -1.6980  1.4172
  136SAPE  H11B14703   4.573   5.777  10.685 -1.5414  1.6769  1.4374
  136SAPE     P14704   4.656   5.537  10.877 -0.1205 -0.2705 -0.0645
  136SAPE   O1314705   4.797   5.506  10.899  0.0632  0.1182 -0.0268
  136SAPE   O1414706   4.563   5.487  10.982 -0.3855 -0.1654  0.0823
  136SAPE   O1214707   4.638   5.693  10.866  0.0127 -0.2743 -0.2554
  136SAPE   O1114708   4.612   5.475  10.746  0.4570  0.2724 -0.2974
  136SAPE    C114709   4.634   5.336  10.719 -0.3227  0.4500 -1.1837
  136SAPE    HA14710   4.739   5.308  10.744 -0.5785  0.2949 -0.2625
  136SAPE    HB14711   4.578   5.275  10.793  0.3376  2.0510  0.7071
  136SAPE    C214712   4.620   5.300  10.570  0.7926  0.1385  0.2363
  136SAPE    HS14713   4.521   5.329  10.527  0.5357 -2.1761 -0.9141
  136SAPE   O2114714   4.631   5.158  10.558 -0.2928  0.0889 -0.0121
  136SAPE   C2114715   4.519   5.090  10.581 -0.7494 -0.0222 -0.4252
  136SAPE   O2214716   4.412   5.140  10.612  0.2624  0.2208 -0.5058
  136SAPE   C2214717   4.531   4.940  10.562 -0.2077 -0.3888  0.0326
  136SAPE   H2R14718   4.612   4.927  10.488 -1.1601  0.5530 -1.2280
  136SAPE   H2S14719   4.557   4.893  10.659  2.6033 -0.5952 -0.7251
  136SAPE    C314720   4.721   5.377  10.485 -0.0210 -0.4860  0.0731
  136SAPE    HX14721   4.821   5.357  10.528  0.5614 -2.0690 -1.8224
  136SAPE    HY14722   4.708   5.486  10.498 -0.9574 -0.4681 -0.8892
  136SAPE   O3114723   4.717   5.334  10.344  0.5985  0.1313  0.5531
  136SAPE   C3114724   4.805   5.232  10.316 -0.0552 -0.5624  0.1492
  136SAPE   O3214725   4.865   5.165  10.393  0.2056 -0.3120 -0.2013
  136SAPE   C3214726   4.809   5.210  10.163 -0.1605 -0.4677  0.3217
  136SAPE   H2X14727   4.904   5.156  10.143 -0.0258  0.3419 -1.3305
  136SAPE   H2Y14728   4.817   5.310  10.116  3.8142 -1.1420 -0.7692
  136SAPE   C2314729   4.398   4.886  10.504 -0.0844 -0.4804  0.3710
  136SAPE   H3R14730   4.374   4.915  10.399 -0.6706 -1.7621  0.1394
  136SAPE   H3S14731   4.313   4.928  10.561 -0.3232 -0.2743 -0.1312
  136SAPE   C2414732   4.379   4.731  10.506  0.3153  0.5029  0.3739
  136SAPE   H4R14733   4.279   4.709  10.464  0.1699  2.6775 -0.5125
  136SAPE   H4S14734   4.362   4.697  10.610 -3.2004  1.3812  0.1957
  136SAPE   C2514735   4.488   4.656  10.427  0.0673 -0.1672 -0.0282
  136SAPE   H5R14736   4.582   4.636  10.480  0.6583  1.4322 -0.4177
  136SAPE   C2614737   4.475   4.605  10.300 -0.3901 -0.3641 -0.4682
  136SAPE   H6R14738   4.560   4.556  10.250  1.3541  2.0642 -0.0958
  136SAPE   C2714739   4.354   4.624  10.219  0.4169  0.5778 -0.1412
  136SAPE   H7R14740   4.347   4.730  10.189 -2.1536  1.2897  2.5381
  136SAPE   H7S14741   4.263   4.610  10.281 -1.1791  0.2462 -2.4226
  136SAPE   C2814742   4.348   4.531  10.101  0.1684 -0.4711 -0.1121
  136SAPE   H8R14743   4.319   4.426  10.114 -1.6351  0.0967  0.8314
  136SAPE   C2914744   4.402   4.564   9.980 -0.2558  0.6105 -0.6448
  136SAPE   H9R14745   4.380   4.487   9.905 -1.2847 -0.9942  1.2027
  136SAPE  C21014746   4.478   4.688   9.935  0.1241 -0.3137 -0.3249
  136SAPE  H10R14747   4.515   4.732  10.031  1.2422 -0.4921 -0.6562
  136SAPE  H10S14748   4.402   4.755   9.889 -0.8385 -0.3358  1.1589
  136SAPE  C21114749   4.606   4.674   9.861 -0.0754 -0.5621 -1.5587
  136SAPE  H11R14750   4.687   4.665   9.934 -1.6185 -0.4231  0.2572
  136SAPE  C21214751   4.617   4.650   9.730 -0.2155  0.0211 -0.6695
  136SAPE  H12R14752   4.717   4.633   9.687  1.6355 -0.7081  3.3633
  136SAPE  C21314753   4.503   4.634   9.632 -0.5309 -0.2303  0.5845
  136SAPE  H13R14754   4.412   4.615   9.693 -1.1664 -0.5765 -0.4357
  136SAPE  H13S14755   4.536   4.538   9.586  2.1811  0.6858  0.4481
  136SAPE  C21414756   4.475   4.739   9.528 -0.1387  0.7434 -0.2854
  136SAPE  H14R14757   4.401   4.813   9.561 -0.9001  0.0300 -0.3645
  136SAPE  C21514758   4.541   4.752   9.412  0.5178  0.5303 -0.3980
  136SAPE  H15R14759   4.511   4.838   9.351 -0.4024  1.2917  1.0749
  136SAPE  C21614760   4.632   4.656   9.346 -0.2150  0.1859 -0.0819
  136SAPE  H16R14761   4.599   4.552   9.363  0.8238 -0.5674 -2.2510
  136SAPE  H16S14762   4.736   4.667   9.385 -0.7483 -0.2365  1.5226
  136SAPE  C21714763   4.625   4.670   9.194 -0.8452 -0.4366  0.2412
  136SAPE  H17R14764   4.693   4.593   9.151 -2.4971 -1.4259 -0.6977
  136SAPE  H17S14765   4.642   4.775   9.159 -2.3925  0.0644  0.8962
  136SAPE  C21814766   4.482   4.632   9.139 -0.4500 -0.7385  0.3681
  136SAPE  H18R14767   4.404   4.705   9.172  1.2775  1.5839 -0.4852
  136SAPE  H18S14768   4.451   4.538   9.190 -1.2662 -1.0882 -0.7305
  136SAPE  C21914769   4.480   4.616   8.982 -0.1764 -0.2418 -0.2974
  136SAPE  H19R14770   4.533   4.521   8.958  0.1330  0.4190 -2.4204
  136SAPE  H19S14771   4.523   4.710   8.941  1.6065 -1.1805 -0.6966
  136SAPE  C22014772   4.337   4.598   8.920 -0.7875 -0.4329  0.1612
  136SAPE  H20R14773   4.261   4.653   8.978  2.2821  2.8780  1.3761
  136SAPE  H20S14774   4.318   4.491   8.895  0.2626 -0.1087 -2.3885
  136SAPE  H20T14775   4.342   4.635   8.815  3.6840 -1.0521 -0.0417
  136SAPE   C3314776   4.695   5.122  10.108  0.2884 -0.0718 -0.7550
  136SAPE   H3X14777   4.597   5.167  10.134 -0.6334 -1.3263 -1.9218
  136SAPE   H3Y14778   4.693   5.027  10.164 -0.0930 -0.2834 -1.1166
  136SAPE   C3414779   4.726   5.076   9.964 -0.2331 -0.2140  0.3685
  136SAPE   H4X14780   4.637   5.023   9.922 -0.4669  0.4141  0.0535
  136SAPE   H4Y14781   4.811   5.005   9.972 -0.2073 -0.0530  1.6743
  136SAPE   C3514782   4.741   5.194   9.862  0.1971 -0.7828 -0.3292
  136SAPE   H5X14783   4.849   5.218   9.852 -0.2311  0.8360 -1.5190
  136SAPE   H5Y14784   4.692   5.282   9.909  2.2693  0.7531 -0.8405
  136SAPE   C3614785   4.692   5.171   9.723  0.3926 -0.3189  0.8615
  136SAPE   H6X14786   4.684   5.270   9.673  1.2124 -1.2840 -1.3370
  136SAPE   H6Y14787   4.593   5.121   9.714  0.3955 -0.0110 -1.9412
  136SAPE   C3714788   4.791   5.086   9.635  0.7644  0.1131 -0.0856
  136SAPE   H7X14789   4.776   4.989   9.686  1.1850  1.1916  2.2106
  136SAPE   H7Y14790   4.893   5.117   9.665  0.3226  0.0765  1.5132
  136SAPE   C3814791   4.766   5.089   9.481  0.0856  0.5890 -0.5970
  136SAPE   H8X14792   4.757   5.195   9.449  1.4806  0.7320 -0.5659
  136SAPE   H8Y14793   4.666   5.040   9.469  0.2625  0.1421 -0.2897
  136SAPE   C3914794   4.862   5.007   9.397 -0.0031  0.1409  0.1496
  136SAPE   H9X14795   4.851   4.897   9.411 -1.2283  0.1687 -0.4722
  136SAPE   H9Y14796   4.964   5.043   9.422 -0.7597  2.6030 -0.0879
  136SAPE  C31014797   4.843   5.028   9.245  0.3323  0.8562  0.4396
  136SAPE  H10X14798   4.820   5.135   9.231 -2.5158  0.1481 -1.0305
  136SAPE  H10Y14799   4.756   4.977   9.200  1.0728 -1.0944  1.1000
  136SAPE  C31114800   4.955   4.993   9.150  0.4345 -0.5695 -0.8387
  136SAPE  H11X14801   4.968   4.883   9.161 -0.2417 -0.5661  0.1287
  136SAPE  H11Y14802   5.044   5.048   9.186  0.1422 -2.4800  3.5224
  136SAPE  C31214803   4.926   5.026   9.004 -0.6187  0.2634  0.0625
  136SAPE  H12X14804   5.021   5.011   8.949  0.4367  0.4968  1.7372
  136SAPE  H12Y14805   4.900   5.134   8.999  0.9922  0.7669  1.5759
  136SAPE  C31314806   4.826   4.937   8.940  0.0387 -0.3330 -0.1999
  136SAPE  H13X14807   4.725   4.941   8.985 -0.5340 -1.2100 -1.3485
  136SAPE  H13Y14808   4.869   4.836   8.959  0.0547 -0.7439 -2.1613
  136SAPE  C31414809   4.823   4.964   8.788 -0.2865 -0.4070 -0.3510
  136SAPE  H14X14810   4.920   4.933   8.745  0.1774 -1.3309  1.2674
  136SAPE  H14Y14811   4.796   5.070   8.769  3.0699 -0.1528 -5.7359
  136SAPE  C31514812   4.714   4.878   8.721  0.5048  0.2012 -0.0395
  136SAPE  H15X14813   4.704   4.898   8.613 -1.3362  0.6021  0.1727
  136SAPE  H15Y14814   4.616   4.899   8.770  0.4067 -1.2214  0.4237
  136SAPE  C31614815   4.745   4.729   8.735  0.1066 -0.0024 -0.3611
  136SAPE  H16X14816   4.654   4.670   8.708  0.5101 -0.8426  0.0668
  136SAPE  H16Y14817   4.766   4.708   8.842 -1.8681  1.9510  0.4886
  136SAPE  C31714818   4.874   4.689   8.655  0.4362 -0.1910 -0.5135
  136SAPE  H17X14819   4.963   4.720   8.714  0.8126  1.4351 -1.8384
  136SAPE  H17Y14820   4.879   4.743   8.558 -1.8894 -1.0728 -1.1878
  136SAPE  C31814821   4.868   4.537   8.623 -0.1061  0.2470 -0.0625
  136SAPE  H18X14822   4.947   4.503   8.552 -0.2336 -0.6460  0.2044
  136SAPE  H18Y14823   4.773   4.508   8.572  0.6157 -0.6457 -0.9454
  136SAPE  H18Z14824   4.888   4.482   8.718  0.9479  2.2672  0.9266
  137SAPE     N14825   2.840   2.258  10.577 -0.1596  0.9322 -0.5112
  137SAPE   HN114826   2.799   2.204  10.498 -0.6551  0.2130  0.2140
  137SAPE   HN214827   2.813   2.354  10.550  0.5020  0.8905 -1.3593
  137SAPE   HN314828   2.943   2.247  10.570 -0.1881  0.0179  0.2740
  137SAPE   C1214829   2.787   2.206  10.704  0.1792 -1.1640 -0.7592
  137SAPE  H12A14830   2.678   2.227  10.706  0.2483 -0.7292  2.4481
  137SAPE  H12B14831   2.839   2.267  10.780  0.2563 -0.7981 -1.1032
  137SAPE   C1114832   2.829   2.058  10.729 -0.6523 -0.8783  0.5166
  137SAPE  H11A14833   2.937   2.044  10.705 -0.9011 -1.6678 -0.2243
  137SAPE  H11B14834   2.781   2.001  10.647  0.2862  0.8348 -1.3250
  137SAPE     P14835   2.684   1.906  10.882 -0.2059  0.3734  0.0040
  137SAPE   O1314836   2.720   1.827  11.003  0.1097  0.2745  0.6402
  137SAPE   O1414837   2.554   1.964  10.880 -0.6541 -0.0282 -0.0928
  137SAPE   O1214838   2.792   2.020  10.861 -0.1372  0.1130  0.0123
  137SAPE   O1114839   2.703   1.820  10.755 -0.2534  0.7517  0.4355
  137SAPE    C114840   2.621   1.709  10.714  0.2805  0.5693 -0.7132
  137SAPE    HA14841   2.688   1.623  10.690  0.7674 -0.1481  2.7114
  137SAPE    HB14842   2.544   1.684  10.790  1.4134 -2.0830 -0.3121
  137SAPE    C214843   2.538   1.738  10.581 -0.2738 -0.2014  0.6219
  137SAPE    HS14844   2.493   1.643  10.545  0.0654 -0.4267  0.7885
  137SAPE   O2114845   2.622   1.794  10.476 -0.1881 -0.0466 -0.3070
  137SAPE   C2114846   2.701   1.703  10.417  0.4614 -0.5259 -0.8720
  137SAPE   O2214847   2.691   1.583  10.445  0.2359  0.1136  0.2165
  137SAPE   C2214848   2.785   1.758  10.306  0.2768 -0.4702  0.3361
  137SAPE   H2R14849   2.793   1.868  10.313  1.5210 -0.4894 -0.3782
  137SAPE   H2S14850   2.890   1.728  10.327  0.3017 -0.3347  0.4052
  137SAPE    C314851   2.412   1.833  10.609 -0.3849 -0.1956 -0.1512
  137SAPE    HX14852   2.459   1.927  10.644  1.4795 -0.5780 -1.4530
  137SAPE    HY14853   2.362   1.784  10.696 -0.3740 -1.5687 -0.8840
  137SAPE   O3114854   2.329   1.837  10.494  0.3599 -0.0173 -0.2793
  137SAPE   C3114855   2.239   1.736  10.480  0.0790 -0.1351  0.3228
  137SAPE   O3214856   2.225   1.645  10.560 -0.3117 -0.3661 -1.1004
  137SAPE   C3214857   2.175   1.737  10.343 -0.3583  0.4647 -0.0193
  137SAPE   H2X14858   2.228   1.813  10.281 -0.2605 -0.6803 -1.3908
  137SAPE   H2Y14859   2.065   1.743  10.351 -0.2436  0.8614  1.6154
  137SAPE   C2314860   2.745   1.716  10.161 -0.6877  0.0896  0.5259
  137SAPE   H3R14861   2.758   1.607  10.151 -1.9825  0.0514 -1.0880
  137SAPE   H3S14862   2.818   1.751  10.085  0.6754 -0.4940  1.5368
  137SAPE   C2414863   2.605   1.773  10.131 -0.1464  0.3024  0.4303
  137SAPE   H4R14864   2.608   1.884  10.133  0.3658  0.3645 -1.7651
  137SAPE   H4S14865   2.529   1.721  10.193 -1.1382 -0.7896 -1.5967
  137SAPE   C2514866   2.577   1.733   9.985 -0.8085 -0.3937  0.2331
  137SAPE   H5R14867   2.506   1.649   9.978  0.2777 -1.4567  1.3488
  137SAPE   C2614868   2.615   1.794   9.873  0.0767  0.5850 -0.0005
  137SAPE   H6R14869   2.570   1.756   9.780 -2.6498  0.2377  1.3664
  137SAPE   C2714870   2.706   1.914   9.866 -0.3368 -0.4690 -0.6428
  137SAPE   H7R14871   2.780   1.889   9.945  0.4792 -3.1557 -2.1354
  137SAPE   H7S14872   2.647   2.007   9.877  0.0555 -0.3082  0.2006
  137SAPE   C2814873   2.784   1.908   9.732  0.2356  0.4855 -0.3406
  137SAPE   H8R14874   2.862   1.830   9.733  3.0642  3.0994  1.3340
  137SAPE   C2914875   2.761   1.984   9.628  0.7818 -0.1390  0.3077
  137SAPE   H9R14876   2.830   1.982   9.542 -0.9127 -0.5962 -1.0891
  137SAPE  C21014877   2.648   2.091   9.613 -1.0834  0.2426 -0.7314
  137SAPE  H10R14878   2.710   2.182   9.600  2.1566 -1.6608  0.4128
  137SAPE  H10S14879   2.583   2.101   9.703 -0.8396  3.1779 -0.7991
  137SAPE  C21114880   2.559   2.075   9.487  0.5572  0.1321 -0.3243
  137SAPE  H11R14881   2.470   2.014   9.504  1.2335 -0.3924  1.6366
  137SAPE  C21214882   2.585   2.141   9.371 -0.4409  0.9287  0.0215
  137SAPE  H12R14883   2.509   2.120   9.295  0.3843 -0.3853 -0.4824
  137SAPE  C21314884   2.701   2.229   9.333 -0.8145 -0.2928 -0.3368
  137SAPE  H13R14885   2.769   2.259   9.416 -1.8818 -0.9479  0.8052
  137SAPE  H13S14886   2.670   2.328   9.295 -0.3405 -0.8434 -2.2778
  137SAPE  C21414887   2.783   2.158   9.228  0.6023 -0.3703  0.1972
  137SAPE  H14R14888   2.856   2.090   9.273  0.1331  0.2559  2.0234
  137SAPE  C21514889   2.782   2.182   9.097  1.0226  0.0425 -0.0427
  137SAPE  H15R14890   2.841   2.126   9.023  0.7301  0.3735 -0.5319
  137SAPE  C21614891   2.696   2.286   9.031  0.3816  1.0472  0.0803
  137SAPE  H16R14892   2.720   2.386   9.072  1.8369  0.7577 -0.0067
  137SAPE  H16S14893   2.592   2.260   9.061  0.4454 -0.1822 -0.6904
  137SAPE  C21714894   2.693   2.300   8.877 -0.0542  0.8971  0.1714
  137SAPE  H17R14895   2.790   2.341   8.843  0.1851  0.2830  0.1092
  137SAPE  H17S14896   2.619   2.381   8.857 -0.7581  0.6027  1.4489
  137SAPE  C21814897   2.660   2.169   8.799  0.2475 -0.5595 -0.2492
  137SAPE  H18R14898   2.681   2.088   8.872  0.9009  0.4473  0.7111
  137SAPE  H18S14899   2.734   2.154   8.718  0.9294 -1.3635  0.4931
  137SAPE  C21914900   2.522   2.170   8.743  0.0631 -0.0899 -0.0159
  137SAPE  H19R14901   2.509   2.251   8.667  0.7835 -1.1535 -1.3185
  137SAPE  H19S14902   2.445   2.208   8.814  0.4071  0.4908  0.0493
  137SAPE  C22014903   2.471   2.036   8.694 -0.4165 -0.5667  0.6258
  137SAPE  H20R14904   2.490   1.954   8.767 -0.1691  0.0492  1.2651
  137SAPE  H20S14905   2.508   2.011   8.592 -4.2554  0.9133 -1.2958
  137SAPE  H20T14906   2.362   2.041   8.678 -0.2605  0.9193 -0.0857
  137SAPE   C3314907   2.212   1.608  10.266 -0.3315 -0.0513  0.2238
  137SAPE   H3X14908   2.184   1.514  10.318  2.1622 -1.8506 -1.4340
  137SAPE   H3Y14909   2.323   1.615  10.253 -0.2126 -0.7230  0.8258
  137SAPE   C3414910   2.162   1.612  10.124  0.6116  0.2434 -0.2708
  137SAPE   H4X14911   2.192   1.706  10.073  0.2098  0.2657 -0.4723
  137SAPE   H4Y14912   2.052   1.605  10.113  0.7582  0.6744 -2.2716
  137SAPE   C3514913   2.230   1.489  10.054  0.3300  0.2567 -0.3210
  137SAPE   H5X14914   2.211   1.396  10.111  0.1990 -0.2574 -1.1840
  137SAPE   H5Y14915   2.341   1.500  10.060  0.7932 -3.2454 -0.3687
  137SAPE   C3614916   2.181   1.463   9.909  0.2054  0.3352 -0.1645
  137SAPE   H6X14917   2.072   1.444   9.900 -0.2411  1.8174  1.4938
  137SAPE   H6Y14918   2.228   1.374   9.863  0.4770 -0.1387  0.9934
  137SAPE   C3714919   2.206   1.589   9.818 -0.3802  0.5472 -0.7846
  137SAPE   H7X14920   2.311   1.622   9.835  0.4232 -1.8859 -0.5882
  137SAPE   H7Y14921   2.138   1.674   9.837 -0.1422  1.2434 -2.7387
  137SAPE   C3814922   2.193   1.544   9.669  0.6481 -0.3037 -0.5883
  137SAPE   H8X14923   2.087   1.516   9.653  0.9984 -1.3371 -1.2410
  137SAPE   H8Y14924   2.262   1.456   9.669  2.6914  1.2346 -0.4862
  137SAPE   C3914925   2.244   1.641   9.564 -0.0540  0.4434 -0.0568
  137SAPE   H9X14926   2.291   1.584   9.481  1.6492 -1.2384  1.9423
  137SAPE   H9Y14927   2.328   1.702   9.602 -1.5256  1.5415  1.5959
  137SAPE  C31014928   2.137   1.719   9.499  0.0457  0.4444 -0.4171
  137SAPE  H10X14929   2.085   1.770   9.583  0.6970 -1.6099  1.3380
  137SAPE  H10Y14930   2.061   1.660   9.444  0.1389  2.0825 -2.4216
  137SAPE  C31114931   2.201   1.822   9.403  0.3204  1.0869 -0.1269
  137SAPE  H11X14932   2.229   1.778   9.305  0.5037 -2.7990  1.5265
  137SAPE  H11Y14933   2.290   1.860   9.458  1.3673 -1.2056 -0.1396
  137SAPE  C31214934   2.107   1.942   9.382 -0.3514  0.0725  0.0497
  137SAPE  H12X14935   2.096   1.998   9.478 -2.0883 -0.8378  0.4397
  137SAPE  H12Y14936   2.005   1.907   9.352 -0.2482  0.9183 -1.3492
  137SAPE  C31314937   2.153   2.040   9.277  0.3412 -0.3052  0.1494
  137SAPE  H13X14938   2.254   2.071   9.312  0.7810  1.4248 -2.4503
  137SAPE  H13Y14939   2.084   2.126   9.277  2.3780  1.4181 -1.3913
  137SAPE  C31414940   2.168   2.004   9.133 -0.4386  0.1711  0.1541
  137SAPE  H14X14941   2.214   1.905   9.112 -2.4606 -0.5601 -1.1354
  137SAPE  H14Y14942   2.237   2.081   9.091  1.5277 -1.4724  0.2295
  137SAPE  C31514943   2.033   2.007   9.060  0.7426  0.6320 -0.3426
  137SAPE  H15X14944   2.009   2.115   9.048  0.9898  0.7758  0.3815
  137SAPE  H15Y14945   1.951   1.971   9.126  0.4344  1.2832 -0.3630
  137SAPE  C31614946   2.039   1.933   8.926  0.5561  0.9339 -0.5443
  137SAPE  H16X14947   1.939   1.892   8.900 -2.0430  3.5548  4.1260
  137SAPE  H16Y14948   2.110   1.849   8.942 -1.6921 -0.4914  2.9877
  137SAPE  C31714949   2.078   2.018   8.807 -0.5454  0.5853 -0.3949
  137SAPE  H17X14950   2.184   2.051   8.806 -0.6702  1.1403  1.3369
  137SAPE  H17Y14951   2.034   2.119   8.822 -2.0375  0.2629 -2.2440
  137SAPE  C31814952   2.030   1.964   8.674 -0.2866  0.1192  0.1645
  137SAPE  H18X14953   1.926   1.928   8.668 -0.0044 -0.4462 -2.7874
  137SAPE  H18Y14954   2.093   1.883   8.633 -1.7264 -0.6056 -0.6697
  137SAPE  H18Z14955   2.039   2.040   8.593  0.1797 -0.7613 -0.6297
  138SAPE     N14956   6.500   1.065  10.760 -0.0337 -0.0250 -0.0927
  138SAPE   HN114957   6.588   1.062  10.815 -0.4147 -1.6727  0.5065
  138SAPE   HN214958   6.433   1.130  10.805 -0.4836 -0.8813  0.5092
  138SAPE   HN314959   6.464   0.967  10.757  0.4895 -0.2494  0.5961
  138SAPE   C1214960   6.526   1.111  10.621 -0.7107 -0.3252 -0.2976
  138SAPE  H12A14961   6.430   1.103  10.564  0.1294  0.4854 -1.9160
  138SAPE  H12B14962   6.598   1.034  10.588 -2.1058 -1.5209 -0.6362
  138SAPE   C1114963   6.599   1.252  10.602  0.2946  0.1722  0.4634
  138SAPE  H11A14964   6.523   1.326  10.635  1.1082  0.5956  1.4621
  138SAPE  H11B14965   6.617   1.289  10.499  0.5211 -0.3113  0.3214
  138SAPE     P14966   6.853   1.205  10.616  0.7353 -0.1764  0.1087
  138SAPE   O1314967   6.963   1.270  10.688 -0.4384  0.0779 -0.5502
  138SAPE   O1414968   6.850   1.053  10.625  0.1510  0.1938 -0.0269
  138SAPE   O1214969   6.719   1.255  10.685  0.7208 -0.7042 -0.0434
  138SAPE   O1114970   6.852   1.259  10.460 -0.4570  0.1292  0.7510
  138SAPE    C114971   6.874   1.166  10.357 -0.3887  0.2493 -0.0178
  138SAPE    HA14972   6.982   1.151  10.337 -0.5331 -0.3744 -0.3344
  138SAPE    HB14973   6.818   1.074  10.380 -2.4991  1.3160 -0.5932
  138SAPE    C214974   6.802   1.210  10.227 -0.4733 -0.6307  0.7276
  138SAPE    HS14975   6.826   1.136  10.148  0.1800  0.8239 -0.5104
  138SAPE   O2114976   6.843   1.344  10.186 -0.5390  0.1810 -0.5981
  138SAPE   C2114977   6.961   1.340  10.133  0.0466  0.2860 -0.1227
  138SAPE   O2214978   7.036   1.242  10.132 -0.1945  0.1728 -0.6558
  138SAPE   C2214979   6.984   1.470  10.054  0.0294 -0.3381  0.5038
  138SAPE   H2R14980   6.927   1.551  10.104  0.7307  0.3203  0.2745
  138SAPE   H2S14981   7.090   1.500  10.039 -0.6661  1.8905 -0.3410
  138SAPE    C314982   6.653   1.205  10.223 -0.0787  0.1499 -0.0727
  138SAPE    HX14983   6.621   1.300  10.270  0.1912  0.8154 -1.2016
  138SAPE    HY14984   6.631   1.115  10.284  0.3243  1.4686  2.1037
  138SAPE   O3114985   6.611   1.188  10.083 -0.4465 -0.4949  0.2109
  138SAPE   C3114986   6.480   1.210  10.069  0.2339  0.5877 -0.4904
  138SAPE   O3214987   6.406   1.236  10.161 -0.2180  0.0042  0.5703
  138SAPE   C3214988   6.439   1.197   9.921  0.1180  0.2278  0.3355
  138SAPE   H2X14989   6.332   1.224   9.923 -0.1615 -0.8504  0.2192
  138SAPE   H2Y14990   6.454   1.089   9.898  0.5236  0.3796 -0.1335
  138SAPE   C2314991   6.933   1.465   9.911  0.2650 -1.0587  0.5230
  138SAPE   H3R14992   6.931   1.567   9.868  0.9900 -1.5298 -0.6792
  138SAPE   H3S14993   6.826   1.438   9.913 -0.6351  2.0123 -0.8305
  138SAPE   C2414994   7.005   1.370   9.813  0.2008 -0.5348  0.3956
  138SAPE   H4R14995   7.019   1.264   9.844 -1.3342 -0.4506  1.5176
  138SAPE   H4S14996   7.107   1.410   9.801 -0.7147  2.3419  1.3206
  138SAPE   C2514997   6.922   1.367   9.693 -0.0559 -0.0088  0.2003
  138SAPE   H5R14998   6.839   1.295   9.699  1.0101 -1.4630 -1.6374
  138SAPE   C2614999   6.926   1.447   9.584 -0.2897  1.1437 -0.2451
  138SAPE   H6R15000   6.851   1.438   9.505  0.2540  0.6882 -0.7149
  138SAPE   C2715001   7.031   1.555   9.549  0.3720 -0.5726  0.0552
  138SAPE   H7R15002   7.026   1.547   9.438  1.2432  0.8382 -0.1094
  138SAPE   H7S15003   7.132   1.526   9.583  0.3135  0.4270  1.1466
  138SAPE   C2815004   6.994   1.697   9.586 -0.1707 -0.1055  0.4373
  138SAPE   H8R15005   7.023   1.724   9.689  0.0802 -1.1279  0.6469
  138SAPE   C2915006   6.939   1.782   9.499  0.1945 -0.3531 -0.3251
  138SAPE   H9R15007   6.915   1.885   9.532 -1.2144 -0.6067 -0.4885
  138SAPE  C21015008   6.902   1.764   9.357 -0.4912  0.0771 -0.1014
  138SAPE  H10R15009   6.868   1.660   9.340 -0.8362  0.5263 -2.6136
  138SAPE  H10S15010   6.995   1.757   9.296  0.1167 -2.8298  0.9869
  138SAPE  C21115011   6.793   1.842   9.290 -0.7624 -0.7315 -0.6992
  138SAPE  H11R15012   6.701   1.862   9.347  0.6402 -1.7130  2.0898
  138SAPE  C21215013   6.790   1.897   9.168 -0.3486 -0.0523 -0.2329
  138SAPE  H12R15014   6.698   1.945   9.132 -0.0780  0.5033 -0.1895
  138SAPE  C21315015   6.901   1.887   9.065  0.6667  0.0853  0.7664
  138SAPE  H13R15016   6.862   1.902   8.962  1.7368  1.3035  0.5140
  138SAPE  H13S15017   6.941   1.784   9.056 -0.8015 -0.4498  0.0099
  138SAPE  C21415018   7.020   1.974   9.094 -0.2537  0.4878 -0.6940
  138SAPE  H14R15019   7.031   1.997   9.201 -0.1024 -2.2143 -0.0456
  138SAPE  C21515020   7.106   2.015   9.005  0.1298 -0.6971 -0.5032
  138SAPE  H15R15021   7.193   2.079   9.027 -0.7746  1.5129 -2.7843
  138SAPE  C21615022   7.100   1.980   8.860 -0.0213 -0.0589  0.2139
  138SAPE  H16R15023   7.027   1.902   8.828 -1.5550  1.8537 -1.2053
  138SAPE  H16S15024   7.194   1.935   8.822 -0.2885 -1.0011  0.6438
  138SAPE  C21715025   7.081   2.112   8.781  0.1484 -0.4254 -0.3002
  138SAPE  H17R15026   7.077   2.102   8.671 -0.3433  1.4093 -0.4705
  138SAPE  H17S15027   7.170   2.175   8.806 -1.4341  2.7886 -2.1531
  138SAPE  C21815028   6.948   2.193   8.795 -0.0405 -0.1580  0.0014
  138SAPE  H18R15029   6.907   2.195   8.898 -0.6991 -0.4059 -0.2566
  138SAPE  H18S15030   6.874   2.137   8.735 -0.1912  0.2946 -0.2360
  138SAPE  C21915031   6.965   2.339   8.759  0.2649  0.5090  0.3507
  138SAPE  H19R15032   7.041   2.375   8.832 -0.2680  2.6594 -0.0886
  138SAPE  H19S15033   6.869   2.392   8.773  0.6970  1.7736 -1.1453
  138SAPE  C22015034   7.001   2.376   8.614  0.1125 -0.1891  0.3009
  138SAPE  H20R15035   7.011   2.486   8.599  1.5652 -0.5887 -2.3210
  138SAPE  H20S15036   6.924   2.352   8.538 -0.3407  3.5349 -0.5891
  138SAPE  H20T15037   7.096   2.337   8.570  0.4977 -0.1044  1.0348
  138SAPE   C3315038   6.523   1.284   9.822 -0.2876 -0.1788  0.0721
  138SAPE   H3X15039   6.631   1.255   9.819 -0.2046  0.1574 -0.4406
  138SAPE   H3Y15040   6.525   1.393   9.843  0.3365 -0.4299  1.4248
  138SAPE   C3415041   6.465   1.281   9.676  0.8042  0.0299 -1.0340
  138SAPE   H4X15042   6.355   1.298   9.681  0.8493 -0.0801  1.5459
  138SAPE   H4Y15043   6.486   1.184   9.627  0.4927 -1.8697  2.2665
  138SAPE   C3515044   6.523   1.399   9.596  0.5183  0.2257  0.5974
  138SAPE   H5X15045   6.630   1.384   9.569  1.1022  0.6960  2.4404
  138SAPE   H5Y15046   6.533   1.489   9.660 -0.7304  0.2623  0.7647
  138SAPE   C3615047   6.421   1.428   9.487 -0.7106  0.4099 -0.0866
  138SAPE   H6X15048   6.330   1.478   9.525 -0.4446 -0.7562  2.2573
  138SAPE   H6Y15049   6.395   1.328   9.446  2.0727 -0.7244  0.6618
  138SAPE   C3715050   6.489   1.517   9.379  0.1747  0.3758  0.4037
  138SAPE   H7X15051   6.588   1.475   9.351  0.2151  1.3496 -1.0203
  138SAPE   H7Y15052   6.503   1.609   9.438  2.3062 -1.6357  3.2790
  138SAPE   C3815053   6.397   1.530   9.254 -0.4847 -0.6478 -0.2141
  138SAPE   H8X15054   6.322   1.610   9.268 -0.4114 -0.3806 -1.2938
  138SAPE   H8Y15055   6.345   1.432   9.250 -0.7277 -0.5001 -0.7158
  138SAPE   C3915056   6.480   1.559   9.126  0.2926 -0.3427 -0.8815
  138SAPE   H9X15057   6.555   1.635   9.158 -0.2246 -0.9579  2.0614
  138SAPE   H9Y15058   6.420   1.608   9.047  0.4708  1.0959 -0.1547
  138SAPE  C31015059   6.549   1.440   9.067 -1.0070  0.0587 -0.1857
  138SAPE  H10X15060   6.483   1.351   9.060 -1.0633  0.1939 -2.0680
  138SAPE  H10Y15061   6.634   1.422   9.136 -0.9172  0.9340 -0.0590
  138SAPE  C31115062   6.629   1.469   8.938  0.4034  0.4083 -0.0615
  138SAPE  H11X15063   6.566   1.470   8.847  2.0296  0.5953 -1.2392
  138SAPE  H11Y15064   6.702   1.387   8.918 -0.3837 -0.2729 -0.1823
  138SAPE  C31215065   6.715   1.594   8.929 -0.1089 -0.0434 -0.2324
  138SAPE  H12X15066   6.776   1.603   9.022  0.8248  0.8593 -0.9103
  138SAPE  H12Y15067   6.643   1.677   8.919  0.8444  1.1548  2.0397
  138SAPE  C31315068   6.809   1.604   8.815 -0.0706  0.1079 -0.6676
  138SAPE  H13X15069   6.874   1.516   8.796  2.1249  1.2893  0.8991
  138SAPE  H13Y15070   6.873   1.690   8.845 -1.4800 -0.0207  3.2476
  138SAPE  C31415071   6.733   1.637   8.690 -0.5013  0.8445  0.3359
  138SAPE  H14X15072   6.662   1.720   8.709 -1.9921  0.1978 -1.9611
  138SAPE  H14Y15073   6.673   1.546   8.668 -1.1909  1.3692  0.0063
  138SAPE  C31515074   6.827   1.668   8.573  0.5162  0.2564 -0.4039
  138SAPE  H15X15075   6.767   1.623   8.490 -1.6798  0.7059  0.8484
  138SAPE  H15Y15076   6.922   1.614   8.591 -0.9547 -2.3125  0.0924
  138SAPE  C31615077   6.846   1.816   8.546 -0.3568 -0.4041  0.3404
  138SAPE  H16X15078   6.883   1.868   8.637 -2.1026 -1.4696  1.7260
  138SAPE  H16Y15079   6.747   1.865   8.527  0.9018  1.3718 -2.2574
  138SAPE  C31715080   6.934   1.847   8.419  0.7452  0.3241 -0.0336
  138SAPE  H17X15081   6.910   1.945   8.372  0.2216 -0.4893 -1.5104
  138SAPE  H17Y15082   6.920   1.770   8.341 -0.4954  3.2426 -2.9142
  138SAPE  C31815083   7.089   1.832   8.460 -0.8040 -0.2313 -0.7409
  138SAPE  H18X15084   7.156   1.890   8.393 -2.0080  0.6174 -1.2408
  138SAPE  H18Y15085   7.120   1.725   8.468  1.5353  0.5745  3.6404
  138SAPE  H18Z15086   7.103   1.864   8.565 -1.6636 -0.2773 -0.6089
  139SAPE     N15087   5.430   5.328  10.859  0.1255 -0.6233  0.0006
  139SAPE   HN115088   5.419   5.289  10.955  0.3261 -0.9998 -0.1270
  139SAPE   HN215089   5.342   5.302  10.810 -0.0960  1.1622 -0.6014
  139SAPE   HN315090   5.510   5.281  10.813 -0.0069 -1.4411  0.5835
  139SAPE   C1215091   5.435   5.478  10.850  0.4464 -0.0428 -0.3726
  139SAPE  H12A15092   5.530   5.506  10.902 -0.6328  3.9678 -0.2315
  139SAPE  H12B15093   5.350   5.520  10.907  0.4866 -0.8473  0.2997
  139SAPE   C1115094   5.448   5.518  10.702 -0.1860  0.2727 -0.3956
  139SAPE  H11A15095   5.445   5.629  10.698 -1.2345  0.2288 -1.1069
  139SAPE  H11B15096   5.359   5.484  10.645  0.2947 -1.2778 -0.2676
  139SAPE     P15097   5.700   5.545  10.644 -0.2422  0.1642  0.0506
  139SAPE   O1315098   5.689   5.658  10.737 -0.2093  0.1016  0.1891
  139SAPE   O1415099   5.811   5.454  10.674 -0.4734 -0.4453  0.3024
  139SAPE   O1215100   5.571   5.465  10.647  0.2843  0.4149 -0.1934
  139SAPE   O1115101   5.705   5.604  10.496  0.1800 -0.0001 -0.5079
  139SAPE    C115102   5.648   5.532  10.391  0.6109 -0.4820 -0.0234
  139SAPE    HA15103   5.610   5.432  10.421  0.0060 -0.1388  0.3597
  139SAPE    HB15104   5.560   5.582  10.346  0.1306  0.5192  1.9090
  139SAPE    C215105   5.757   5.497  10.286 -1.2984  0.3585  0.4008
  139SAPE    HS15106   5.727   5.417  10.214  1.3327  0.1972 -0.6236
  139SAPE   O2115107   5.881   5.452  10.347 -0.0856 -0.2843  0.4162
  139SAPE   C2115108   5.874   5.330  10.386 -0.0663  0.3342  0.5869
  139SAPE   O2215109   5.773   5.264  10.387  0.0844  0.4282  0.2470
  139SAPE   C2215110   6.011   5.282  10.422 -0.4797  0.3788  1.1591
  139SAPE   H2R15111   6.060   5.375  10.455 -2.6010  1.7816  0.5998
  139SAPE   H2S15112   6.007   5.209  10.506  0.9496  0.5550  1.4046
  139SAPE    C315113   5.801   5.612  10.193  0.2554  0.2366 -0.3178
  139SAPE    HX15114   5.893   5.591  10.135 -0.9983  2.1366 -3.1977
  139SAPE    HY15115   5.829   5.689  10.268 -0.0111 -0.9542  1.0776
  139SAPE   O3115116   5.693   5.655  10.114 -0.5717  0.3075  0.4249
  139SAPE   C3115117   5.730   5.710   9.992  0.2954 -0.0953  0.9459
  139SAPE   O3215118   5.846   5.727   9.953 -0.3012 -0.2565 -0.4524
  139SAPE   C3215119   5.602   5.718   9.894 -0.2940 -0.3421 -0.3819
  139SAPE   H2X15120   5.534   5.784   9.952 -1.0487 -0.9797 -0.5148
  139SAPE   H2Y15121   5.546   5.622   9.893 -2.5102  0.8869 -0.0270
  139SAPE   C2315122   6.092   5.211  10.307 -0.9504  0.7671  0.9463
  139SAPE   H3R15123   6.042   5.120  10.268  2.1177 -1.0386  0.8912
  139SAPE   H3S15124   6.184   5.164  10.350 -0.9525  0.5606  0.7282
  139SAPE   C2415125   6.123   5.302  10.184  0.1783 -0.5485 -0.0468
  139SAPE   H4R15126   6.169   5.402  10.204 -0.5374 -0.3296  0.5187
  139SAPE   H4S15127   6.022   5.329  10.147  0.2287 -0.5756 -0.2041
  139SAPE   C2515128   6.194   5.231  10.081  0.4013  0.4050 -0.1209
  139SAPE   H5R15129   6.288   5.182  10.111  0.6042 -0.3952 -1.9274
  139SAPE   C2615130   6.155   5.212   9.952  0.5660 -0.2366 -0.4364
  139SAPE   H6R15131   6.220   5.161   9.880  0.4598  0.6586 -1.1791
  139SAPE   C2715132   6.024   5.267   9.900 -0.0065 -0.0809 -0.0761
  139SAPE   H7R15133   5.952   5.249   9.982 -1.5732 -0.5159 -1.4875
  139SAPE   H7S15134   5.996   5.219   9.804  1.6970 -1.4549  0.0568
  139SAPE   C2815135   6.040   5.417   9.875 -0.0464 -1.0339 -0.5814
  139SAPE   H8R15136   6.038   5.483   9.962  2.7578 -0.1313 -1.1031
  139SAPE   C2915137   6.045   5.484   9.755  0.2641  0.1914 -0.0973
  139SAPE   H9R15138   6.052   5.594   9.757 -1.6198  0.4924 -3.0872
  139SAPE  C21015139   6.040   5.425   9.621  0.4661 -0.5416  1.1247
  139SAPE  H10R15140   6.050   5.315   9.626 -0.5693 -0.6770  0.4842
  139SAPE  H10S15141   6.118   5.460   9.549 -0.8626 -1.4471 -0.8278
  139SAPE  C21115142   5.901   5.480   9.576 -0.7923  0.0208 -0.5584
  139SAPE  H11R15143   5.820   5.479   9.651 -1.8839 -0.8075 -1.6958
  139SAPE  C21215144   5.869   5.525   9.459 -0.6753 -0.1486 -0.4343
  139SAPE  H12R15145   5.766   5.563   9.450 -0.5240  0.3854  0.0328
  139SAPE  C21315146   5.952   5.537   9.333  0.1400  0.2269  0.7497
  139SAPE  H13R15147   5.898   5.480   9.255  2.7982 -0.6852 -0.5477
  139SAPE  H13S15148   6.049   5.485   9.351  0.6106  0.6158 -0.5165
  139SAPE  C21415149   5.974   5.675   9.270 -0.8663 -1.6919  0.6794
  139SAPE  H14R15150   6.052   5.727   9.328 -1.8917  1.5141 -0.5854
  139SAPE  C21515151   5.917   5.729   9.156 -0.4079  0.8070 -0.9104
  139SAPE  H15R15152   5.947   5.833   9.136 -1.6267  1.1373 -1.1003
  139SAPE  C21615153   5.813   5.674   9.060 -0.0069  0.2262 -0.8702
  139SAPE  H16R15154   5.720   5.731   9.082  0.6512  1.1248 -0.3338
  139SAPE  H16S15155   5.779   5.571   9.083 -1.9491  1.3728  1.9579
  139SAPE  C21715156   5.844   5.683   8.911  0.0118  0.4346 -0.0686
  139SAPE  H17R15157   5.866   5.791   8.897 -1.5367  1.1509  2.2998
  139SAPE  H17S15158   5.754   5.659   8.850 -0.6073 -3.9605  2.1507
  139SAPE  C21815159   5.962   5.595   8.873 -0.8308 -0.5665  0.8042
  139SAPE  H18R15160   5.947   5.485   8.879 -0.2740 -0.7690 -0.8572
  139SAPE  H18S15161   6.042   5.633   8.939  1.0315  0.3558 -1.7926
  139SAPE  C21915162   6.020   5.632   8.734 -0.7261 -0.2742  0.5310
  139SAPE  H19R15163   5.938   5.668   8.668  0.5929  0.5104 -0.7295
  139SAPE  H19S15164   6.061   5.540   8.687 -1.0628  0.3533 -1.0730
  139SAPE  C22015165   6.116   5.754   8.739  0.6376 -0.1298  0.2088
  139SAPE  H20R15166   6.142   5.776   8.634 -0.3962 -2.4361 -0.6181
  139SAPE  H20S15167   6.204   5.731   8.803  0.7832 -0.8687 -0.2439
  139SAPE  H20T15168   6.073   5.846   8.783 -1.3425 -1.1707  0.5633
  139SAPE   C3315169   5.639   5.771   9.751  0.0391  0.3794 -0.1726
  139SAPE   H3X15170   5.723   5.712   9.709 -0.6804 -0.7525 -0.0398
  139SAPE   H3Y15171   5.668   5.878   9.765 -0.4509  0.5306 -0.2633
  139SAPE   C3415172   5.513   5.760   9.657 -0.9830  0.2062  0.0440
  139SAPE   H4X15173   5.431   5.817   9.706  0.7101  1.6888  1.3082
  139SAPE   H4Y15174   5.490   5.652   9.650  1.5374 -0.2919 -1.8644
  139SAPE   C3515175   5.541   5.813   9.514 -0.8263  0.4361  0.1762
  139SAPE   H5X15176   5.625   5.762   9.462  0.5033  0.8218  1.8633
  139SAPE   H5Y15177   5.585   5.914   9.525 -2.2421  0.9405  1.6177
  139SAPE   C3615178   5.425   5.829   9.418  0.1238  0.1846 -0.0372
  139SAPE   H6X15179   5.398   5.936   9.423  3.2166  1.0216  1.6880
  139SAPE   H6Y15180   5.338   5.765   9.445  0.2936 -1.7846 -3.4910
  139SAPE   C3715181   5.477   5.781   9.281 -0.1506  0.1113  0.0927
  139SAPE   H7X15182   5.508   5.675   9.295  0.0692  0.1656  0.0330
  139SAPE   H7Y15183   5.572   5.828   9.247 -0.0793  0.9843  1.4077
  139SAPE   C3815184   5.363   5.777   9.184  0.3056  0.6103  0.1808
  139SAPE   H8X15185   5.307   5.873   9.193  2.9591  2.7627 -3.4900
  139SAPE   H8Y15186   5.296   5.693   9.209  0.3422  0.4422 -0.2774
  139SAPE   C3915187   5.414   5.774   9.036  0.0700 -0.3405  0.4149
  139SAPE   H9X15188   5.452   5.671   9.016  0.9199 -0.2044  1.2641
  139SAPE   H9Y15189   5.484   5.857   9.010  1.3046 -1.1533  1.0348
  139SAPE  C31015190   5.290   5.795   8.947 -0.0493 -0.4037 -0.0714
  139SAPE  H10X15191   5.239   5.889   8.977  0.3991 -0.0973 -0.2671
  139SAPE  H10Y15192   5.223   5.711   8.975  0.5693 -0.1826  2.2491
  139SAPE  C31115193   5.330   5.797   8.797 -0.3794  0.7249 -0.2310
  139SAPE  H11X15194   5.387   5.703   8.779  0.7154  1.5587 -1.3076
  139SAPE  H11Y15195   5.392   5.883   8.762 -0.1477  0.4660 -0.4692
  139SAPE  C31215196   5.206   5.786   8.705  0.3501  0.0752  0.1345
  139SAPE  H12X15197   5.164   5.689   8.738 -0.2540  0.9289  2.0570
  139SAPE  H12Y15198   5.238   5.766   8.601  1.1980  2.1368 -0.0648
  139SAPE  C31315199   5.112   5.900   8.714 -0.1025  0.1179  1.2590
  139SAPE  H13X15200   5.163   5.999   8.710  4.0768 -1.8395 -1.0496
  139SAPE  H13Y15201   5.041   5.894   8.799  0.7582 -0.6889  1.9333
  139SAPE  C31415202   5.020   5.910   8.585  0.4111 -0.1485 -0.3207
  139SAPE  H14X15203   4.961   5.816   8.581 -1.6276  0.9868  1.4267
  139SAPE  H14Y15204   5.085   5.916   8.495 -0.9609 -0.7805 -1.3994
  139SAPE  C31515205   4.939   6.038   8.580 -0.3658 -0.0585 -0.0572
  139SAPE  H15X15206   4.890   6.046   8.481 -1.6223 -0.0480  0.5543
  139SAPE  H15Y15207   5.011   6.122   8.590 -0.8690  0.2109  1.5551
  139SAPE  C31615208   4.839   6.071   8.687 -0.3582 -0.4285 -0.7863
  139SAPE  H16X15209   4.888   6.090   8.785 -1.8694 -0.9704  0.1054
  139SAPE  H16Y15210   4.793   6.169   8.662 -0.5282 -0.6458 -1.3448
  139SAPE  C31715211   4.737   5.963   8.708 -0.3160 -0.7619 -0.1421
  139SAPE  H17X15212   4.689   5.971   8.808 -0.1346 -1.1641 -0.0203
  139SAPE  H17Y15213   4.789   5.865   8.715 -0.3715 -0.8405 -0.7570
  139SAPE  C31815214   4.628   5.971   8.600  1.2564  0.0588  0.4023
  139SAPE  H18X15215   4.542   5.907   8.628 -0.1286  1.7514  0.2523
  139SAPE  H18Y15216   4.645   5.934   8.497 -2.3350 -3.0276  0.6894
  139SAPE  H18Z15217   4.578   6.070   8.590  1.4197  0.0401 -0.7353
  140SAPE     N15218   3.082   5.461  10.994  0.2534  0.2817 -0.2811
  140SAPE   HN115219   3.061   5.562  10.984 -2.6739 -0.3511 -1.5293
  140SAPE   HN215220   3.172   5.434  10.948  0.3675 -0.3763  0.3076
  140SAPE   HN315221   3.013   5.400  10.946  0.3655 -0.0217 -0.0632
  140SAPE   C1215222   3.100   5.411  11.134 -0.5504  0.2547 -0.3584
  140SAPE  H12A15223   3.003   5.426  11.187  0.5544  1.0122  1.5426
  140SAPE  H12B15224   3.176   5.474  11.184 -0.5206 -0.3834  0.4148
  140SAPE   C1115225   3.121   5.259  11.146 -0.1321  0.3661 -0.0500
  140SAPE  H11A15226   3.037   5.205  11.097  0.1173 -1.4043  1.3844
  140SAPE  H11B15227   3.129   5.221  11.250 -1.0150 -0.2064 -0.1792
  140SAPE     P15228   3.289   5.083  11.058  0.4042  0.0381 -0.1828
  140SAPE   O1315229   3.376   5.041  11.171  0.1024  0.1698  0.6427
  140SAPE   O1415230   3.166   5.003  11.036  0.3466  0.7511 -0.5092
  140SAPE   O1215231   3.246   5.233  11.083 -0.7552 -0.5060 -0.0282
  140SAPE   O1115232   3.371   5.093  10.919 -0.5199 -0.0898 -0.8040
  140SAPE    C115233   3.297   5.136  10.799 -0.6319 -0.4558 -0.4568
  140SAPE    HA15234   3.228   5.220  10.821 -0.4763  0.3456 -2.6959
  140SAPE    HB15235   3.368   5.178  10.724  1.7093 -0.0676  1.8362
  140SAPE    C215236   3.232   5.020  10.727  0.7148 -0.2618  0.3080
  140SAPE    HS15237   3.151   4.984  10.794 -0.2089 -0.3841 -0.8537
  140SAPE   O2115238   3.324   4.916  10.702 -0.9073  0.2426 -0.3477
  140SAPE   C2115239   3.267   4.793  10.677 -0.2685 -0.3003  0.1907
  140SAPE   O2215240   3.148   4.765  10.681  0.5084 -0.4644  0.3163
  140SAPE   C2215241   3.386   4.694  10.670  0.1187  0.1034  0.7443
  140SAPE   H2R15242   3.474   4.736  10.619  1.5451  0.7498  3.5133
  140SAPE   H2S15243   3.415   4.680  10.777  2.3035  2.2975  0.5213
  140SAPE    C315244   3.153   5.064  10.597  0.3676 -0.0717  0.6613
  140SAPE    HX15245   3.058   5.119  10.617  0.5102  1.7937 -2.8733
  140SAPE    HY15246   3.125   4.971  10.543 -0.7137 -0.1782  1.3842
  140SAPE   O3115247   3.223   5.139  10.494  0.0339 -0.2390 -0.5799
  140SAPE   C3115248   3.209   5.121  10.360  0.0404  0.2746  0.4426
  140SAPE   O3215249   3.124   5.052  10.314  0.1765  0.0871  0.1085
  140SAPE   C3215250   3.303   5.213  10.284  0.0966 -0.9137 -0.4865
  140SAPE   H2X15251   3.402   5.197  10.332  0.6254  0.3450 -1.1246
  140SAPE   H2Y15252   3.254   5.308  10.314  0.4904 -0.3825 -1.5058
  140SAPE   C2315253   3.353   4.553  10.626  0.2858  0.6636 -0.4632
  140SAPE   H3R15254   3.263   4.507  10.672  0.5142  1.4840  0.8797
  140SAPE   H3S15255   3.440   4.495  10.665 -0.7214 -0.0621  0.8038
  140SAPE   C2415256   3.369   4.522  10.471 -0.0747 -0.6093  0.0474
  140SAPE   H4R15257   3.401   4.417  10.458  1.8369 -0.3204  1.8347
  140SAPE   H4S15258   3.463   4.572  10.440  1.5167 -1.5870  2.8888
  140SAPE   C2515259   3.248   4.544  10.392  0.1647 -0.0001  0.3442
  140SAPE   H5R15260   3.171   4.474  10.429 -0.1231  0.0214 -0.2095
  140SAPE   C2615261   3.227   4.632  10.297  0.4124 -0.1114 -0.4550
  140SAPE   H6R15262   3.127   4.634  10.252 -0.2064  2.6885  0.8351
  140SAPE   C2715263   3.319   4.742  10.236  0.9346  0.5733 -0.2035
  140SAPE   H7R15264   3.421   4.700  10.249  0.6260 -0.0154  0.3802
  140SAPE   H7S15265   3.307   4.831  10.302  1.2824  0.2944  0.2438
  140SAPE   C2815266   3.288   4.786  10.093 -0.2716 -0.6420 -0.2489
  140SAPE   H8R15267   3.196   4.846  10.082  0.6551  0.5703 -1.6242
  140SAPE   C2915268   3.354   4.755   9.980 -0.1750  0.2529 -0.1016
  140SAPE   H9R15269   3.329   4.800   9.883  0.6158 -0.3144 -0.5677
  140SAPE  C21015270   3.475   4.673   9.964  0.0829  0.6800  0.1543
  140SAPE  H10R15271   3.436   4.569   9.951 -1.1498  1.2121 -0.5948
  140SAPE  H10S15272   3.530   4.666  10.060  1.6712 -0.5349 -0.7924
  140SAPE  C21115273   3.576   4.717   9.853  0.8263  0.0576 -0.0723
  140SAPE  H11R15274   3.642   4.794   9.895 -1.4824  0.7076  2.6838
  140SAPE  C21215275   3.585   4.673   9.721 -0.0446 -0.9329 -0.1953
  140SAPE  H12R15276   3.653   4.726   9.652 -0.8899  0.2392 -0.1564
  140SAPE  C21315277   3.486   4.566   9.667  0.1450  0.2144 -0.0826
  140SAPE  H13R15278   3.423   4.515   9.743 -1.4558  1.1989 -0.6985
  140SAPE  H13S15279   3.537   4.490   9.604 -2.2111 -1.0998 -0.5210
  140SAPE  C21415280   3.395   4.643   9.574  1.0563 -1.1428  0.0368
  140SAPE  H14R15281   3.437   4.684   9.480 -1.6128  2.8619  0.3543
  140SAPE  C21515282   3.268   4.667   9.580  0.6110 -0.1779  0.3062
  140SAPE  H15R15283   3.223   4.716   9.492 -0.2743 -0.8523  0.3698
  140SAPE  C21615284   3.171   4.632   9.687 -0.4458 -0.4580  0.0552
  140SAPE  H16R15285   3.105   4.719   9.709  0.1125 -0.3143  1.2361
  140SAPE  H16S15286   3.236   4.616   9.776  1.1381  0.8053 -0.8189
  140SAPE  C21715287   3.091   4.500   9.667 -0.1366  0.1404 -0.9951
  140SAPE  H17R15288   3.022   4.511   9.581 -1.1868  0.0924 -0.1841
  140SAPE  H17S15289   3.034   4.479   9.760  1.3850 -2.2654 -0.5276
  140SAPE  C21815290   3.187   4.371   9.654  0.0179  0.4222 -0.4006
  140SAPE  H18R15291   3.257   4.367   9.740 -0.4048  1.2174 -0.0131
  140SAPE  H18S15292   3.250   4.388   9.564 -0.6788  2.1836 -0.5826
  140SAPE  C21915293   3.118   4.239   9.628  0.0776  0.9500  0.6900
  140SAPE  H19R15294   3.185   4.158   9.665  0.5741  0.3671 -1.3684
  140SAPE  H19S15295   3.099   4.207   9.524  1.2725  0.7463  0.5224
  140SAPE  C22015296   2.990   4.222   9.706  0.2369  0.6815 -0.1995
  140SAPE  H20R15297   2.988   4.276   9.803  2.0908 -0.4246  0.5024
  140SAPE  H20S15298   2.986   4.115   9.737  1.8315  0.9259  0.9363
  140SAPE  H20T15299   2.911   4.268   9.642  1.6419  0.9349 -1.8171
  140SAPE   C3315300   3.293   5.206  10.133  0.0050 -0.4134  0.2481
  140SAPE   H3X15301   3.190   5.191  10.094  0.2891  0.6113 -0.9783
  140SAPE   H3Y15302   3.342   5.111  10.101  2.9456  0.7419  1.0582
  140SAPE   C3415303   3.346   5.335  10.056  0.4520 -0.0812 -0.3887
  140SAPE   H4X15304   3.455   5.337  10.079  0.6272  0.2192 -1.2267
  140SAPE   H4Y15305   3.294   5.424  10.098  2.9365  0.9414  0.7362
  140SAPE   C3515306   3.317   5.319   9.904  0.0938  0.1153  0.4053
  140SAPE   H5X15307   3.212   5.283   9.900  0.0634  0.3058 -2.8001
  140SAPE   H5Y15308   3.379   5.238   9.860  0.3980 -0.0881  1.1843
  140SAPE   C3615309   3.349   5.440   9.820  0.9793  0.1244 -0.0442
  140SAPE   H6X15310   3.457   5.460   9.834  0.9792  0.0218  0.0956
  140SAPE   H6Y15311   3.289   5.531   9.843 -0.4937 -1.1524  1.3692
  140SAPE   C3715312   3.321   5.415   9.666 -0.3316  0.0889 -0.2951
  140SAPE   H7X15313   3.217   5.393   9.637  0.0859 -0.0085 -1.8254
  140SAPE   H7Y15314   3.383   5.335   9.620  1.3800  2.0600 -1.6475
  140SAPE   C3815315   3.358   5.541   9.591 -0.2073 -0.3634 -0.6564
  140SAPE   H8X15316   3.455   5.574   9.634 -1.0202  2.0288 -0.5096
  140SAPE   H8Y15317   3.293   5.631   9.590  0.1220 -0.1200 -1.7300
  140SAPE   C3915318   3.380   5.525   9.444 -0.2119  0.1458 -0.1525
  140SAPE   H9X15319   3.417   5.617   9.395  1.3900 -1.2450 -1.6889
  140SAPE   H9Y15320   3.278   5.503   9.405 -0.0305  0.7663 -1.0103
  140SAPE  C31015321   3.468   5.414   9.394 -0.1593  0.0448  0.5787
  140SAPE  H10X15322   3.426   5.316   9.428  0.9482 -1.2376 -1.5188
  140SAPE  H10Y15323   3.566   5.414   9.447 -0.7972 -1.2213  1.8491
  140SAPE  C31115324   3.475   5.396   9.246  0.2068  0.5016 -0.2491
  140SAPE  H11X15325   3.540   5.475   9.203  0.7353  0.4659  0.4536
  140SAPE  H11Y15326   3.379   5.410   9.191  2.0215  0.3843 -3.6949
  140SAPE  C31215327   3.523   5.260   9.209  0.0102  0.0795 -0.4299
  140SAPE  H12X15328   3.479   5.184   9.277 -0.4988  0.2421 -0.5687
  140SAPE  H12Y15329   3.633   5.256   9.221  0.3401 -2.6796 -3.2694
  140SAPE  C31315330   3.475   5.211   9.076  0.3162  0.2731  0.3461
  140SAPE  H13X15331   3.364   5.198   9.080  0.3638  0.0719  1.3097
  140SAPE  H13Y15332   3.516   5.109   9.061 -1.9055 -0.9067  1.6917
  140SAPE  C31415333   3.504   5.305   8.954  0.6051 -0.1173 -0.3726
  140SAPE  H14X15334   3.612   5.327   8.939  0.0675  2.0152 -1.6012
  140SAPE  H14Y15335   3.463   5.404   8.985  2.4256  0.4380  0.4080
  140SAPE  C31515336   3.450   5.253   8.822  0.1933 -0.0381 -0.1793
  140SAPE  H15X15337   3.504   5.159   8.795  0.9240  1.0370 -2.8224
  140SAPE  H15Y15338   3.469   5.331   8.745  4.0151 -0.2070  0.4056
  140SAPE  C31615339   3.307   5.210   8.816  0.4629  0.3853  1.2653
  140SAPE  H16X15340   3.249   5.303   8.837  1.1935  0.9010  1.0592
  140SAPE  H16Y15341   3.278   5.131   8.889 -0.5026 -0.4696  0.0090
  140SAPE  C31715342   3.251   5.165   8.674 -0.0117 -0.3237  0.5944
  140SAPE  H17X15343   3.147   5.134   8.695  0.7675 -3.1097  0.6445
  140SAPE  H17Y15344   3.292   5.067   8.643 -0.0057 -0.9550  2.4687
  140SAPE  C31815345   3.258   5.271   8.562  1.2003  0.0976 -0.2534
  140SAPE  H18X15346   3.358   5.272   8.514  1.6083  0.0461  0.5688
  140SAPE  H18Y15347   3.237   5.373   8.599 -0.9150  0.1690 -1.5330
  140SAPE  H18Z15348   3.190   5.252   8.477  0.3593  1.2936  0.1236
  141SAPE     N15349   3.459   0.392  10.919  0.5043 -0.2290 -0.3315
  141SAPE   HN115350   3.542   0.445  10.889  0.8700 -0.8813 -0.4822
  141SAPE   HN215351   3.467   0.291  10.893  1.1760 -0.3047  0.1512
  141SAPE   HN315352   3.381   0.436  10.867  0.1143 -1.5928 -0.9621
  141SAPE   C1215353   3.431   0.396  11.064 -0.3719  0.1082  0.6254
  141SAPE  H12A15354   3.439   0.503  11.094  1.2622  0.2474 -0.1632
  141SAPE  H12B15355   3.503   0.341  11.127 -1.1252 -2.1314 -0.3826
  141SAPE   C1115356   3.292   0.352  11.092  0.6403  0.0944  0.3438
  141SAPE  H11A15357   3.212   0.409  11.041 -1.5134 -2.3259  0.8070
  141SAPE  H11B15358   3.272   0.371  11.200 -0.1490  2.6494 -0.1949
  141SAPE     P15359   3.130   0.150  11.070 -0.3619  0.3187  0.1688
  141SAPE   O1315360   3.134   0.003  11.104  0.2193 -0.1348 -0.9506
  141SAPE   O1415361   3.037   0.228  11.154  0.2512  0.5140 -0.1994
  141SAPE   O1215362   3.280   0.212  11.075 -0.6837 -0.2409  0.1572
  141SAPE   O1115363   3.093   0.172  10.913  0.5835  0.4398 -0.0443
  141SAPE    C115364   3.180   0.110  10.822  0.0930  0.3148  0.6124
  141SAPE    HA15365   3.259   0.184  10.799 -0.0358  0.6274  1.1836
  141SAPE    HB15366   3.232   0.018  10.856 -0.4513 -0.0738  0.4098
  141SAPE    C215367   3.091   0.068  10.705  0.0680  0.1660 -0.6750
  141SAPE    HS15368   3.141   0.010  10.625  0.6455 -2.6446  1.5527
  141SAPE   O2115369   3.036   0.186  10.653  0.0870  0.5002 -0.4778
  141SAPE   C2115370   3.119   0.256  10.578  0.1362 -0.1519 -0.0852
  141SAPE   O2215371   3.236   0.231  10.555  0.0740  0.0205 -0.4264
  141SAPE   C2215372   3.049   0.376  10.525  0.2861  0.4986  0.2755
  141SAPE   H2R15373   2.954   0.402  10.577  2.3922  3.9023  2.8521
  141SAPE   H2S15374   3.120   0.460  10.531  0.4510  0.3986 -0.2943
  141SAPE    C315375   2.984  -0.037  10.747 -0.8243 -0.1598 -0.0292
  141SAPE    HX15376   2.938   0.001  10.841  1.6688 -0.5759  1.4596
  141SAPE    HY15377   3.030  -0.133  10.781  2.3229  0.7864 -1.2452
  141SAPE   O3115378   2.876  -0.050  10.653 -0.0681  0.1155  0.2593
  141SAPE   C3115379   2.905  -0.125  10.554  0.2080  0.4055  0.7400
  141SAPE   O3215380   3.007  -0.190  10.531  0.1239 -0.3247  0.3550
  141SAPE   C3215381   2.795  -0.104  10.443  0.6116  0.1605  0.0833
  141SAPE   H2X15382   2.771   0.004  10.441 -1.4042 -0.2494  0.5821
  141SAPE   H2Y15383   2.699  -0.155  10.467  0.0413  0.7754 -0.8176
  141SAPE   C2315384   3.015   0.369  10.371  0.0620  0.3539  0.8182
  141SAPE   H3R15385   3.098   0.343  10.301  0.2691  2.1622  0.3565
  141SAPE   H3S15386   2.983   0.473  10.352 -0.3438 -0.0795 -1.1051
  141SAPE   C2415387   2.893   0.277  10.334  0.4607  0.6831  0.0320
  141SAPE   H4R15388   2.930   0.176  10.362  1.4875  0.6549 -1.2959
  141SAPE   H4S15389   2.867   0.277  10.226  0.2605  2.3516  0.0508
  141SAPE   C2515390   2.774   0.306  10.413 -1.1146 -0.4816 -0.3876
  141SAPE   H5R15391   2.790   0.290  10.520  1.3500 -4.5932 -1.1295
  141SAPE   C2615392   2.658   0.349  10.369 -0.1881  0.0114  0.1234
  141SAPE   H6R15393   2.586   0.373  10.448 -1.7061  0.7721 -1.4216
  141SAPE   C2715394   2.611   0.380  10.227  0.3604 -0.0590  0.7270
  141SAPE   H7R15395   2.652   0.310  10.151 -0.8570  0.4145 -0.3886
  141SAPE   H7S15396   2.646   0.483  10.203 -0.7828  0.0193 -0.7271
  141SAPE   C2815397   2.465   0.377  10.205 -0.4787 -0.0381  0.0954
  141SAPE   H8R15398   2.406   0.397  10.296  2.3586  0.5194  1.9798
  141SAPE   C2915399   2.400   0.347  10.095  0.3515  0.2011 -0.1967
  141SAPE   H9R15400   2.291   0.336  10.104  0.4373 -2.9460 -1.7643
  141SAPE  C21015401   2.448   0.332   9.954  0.1343 -0.0869 -0.7018
  141SAPE  H10R15402   2.396   0.263   9.885  1.5269 -0.1200 -1.7656
  141SAPE  H10S15403   2.548   0.285   9.957 -0.8230 -2.2025 -0.6527
  141SAPE  C21115404   2.458   0.481   9.908  0.0950  0.8091 -0.4497
  141SAPE  H11R15405   2.538   0.539   9.955  1.3630 -1.7519  0.7451
  141SAPE  C21215406   2.386   0.533   9.801  0.3636 -0.3702 -0.2657
  141SAPE  H12R15407   2.398   0.638   9.773  0.2549  0.4910  2.5636
  141SAPE  C21315408   2.286   0.460   9.713  0.3803 -0.2010  0.5454
  141SAPE  H13R15409   2.198   0.527   9.705  1.1494  1.0460  2.0083
  141SAPE  H13S15410   2.254   0.368   9.767 -0.7662  0.2927  0.7213
  141SAPE  C21415411   2.346   0.428   9.575 -0.4479 -0.1266 -0.2830
  141SAPE  H14R15412   2.383   0.326   9.558  1.9929  0.2828  1.8366
  141SAPE  C21515413   2.363   0.518   9.472  0.2145  0.2998 -0.3755
  141SAPE  H15R15414   2.416   0.472   9.387  1.2985 -0.5430  0.7203
  141SAPE  C21615415   2.317   0.655   9.459  0.5074 -0.0761 -0.1403
  141SAPE  H16R15416   2.392   0.728   9.421  1.6486 -1.1318  0.0210
  141SAPE  H16S15417   2.299   0.696   9.560  0.8543 -1.5275  0.5399
  141SAPE  C21715418   2.185   0.658   9.375 -0.5822 -0.2612  0.3279
  141SAPE  H17R15419   2.163   0.766   9.377 -0.5459 -0.2144 -0.8903
  141SAPE  H17S15420   2.105   0.588   9.410 -2.4445  0.7934 -1.5881
  141SAPE  C21815421   2.211   0.632   9.223 -0.3656 -0.2375 -0.3014
  141SAPE  H18R15422   2.227   0.522   9.219 -2.7242 -0.6311 -0.2241
  141SAPE  H18S15423   2.300   0.690   9.190 -0.4837 -0.8176 -1.6929
  141SAPE  C21915424   2.096   0.658   9.124  0.1858 -0.4550 -0.1245
  141SAPE  H19R15425   2.056   0.761   9.138  0.3094 -0.3257 -0.7304
  141SAPE  H19S15426   2.007   0.598   9.151 -1.0056  1.0458 -0.5565
  141SAPE  C22015427   2.121   0.642   8.975 -0.0134  0.4722  0.2899
  141SAPE  H20R15428   2.089   0.730   8.915 -1.9801 -0.1425  0.3516
  141SAPE  H20S15429   2.083   0.546   8.934  1.1727 -0.0631  0.3910
  141SAPE  H20T15430   2.229   0.650   8.953 -0.3365  1.3610 -1.0980
  141SAPE   C3315431   2.844  -0.162  10.309  0.4662 -0.0278  0.2131
  141SAPE   H3X15432   2.838  -0.272  10.307  1.0685 -0.0670  0.3614
  141SAPE   H3Y15433   2.951  -0.147  10.286  0.1140 -1.0949 -2.4581
  141SAPE   C3415434   2.767  -0.103  10.187  0.6506  0.2838  0.0826
  141SAPE   H4X15435   2.791   0.004  10.169  0.3466  0.0277 -2.1775
  141SAPE   H4Y15436   2.660  -0.119  10.213  0.1930  1.5957 -0.9164
  141SAPE   C3515437   2.816  -0.166  10.062  0.0135 -0.1775 -0.1052
  141SAPE   H5X15438   2.793  -0.274  10.059  0.4862 -0.2576 -3.0740
  141SAPE   H5Y15439   2.926  -0.150  10.056 -0.2181  2.1496  0.5991
  141SAPE   C3615440   2.755  -0.112   9.931 -0.0831  0.0434  0.1254
  141SAPE   H6X15441   2.803  -0.156   9.841 -0.6209 -0.0863 -0.1012
  141SAPE   H6Y15442   2.776  -0.003   9.933 -0.8206  0.3104 -2.3292
  141SAPE   C3715443   2.603  -0.112   9.914 -0.1663  0.6627 -0.4814
  141SAPE   H7X15444   2.551  -0.057   9.995  0.1554  2.1208 -1.2161
  141SAPE   H7Y15445   2.565  -0.216   9.912 -0.6956  0.8289  0.6044
  141SAPE   C3815446   2.553  -0.044   9.787  0.4903 -0.4937  0.8606
  141SAPE   H8X15447   2.566   0.065   9.805  0.0100 -0.4069  0.6898
  141SAPE   H8Y15448   2.443  -0.056   9.800  0.7761 -2.0090  2.2448
  141SAPE   C3915449   2.614  -0.082   9.645 -0.3118 -0.5515 -0.0478
  141SAPE   H9X15450   2.663  -0.182   9.644  0.9053  0.0257  0.0665
  141SAPE   H9Y15451   2.702  -0.015   9.631 -1.4265  1.1065  0.6459
  141SAPE  C31015452   2.502  -0.076   9.535 -0.7090 -0.1832 -0.4059
  141SAPE  H10X15453   2.436  -0.164   9.551  0.8216 -0.9568  2.1961
  141SAPE  H10Y15454   2.548  -0.083   9.434  2.3100 -2.1774  0.9526
  141SAPE  C31115455   2.423   0.063   9.531 -0.0993  0.7221 -0.3454
  141SAPE  H11X15456   2.496   0.145   9.549  0.7352  0.6611 -3.1111
  141SAPE  H11Y15457   2.351   0.067   9.616 -2.0241  0.7911 -1.9264
  141SAPE  C31215458   2.353   0.097   9.395 -0.0976 -0.0575 -0.6494
  141SAPE  H12X15459   2.279   0.177   9.417  1.6302  1.1211  1.2845
  141SAPE  H12Y15460   2.303   0.003   9.362  1.1991 -1.4823  1.1640
  141SAPE  C31315461   2.455   0.146   9.291  0.1052 -0.1450 -0.4565
  141SAPE  H13X15462   2.524   0.063   9.264  0.3632 -0.5496  1.3306
  141SAPE  H13Y15463   2.508   0.239   9.321  0.6466  1.1359 -4.6865
  141SAPE  C31415464   2.365   0.190   9.169 -0.4642 -0.0787  0.7056
  141SAPE  H14X15465   2.317   0.288   9.193 -2.2368 -0.2755 -1.7364
  141SAPE  H14Y15466   2.297   0.110   9.135 -0.7536  0.9612 -1.3229
  141SAPE  C31515467   2.463   0.212   9.052 -0.7921  0.2480  0.7267
  141SAPE  H15X15468   2.562   0.166   9.071 -1.0763 -0.1436  1.2878
  141SAPE  H15Y15469   2.486   0.320   9.043  1.3320 -0.3122 -1.6206
  141SAPE  C31615470   2.434   0.163   8.910  0.0792 -0.2910 -0.3226
  141SAPE  H16X15471   2.430   0.052   8.918  0.9176 -0.4211 -1.5153
  141SAPE  H16Y15472   2.528   0.186   8.856  0.8964  0.9304  1.5306
  141SAPE  C31715473   2.304   0.217   8.848 -0.4665  0.0091 -0.1349
  141SAPE  H17X15474   2.317   0.324   8.822  1.9645 -0.5071 -1.4036
  141SAPE  H17Y15475   2.221   0.192   8.917  1.4763 -2.4213  1.4982
  141SAPE  C31815476   2.275   0.135   8.717  0.3271  0.7630  0.1550
  141SAPE  H18X15477   2.168   0.152   8.692  0.1571 -0.0017  0.3402
  141SAPE  H18Y15478   2.296   0.027   8.733  0.0654  0.8589  1.2973
  141SAPE  H18Z15479   2.346   0.154   8.635  0.9953 -0.9497  0.2965
  142SAPE     N15480   4.013   4.196  11.137 -0.4732  0.0945  0.1976
  142SAPE   HN115481   3.993   4.274  11.071 -0.1149  0.1141  0.1110
  142SAPE   HN215482   3.937   4.200  11.207 -0.2451  3.6419  0.4402
  142SAPE   HN315483   4.094   4.231  11.193 -1.0593 -0.0182  1.1434
  142SAPE   C1215484   4.050   4.070  11.062 -0.7421  0.7140 -0.1318
  142SAPE  H12A15485   4.134   4.084  10.991  0.4993  0.5622  1.2597
  142SAPE  H12B15486   3.958   4.040  11.008 -0.9410 -1.8843  1.4891
  142SAPE   C1115487   4.077   3.956  11.162 -0.6290 -0.1986 -0.2008
  142SAPE  H11A15488   4.065   3.860  11.107 -1.8179  0.2681 -0.7855
  142SAPE  H11B15489   4.006   3.965  11.247 -0.4346 -1.1404  0.0744
  142SAPE     P15490   4.340   3.894  11.196  0.2355 -0.0476 -0.2856
  142SAPE   O1315491   4.435   3.960  11.110 -0.5091 -0.0804  0.1766
  142SAPE   O1415492   4.380   3.859  11.335  0.4119  0.2169 -0.4805
  142SAPE   O1215493   4.213   3.983  11.212  0.2588  0.1909  0.5454
  142SAPE   O1115494   4.288   3.769  11.117  0.4756 -0.1130 -0.1432
  142SAPE    C115495   4.344   3.720  10.996  0.2222 -0.3342 -0.2320
  142SAPE    HA15496   4.444   3.758  10.967  0.1938 -0.0924 -0.0238
  142SAPE    HB15497   4.364   3.612  11.012  0.3413 -0.1309  1.1723
  142SAPE    C215498   4.231   3.724  10.885 -0.4084  0.3039  0.7705
  142SAPE    HS15499   4.280   3.674  10.798  3.8491  3.4285  1.0706
  142SAPE   O2115500   4.199   3.865  10.839 -0.4692  0.0206  0.3944
  142SAPE   C2115501   4.293   3.927  10.767 -1.0374 -0.6491  0.4855
  142SAPE   O2215502   4.407   3.885  10.742 -0.7525 -0.0594 -0.3757
  142SAPE   C2215503   4.246   4.063  10.728  0.3805 -0.2099 -0.1443
  142SAPE   H2R15504   4.250   4.137  10.812 -3.6346  0.9201 -0.7554
  142SAPE   H2S15505   4.324   4.102  10.659  1.4308 -1.6837  0.1638
  142SAPE    C315506   4.102   3.653  10.919  0.6408 -0.2968  0.5083
  142SAPE    HX15507   4.032   3.719  10.975 -1.6492 -0.5962 -1.8089
  142SAPE    HY15508   4.116   3.567  10.988 -1.1961 -1.2964 -0.2740
  142SAPE   O3115509   4.043   3.591  10.805 -0.0148 -0.0780 -0.1372
  142SAPE   C3115510   3.957   3.668  10.743 -0.3046  0.0015 -0.5240
  142SAPE   O3215511   3.923   3.779  10.785  0.3166  0.2061 -0.1445
  142SAPE   C3215512   3.920   3.603  10.604  0.6077 -0.0079 -0.2991
  142SAPE   H2X15513   3.907   3.495  10.627  0.3768  0.5106  2.2676
  142SAPE   H2Y15514   4.010   3.613  10.540 -0.0023 -1.7998 -1.4908
  142SAPE   C2315515   4.101   4.059  10.673 -0.0818  0.9149 -0.7790
  142SAPE   H3R15516   4.070   4.165  10.665  1.3246  1.3507 -0.6795
  142SAPE   H3S15517   4.040   4.003  10.748  1.2149 -2.4952 -2.0787
  142SAPE   C2415518   4.095   3.973  10.540 -0.4223 -0.4988  0.0661
  142SAPE   H4R15519   4.099   3.863  10.551 -1.6949 -0.8629 -2.3286
  142SAPE   H4S15520   4.178   3.999  10.470 -0.5454 -1.3731 -0.4165
  142SAPE   C2515521   3.959   4.011  10.482  0.0457  0.1578  0.6506
  142SAPE   H5R15522   3.866   3.987  10.537 -0.9826 -2.9791 -2.0932
  142SAPE   C2615523   3.924   4.064  10.364 -0.2093  0.2980  0.6870
  142SAPE   H6R15524   3.817   4.088  10.349 -0.2247  1.1622  1.9902
  142SAPE   C2715525   4.018   4.090  10.243 -0.2985 -0.3421 -0.3680
  142SAPE   H7R15526   4.070   3.996  10.217  1.5307  0.2331  0.9996
  142SAPE   H7S15527   4.107   4.152  10.268 -0.3629  0.8831 -2.7950
  142SAPE   C2815528   3.959   4.164  10.126 -0.1227  0.0773  0.0208
  142SAPE   H8R15529   3.851   4.178  10.139 -0.6558 -2.4503 -0.9958
  142SAPE   C2915530   4.011   4.209  10.010  0.2225  0.5250 -0.1952
  142SAPE   H9R15531   3.947   4.249   9.929  0.1428  0.3520 -0.2197
  142SAPE  C21015532   4.150   4.187   9.960 -0.1410 -0.1413  0.6443
  142SAPE  H10R15533   4.214   4.170  10.048  0.8815 -1.1397 -0.2602
  142SAPE  H10S15534   4.183   4.284   9.917 -1.6951 -0.2584 -0.9508
  142SAPE  C21115535   4.176   4.077   9.866 -0.0077 -0.1030 -0.0710
  142SAPE  H11R15536   4.155   3.980   9.914  0.0287  0.8792  2.0229
  142SAPE  C21215537   4.184   4.088   9.734  1.1828  0.6308  0.3517
  142SAPE  H12R15538   4.181   3.998   9.670  2.4542  1.2058 -0.5765
  142SAPE  C21315539   4.166   4.212   9.653  0.0424 -0.4160 -0.0694
  142SAPE  H13R15540   4.166   4.305   9.713 -1.6170 -0.4526  0.0159
  142SAPE  H13S15541   4.056   4.211   9.641 -0.3165  3.9696  1.3210
  142SAPE  C21415542   4.233   4.217   9.516  0.1536  0.3366 -0.2632
  142SAPE  H14R15543   4.327   4.272   9.500  1.1418 -1.1068  0.4375
  142SAPE  C21515544   4.192   4.146   9.408  0.3572  0.0950  0.7767
  142SAPE  H15R15545   4.235   4.163   9.309  2.2217 -1.2127  1.3177
  142SAPE  C21615546   4.069   4.059   9.413  0.0387  0.2298  0.3308
  142SAPE  H16R15547   3.977   4.120   9.405  0.7827  1.4866  1.0422
  142SAPE  H16S15548   4.055   4.005   9.509  0.1209  0.3191  0.3929
  142SAPE  C21715549   4.073   3.940   9.307  0.7439  0.2870 -0.4984
  142SAPE  H17R15550   4.173   3.891   9.312 -0.0140 -1.8321 -3.4595
  142SAPE  H17S15551   4.064   3.984   9.206  0.9530  0.2294 -0.5432
  142SAPE  C21815552   3.958   3.844   9.338  0.0642  0.4627 -0.1003
  142SAPE  H18R15553   3.866   3.903   9.360  0.4429  1.6694 -1.6415
  142SAPE  H18S15554   3.977   3.784   9.430 -1.2801 -1.8444 -1.2311
  142SAPE  C21915555   3.927   3.747   9.228  0.0799 -0.6148 -0.0930
  142SAPE  H19R15556   3.877   3.802   9.145 -1.0086 -1.2450  0.1276
  142SAPE  H19S15557   3.849   3.680   9.267 -1.9866  0.4684 -2.1113
  142SAPE  C22015558   4.043   3.676   9.163  0.0468  0.8928  0.2241
  142SAPE  H20R15559   4.095   3.617   9.241  1.6689  0.3560 -1.2029
  142SAPE  H20S15560   4.115   3.752   9.127 -0.8693  0.9519 -1.5795
  142SAPE  H20T15561   4.016   3.600   9.086  0.9637  0.1522  0.6100
  142SAPE   C3315562   3.788   3.640  10.542  0.5037  0.5915  1.1608
  142SAPE   H3X15563   3.780   3.750  10.523 -0.5710  0.2441 -0.6001
  142SAPE   H3Y15564   3.706   3.624  10.616  0.4756  0.3052  1.0658
  142SAPE   C3415565   3.762   3.546  10.424 -0.3966  0.0334 -0.1398
  142SAPE   H4X15566   3.651   3.539  10.415 -0.4056 -0.0993  0.0767
  142SAPE   H4Y15567   3.797   3.443  10.447  0.8171  0.0345 -1.8249
  142SAPE   C3515568   3.824   3.611  10.297  0.5882  0.4395  0.0235
  142SAPE   H5X15569   3.825   3.529  10.222 -0.2046  1.6329 -1.3205
  142SAPE   H5Y15570   3.928   3.648  10.311  0.6536  0.8034 -1.2907
  142SAPE   C3615571   3.737   3.717  10.243 -0.0882 -0.6762  0.2110
  142SAPE   H6X15572   3.739   3.801  10.316  0.3736 -0.5207  0.0200
  142SAPE   H6Y15573   3.633   3.678  10.233 -0.5019  0.0491  1.4881
  142SAPE   C3715574   3.799   3.790  10.118  0.2645 -0.0245 -0.3177
  142SAPE   H7X15575   3.897   3.835  10.144 -0.1725  0.5200  0.4395
  142SAPE   H7Y15576   3.733   3.879  10.107  0.5481  0.4150  1.3448
  142SAPE   C3815577   3.803   3.701   9.998  0.3100 -0.0116  0.0113
  142SAPE   H8X15578   3.706   3.654   9.971  0.3082 -0.5454  0.9209
  142SAPE   H8Y15579   3.862   3.611  10.026  2.8850  2.0498  1.6316
  142SAPE   C3915580   3.859   3.767   9.872  0.2758 -0.1660 -0.5829
  142SAPE   H9X15581   3.869   3.697   9.786 -0.8104  1.8698 -2.4457
  142SAPE   H9Y15582   3.964   3.800   9.889  1.1288 -2.5562 -0.6963
  142SAPE  C31015583   3.780   3.888   9.808  0.9398  0.3214  0.1720
  142SAPE  H10X15584   3.788   3.980   9.870  0.8078  0.8891 -0.6292
  142SAPE  H10Y15585   3.673   3.858   9.811  1.5074 -1.6843  1.5024
  142SAPE  C31115586   3.822   3.923   9.661  0.2992 -0.5967 -0.0820
  142SAPE  H11X15587   3.802   3.840   9.590 -1.3957 -0.5831  0.3230
  142SAPE  H11Y15588   3.932   3.935   9.660  0.4570 -1.3814  2.1858
  142SAPE  C31215589   3.752   4.047   9.592 -0.0351 -0.3869 -1.1497
  142SAPE  H12X15590   3.820   4.091   9.515  2.7111 -0.9119  0.8269
  142SAPE  H12Y15591   3.753   4.129   9.667 -1.5366 -0.8656 -0.5567
  142SAPE  C31315592   3.616   4.021   9.531  0.5354  0.1466  0.5053
  142SAPE  H13X15593   3.548   3.968   9.601 -0.2391  2.5603  1.7013
  142SAPE  H13Y15594   3.638   3.945   9.453  0.4723  0.0484  0.5843
  142SAPE  C31415595   3.560   4.154   9.478  0.3386  0.2811 -0.5750
  142SAPE  H14X15596   3.638   4.207   9.419 -0.4655  2.0524 -0.1106
  142SAPE  H14Y15597   3.545   4.234   9.553  0.5579  0.7257 -1.0013
  142SAPE  C31515598   3.429   4.134   9.393  0.2368 -0.2054 -0.4230
  142SAPE  H15X15599   3.347   4.137   9.468 -1.6621  0.7365 -2.4065
  142SAPE  H15Y15600   3.437   4.031   9.354  1.7608 -0.9024  1.5549
  142SAPE  C31615601   3.419   4.249   9.295  0.0060  0.3649 -0.5374
  142SAPE  H16X15602   3.499   4.257   9.218  0.2786  2.1059 -0.1098
  142SAPE  H16Y15603   3.414   4.342   9.355 -0.0956 -0.7990  1.3257
  142SAPE  C31715604   3.293   4.248   9.210  0.2301 -0.6239 -0.2515
  142SAPE  H17X15605   3.202   4.233   9.272  0.0102 -0.3471 -0.5030
  142SAPE  H17Y15606   3.298   4.164   9.138 -0.5371 -0.7834 -0.1236
  142SAPE  C31815607   3.275   4.391   9.142  0.0519  1.1574 -0.0316
  142SAPE  H18X15608   3.174   4.398   9.096  0.7900  0.6617 -1.8107
  142SAPE  H18Y15609   3.348   4.395   9.058  0.9969  0.4842  0.7256
  142SAPE  H18Z15610   3.304   4.470   9.214  2.3711 -0.2124  0.6461
  143SAPE     N15611   4.274   4.875  11.091 -0.1755 -0.1820  0.2411
  143SAPE   HN115612   4.305   4.840  11.185 -1.7489 -2.3248  0.0500
  143SAPE   HN215613   4.275   4.790  11.031  4.6612  0.0225 -0.3492
  143SAPE   HN315614   4.347   4.936  11.048  0.5446 -0.6547  0.7623
  143SAPE   C1215615   4.143   4.951  11.108 -0.5237 -0.1972 -0.7397
  143SAPE  H12A15616   4.100   4.960  11.006  0.4195 -2.3282 -1.3976
  143SAPE  H12B15617   4.163   5.054  11.142 -2.2129  0.6585 -2.1475
  143SAPE   C1115618   4.047   4.884  11.200  0.4633  0.3331 -0.6321
  143SAPE  H11A15619   3.948   4.934  11.204 -0.0491 -0.6402 -0.7492
  143SAPE  H11B15620   4.090   4.882  11.302  1.6516 -0.7377 -1.1227
  143SAPE     P15621   3.896   4.714  11.061  0.3621  0.2138  0.2062
  143SAPE   O1315622   3.806   4.630  11.143 -0.3484 -0.0187 -0.1257
  143SAPE   O1415623   3.844   4.837  11.001  0.3399 -0.4309  0.4542
  143SAPE   O1215624   4.020   4.747  11.155  0.4038 -0.2971 -0.0807
  143SAPE   O1115625   3.964   4.623  10.950 -0.2902  0.4529  0.1859
  143SAPE    C115626   4.054   4.684  10.860 -0.3929  0.8384  0.4460
  143SAPE    HA15627   4.113   4.773  10.889  0.2314  1.1917 -1.6969
  143SAPE    HB15628   4.128   4.604  10.839 -3.5701 -1.8734 -1.4311
  143SAPE    C215629   3.978   4.715  10.724  0.0377  0.1059 -0.1345
  143SAPE    HS15630   3.875   4.744  10.753  0.4618 -0.3840  1.9880
  143SAPE   O2115631   3.975   4.590  10.633  0.0312 -0.7016 -0.1838
  143SAPE   C2115632   3.865   4.585  10.566 -0.2875  0.4610 -0.4120
  143SAPE   O2215633   3.788   4.677  10.542 -0.1007  0.3343 -0.2867
  143SAPE   C2215634   3.860   4.442  10.496  0.5364  0.0734 -0.2726
  143SAPE   H2R15635   3.964   4.402  10.488  1.0629  1.5558 -1.2867
  143SAPE   H2S15636   3.784   4.384  10.552 -0.7475  1.2605 -0.7415
  143SAPE    C315637   4.048   4.844  10.657 -0.4174 -0.0119 -0.1935
  143SAPE    HX15638   4.154   4.816  10.638 -0.0831 -0.4555  2.0527
  143SAPE    HY15639   4.048   4.931  10.725 -1.2781 -0.0170 -0.1831
  143SAPE   O3115640   3.996   4.886  10.530 -0.7769  0.2377 -0.4082
  143SAPE   C3115641   3.879   4.941  10.530  0.5529 -0.1076  0.7550
  143SAPE   O3215642   3.806   4.970  10.620  0.1598 -0.2138  0.2937
  143SAPE   C3215643   3.842   4.945  10.383  0.0016  0.1301  0.5243
  143SAPE   H2X15644   3.815   4.839  10.365  1.7150 -0.4642  1.1991
  143SAPE   H2Y15645   3.927   4.984  10.322  0.1970  0.8246  1.2201
  143SAPE   C2315646   3.802   4.450  10.355 -0.3557  0.2587 -0.0420
  143SAPE   H3R15647   3.717   4.521  10.359  0.7716  1.5925  1.0459
  143SAPE   H3S15648   3.762   4.349  10.330 -0.6334 -0.0046  1.3636
  143SAPE   C2415649   3.905   4.487  10.252  0.7906 -0.5182  0.5040
  143SAPE   H4R15650   3.860   4.471  10.152 -0.0650 -0.7853  0.9232
  143SAPE   H4S15651   3.993   4.418  10.247  0.1653 -1.2426 -2.1198
  143SAPE   C2515652   3.963   4.632  10.255 -0.2427 -0.4347 -0.2257
  143SAPE   H5R15653   3.992   4.669  10.355 -0.8982  0.4963 -0.3693
  143SAPE   C2615654   3.980   4.724  10.161  0.2280 -0.0972  0.1615
  143SAPE   H6R15655   4.038   4.814  10.184  0.8254 -0.3811 -0.1941
  143SAPE   C2715656   3.951   4.706  10.010 -0.6080 -0.0171 -0.7312
  143SAPE   H7R15657   3.998   4.798   9.968  0.7393  0.6211  1.9746
  143SAPE   H7S15658   3.840   4.714   9.999 -1.1613 -1.4518  2.5633
  143SAPE   C2815659   4.019   4.591   9.945 -0.2525 -0.7034 -0.2242
  143SAPE   H8R15660   4.026   4.502  10.011  0.2329  0.0475  0.7616
  143SAPE   C2915661   4.071   4.586   9.820  0.6231  0.2816  0.2051
  143SAPE   H9R15662   4.107   4.495   9.768 -1.0913  0.6724 -1.8029
  143SAPE  C21015663   4.067   4.703   9.725 -0.1168 -0.6171  0.0388
  143SAPE  H10R15664   4.161   4.726   9.670 -0.9778 -0.7409 -1.5570
  143SAPE  H10S15665   4.057   4.797   9.783 -1.0828  0.0352 -1.1212
  143SAPE  C21115666   3.956   4.705   9.624 -0.2917  0.2329 -0.5511
  143SAPE  H11R15667   3.874   4.776   9.646 -0.5355  0.2357 -1.4489
  143SAPE  C21215668   3.952   4.622   9.517 -0.4798  0.0582  0.0874
  143SAPE  H12R15669   3.862   4.620   9.453  0.6697 -1.6618 -1.5952
  143SAPE  C21315670   4.056   4.520   9.473 -0.2518 -0.1198 -0.3575
  143SAPE  H13R15671   4.020   4.415   9.476  0.2555 -0.2901 -0.0811
  143SAPE  H13S15672   4.148   4.525   9.535 -1.5764  1.5432  1.6035
  143SAPE  C21415673   4.094   4.566   9.337 -0.3102 -0.3489  0.0761
  143SAPE  H14R15674   4.171   4.643   9.324  0.1112 -1.0084 -1.5520
  143SAPE  C21515675   4.047   4.517   9.225 -0.4428  0.9796  0.5179
  143SAPE  H15R15676   4.099   4.551   9.133  3.2088 -2.2323  1.1243
  143SAPE  C21615677   3.948   4.407   9.210 -0.5603  0.4009 -0.2554
  143SAPE  H16R15678   3.916   4.354   9.302 -1.8024 -0.3458 -1.0775
  143SAPE  H16S15679   3.993   4.328   9.147  2.0163  2.2110 -0.8270
  143SAPE  C21715680   3.820   4.462   9.145 -0.2438  0.0387  0.0326
  143SAPE  H17R15681   3.774   4.540   9.209 -2.7432  0.0524 -1.6172
  143SAPE  H17S15682   3.740   4.384   9.140 -2.6950  2.4699 -1.7785
  143SAPE  C21815683   3.842   4.509   9.003 -0.0323 -0.3115 -0.1041
  143SAPE  H18R15684   3.885   4.427   8.943 -0.1412 -1.0089  0.7524
  143SAPE  H18S15685   3.910   4.597   8.996 -1.7610  1.2776  1.5832
  143SAPE  C21915686   3.705   4.555   8.945 -0.1122  0.2742  0.9345
  143SAPE  H19R15687   3.708   4.620   8.855 -2.6312 -1.9175 -0.9082
  143SAPE  H19S15688   3.639   4.616   9.010 -1.4885  2.2505 -2.0983
  143SAPE  C22015689   3.611   4.438   8.903 -0.2419 -0.3122  0.1381
  143SAPE  H20R15690   3.596   4.372   8.991  0.2305  0.8672  1.1293
  143SAPE  H20S15691   3.645   4.379   8.815 -1.5259 -0.1352 -0.4987
  143SAPE  H20T15692   3.507   4.479   8.896 -0.0954 -0.0760 -0.8640
  143SAPE   C3315693   3.721   5.031  10.358 -0.0945  0.5841  0.6734
  143SAPE   H3X15694   3.745   5.132  10.397 -1.5155  0.3554  2.2802
  143SAPE   H3Y15695   3.649   4.993  10.434  0.3724  0.5609  1.1082
  143SAPE   C3415696   3.652   5.024  10.218  0.1358  0.2352  0.0700
  143SAPE   H4X15697   3.575   5.105  10.224 -0.2396 -0.1046 -0.0921
  143SAPE   H4Y15698   3.602   4.928  10.192  0.3883 -0.1914  1.1283
  143SAPE   C3515699   3.754   5.071  10.112  0.3870 -0.2308 -0.2880
  143SAPE   H5X15700   3.831   4.993  10.096 -2.8782 -3.3060 -2.7427
  143SAPE   H5Y15701   3.796   5.172  10.132 -0.3658 -0.1791  1.1789
  143SAPE   C3615702   3.679   5.084   9.981  0.7954  0.1240  0.8086
  143SAPE   H6X15703   3.598   5.159   9.997  0.8691 -0.0839  2.3713
  143SAPE   H6Y15704   3.621   4.990   9.969 -0.4804  0.9820  0.0273
  143SAPE   C3715705   3.778   5.122   9.871  0.1009 -0.1225  0.0443
  143SAPE   H7X15706   3.851   5.040   9.854  0.0255 -0.2293  0.2340
  143SAPE   H7Y15707   3.834   5.210   9.909  1.0718 -1.2067  1.2352
  143SAPE   C3815708   3.712   5.154   9.743  0.4572  0.1997  0.6816
  143SAPE   H8X15709   3.784   5.209   9.679 -1.8588  0.5458 -1.8038
  143SAPE   H8Y15710   3.620   5.214   9.756 -0.0080  0.2671 -2.2594
  143SAPE   C3915711   3.659   5.036   9.674  0.0736  0.4065 -0.5085
  143SAPE   H9X15712   3.583   4.983   9.734  0.6879 -0.1153 -0.1774
  143SAPE   H9Y15713   3.733   4.953   9.668  0.0277  0.4603 -2.7957
  143SAPE  C31015714   3.591   5.076   9.541  0.1607  0.8336  0.9338
  143SAPE  H10X15715   3.651   5.159   9.498 -0.2093 -0.1914 -1.7298
  143SAPE  H10Y15716   3.490   5.113   9.568  0.4989  1.2740  1.6236
  143SAPE  C31115717   3.573   4.962   9.438  0.2905 -0.4354  0.4014
  143SAPE  H11X15718   3.488   4.989   9.371  1.6790  1.4206 -0.6939
  143SAPE  H11Y15719   3.554   4.866   9.492 -0.7004 -1.3488 -1.4792
  143SAPE  C31215720   3.691   4.944   9.341  0.2386 -0.0210 -0.1288
  143SAPE  H12X15721   3.776   4.921   9.408 -0.0008 -0.7954 -0.0784
  143SAPE  H12Y15722   3.714   5.045   9.300  0.6070  0.0014  0.1259
  143SAPE  C31315723   3.678   4.851   9.225 -0.5524 -0.6264 -0.2383
  143SAPE  H13X15724   3.585   4.879   9.172  0.2436  0.3885 -1.1564
  143SAPE  H13Y15725   3.661   4.744   9.250  1.1804 -0.8276  0.2279
  143SAPE  C31415726   3.786   4.857   9.115 -0.5900  0.4551  0.1726
  143SAPE  H14X15727   3.746   4.819   9.018  2.8528 -1.1197 -0.8376
  143SAPE  H14Y15728   3.871   4.788   9.137 -0.0978  0.2813 -2.0283
  143SAPE  C31515729   3.835   4.998   9.088  0.2501 -0.6116 -0.2038
  143SAPE  H15X15730   3.902   5.024   9.173 -0.0390  1.9976 -0.7130
  143SAPE  H15Y15731   3.755   5.074   9.095  1.9224  1.3451 -1.4465
  143SAPE  C31615732   3.905   5.027   8.950 -0.8965  0.3517  0.0368
  143SAPE  H16X15733   3.939   5.133   8.947 -2.8162  0.9978 -0.3182
  143SAPE  H16Y15734   3.823   5.017   8.876 -1.7379 -0.5990  1.0711
  143SAPE  C31715735   4.024   4.929   8.915  0.6727  0.2275 -0.5594
  143SAPE  H17X15736   3.978   4.832   8.942  0.8933  0.7475  1.9262
  143SAPE  H17Y15737   4.104   4.947   8.991 -1.0213  1.6783  0.9733
  143SAPE  C31815738   4.077   4.923   8.773 -0.8216  0.6252 -0.3786
  143SAPE  H18X15739   4.150   4.839   8.773 -1.0220  0.4399  0.2524
  143SAPE  H18Y15740   4.125   5.017   8.738  2.4781 -1.1803 -1.1213
  143SAPE  H18Z15741   3.996   4.899   8.701 -1.2104 -0.5988  0.4376
  144SAPE     N15742   1.514   2.192  10.997  0.6429  0.2170  0.1325
  144SAPE   HN115743   1.595   2.130  10.977 -0.7614 -1.6580  0.0157
  144SAPE   HN215744   1.528   2.232  11.092  1.9779  0.1511 -0.0200
  144SAPE   HN315745   1.434   2.127  11.003  1.4032 -0.9800 -1.8036
  144SAPE   C1215746   1.502   2.292  10.881 -0.5926 -0.1433 -0.0536
  144SAPE  H12A15747   1.402   2.339  10.882 -1.4894 -1.9343 -1.1541
  144SAPE  H12B15748   1.507   2.233  10.787 -1.8851 -0.7646  0.2471
  144SAPE   C1115749   1.622   2.383  10.884 -0.7300 -0.1043  0.3379
  144SAPE  H11A15750   1.633   2.445  10.975  1.6614 -0.3226  0.2672
  144SAPE  H11B15751   1.604   2.454  10.800 -0.8309  0.0882  0.5223
  144SAPE     P15752   1.884   2.319  10.922  0.0928  0.1499 -0.1203
  144SAPE   O1315753   1.882   2.429  11.023 -0.1939  0.3305  0.3746
  144SAPE   O1415754   1.937   2.185  10.961 -1.2735 -0.6616  0.0815
  144SAPE   O1215755   1.744   2.304  10.853  0.3722  0.5610 -0.4208
  144SAPE   O1115756   1.971   2.374  10.801  0.3246  0.1003 -0.8659
  144SAPE    C115757   1.954   2.302  10.674 -0.5252 -0.3252  0.6463
  144SAPE    HA15758   1.965   2.193  10.690 -1.9118 -0.3996  1.2761
  144SAPE    HB15759   1.852   2.316  10.632 -0.5052 -1.6594  0.1122
  144SAPE    C215760   2.059   2.332  10.559  0.4962  0.9654 -0.3660
  144SAPE    HS15761   2.158   2.329  10.608  0.5373  0.6562 -0.4656
  144SAPE   O2115762   2.035   2.461  10.495  0.1872  0.3586 -0.1597
  144SAPE   C2115763   2.145   2.521  10.456 -0.1311 -0.3052  0.5067
  144SAPE   O2215764   2.261   2.487  10.481  0.1356  0.6265 -0.3101
  144SAPE   C2215765   2.104   2.654  10.374  0.6136 -1.0560  0.3086
  144SAPE   H2R15766   2.009   2.626  10.324  0.2068  1.3025 -0.3398
  144SAPE   H2S15767   2.074   2.735  10.444  0.0381 -0.7588 -0.2745
  144SAPE    C315768   2.059   2.226  10.446  1.2599  1.1188 -0.5641
  144SAPE    HX15769   1.986   2.249  10.365 -0.7573 -3.4896 -0.3626
  144SAPE    HY15770   2.026   2.129  10.488 -3.7126  0.7060 -4.3739
  144SAPE   O3115771   2.190   2.216  10.397 -0.2654 -0.2532  0.2142
  144SAPE   C3115772   2.203   2.101  10.316 -0.3545 -0.0060 -0.5217
  144SAPE   O3215773   2.110   2.025  10.291 -0.2687 -0.8050 -1.3164
  144SAPE   C3215774   2.334   2.096  10.245  0.3494 -0.1228 -0.0100
  144SAPE   H2X15775   2.412   2.043  10.303  2.3162  1.4766 -1.0528
  144SAPE   H2Y15776   2.364   2.200  10.222 -2.0083  0.4324 -0.7878
  144SAPE   C2315777   2.223   2.687  10.272  0.2973 -0.3854 -0.0561
  144SAPE   H3R15778   2.237   2.613  10.190 -3.2066 -0.4741 -0.7025
  144SAPE   H3S15779   2.315   2.692  10.334 -0.6928 -0.8053  1.4804
  144SAPE   C2415780   2.206   2.822  10.207  0.3331 -0.1672  0.6846
  144SAPE   H4R15781   2.305   2.855  10.168  0.1798 -1.4213 -0.8773
  144SAPE   H4S15782   2.184   2.894  10.289  3.0474  0.2759  1.1192
  144SAPE   C2515783   2.093   2.821  10.110  0.3453  0.1639 -0.1349
  144SAPE   H5R15784   1.993   2.838  10.152  0.7518  1.9782  0.1904
  144SAPE   C2615785   2.108   2.822   9.974  0.2922 -0.6073  0.1664
  144SAPE   H6R15786   2.010   2.814   9.924 -0.4335  1.3439  1.1533
  144SAPE   C2715787   2.231   2.811   9.887  0.1823  0.1780 -0.0718
  144SAPE   H7R15788   2.320   2.780   9.946  0.4423 -0.7230 -0.8995
  144SAPE   H7S15789   2.245   2.914   9.847 -0.3682 -0.2725 -1.4936
  144SAPE   C2815790   2.215   2.712   9.779  0.5338 -0.2368  0.3396
  144SAPE   H8R15791   2.207   2.606   9.810  0.1110 -0.7632 -1.4541
  144SAPE   C2915792   2.211   2.733   9.649  0.7850  0.0148 -0.2726
  144SAPE   H9R15793   2.200   2.651   9.577  3.2909  0.0633 -0.8255
  144SAPE  C21015794   2.223   2.868   9.575  0.0006  0.5674 -0.0690
  144SAPE  H10R15795   2.325   2.886   9.535  0.0366  1.1052  0.2572
  144SAPE  H10S15796   2.199   2.950   9.647  0.6659 -0.5148  1.4265
  144SAPE  C21115797   2.118   2.869   9.467 -0.3232 -0.1942  0.4312
  144SAPE  H11R15798   2.021   2.818   9.479  0.2803 -0.9537  2.3774
  144SAPE  C21215799   2.132   2.933   9.348 -0.6326 -0.1375 -0.3027
  144SAPE  H12R15800   2.042   2.948   9.287  0.8032  2.3481 -1.9895
  144SAPE  C21315801   2.246   3.023   9.315  0.1591 -0.5325  0.3118
  144SAPE  H13R15802   2.320   3.023   9.398 -0.3092 -1.5688  0.7516
  144SAPE  H13S15803   2.218   3.130   9.323  0.6792 -0.4465  1.0741
  144SAPE  C21415804   2.319   2.981   9.192 -0.3523  0.6983  0.2442
  144SAPE  H14R15805   2.398   2.905   9.205 -2.1918 -1.3489 -0.0075
  144SAPE  C21515806   2.294   3.012   9.069 -0.1325  0.5154  0.5433
  144SAPE  H15R15807   2.347   2.959   8.989 -0.5226  1.8121 -0.6253
  144SAPE  C21615808   2.185   3.110   9.024  0.0371  0.4664 -0.0249
  144SAPE  H16R15809   2.230   3.201   8.980 -0.1636  2.0006  2.7074
  144SAPE  H16S15810   2.123   3.144   9.109  1.6316 -0.2232  1.4841
  144SAPE  C21715811   2.081   3.035   8.940  0.1984  0.2519 -0.3070
  144SAPE  H17R15812   2.002   3.112   8.924 -0.7426 -1.0575 -2.4997
  144SAPE  H17S15813   2.029   2.950   8.989 -2.9332  2.0925 -0.1475
  144SAPE  C21815814   2.124   3.011   8.791 -0.3908 -0.6691 -0.3947
  144SAPE  H18R15815   2.210   2.941   8.784  1.3173  1.3201 -0.4469
  144SAPE  H18S15816   2.170   3.105   8.753  1.2110 -0.2214  2.3386
  144SAPE  C21915817   2.001   2.982   8.707  0.3321 -0.4230 -0.0973
  144SAPE  H19R15818   1.928   3.066   8.717  0.7261 -0.2730  1.9180
  144SAPE  H19S15819   1.945   2.895   8.748  0.3920  0.1333  1.1901
  144SAPE  C22015820   2.029   2.968   8.558 -0.9532  0.8562 -0.5133
  144SAPE  H20R15821   2.046   3.065   8.506 -1.2732  0.3752 -1.5515
  144SAPE  H20S15822   1.939   2.928   8.507 -3.3655  3.5987  1.3196
  144SAPE  H20T15823   2.124   2.911   8.543 -0.5570  1.5576 -0.6952
  144SAPE   C3315824   2.316   2.030  10.107 -0.0492  0.0724 -0.4507
  144SAPE   H3X15825   2.257   1.935  10.108  0.6587 -0.3960 -1.2687
  144SAPE   H3Y15826   2.412   1.995  10.063 -1.0812 -3.6520 -0.0821
  144SAPE   C3415827   2.247   2.122  10.007  0.1729  0.5726 -0.3851
  144SAPE   H4X15828   2.291   2.224  10.008  2.0664 -0.1755 -1.9104
  144SAPE   H4Y15829   2.138   2.122  10.032 -0.3556 -2.4265 -2.2380
  144SAPE   C3515830   2.263   2.061   9.866 -0.2914 -0.5957 -0.5711
  144SAPE   H5X15831   2.253   1.950   9.874  2.3070 -0.9682 -1.3846
  144SAPE   H5Y15832   2.370   2.085   9.844  0.7600 -2.0226  2.4050
  144SAPE   C3615833   2.184   2.134   9.749  0.1150 -0.1977 -0.0615
  144SAPE   H6X15834   2.075   2.129   9.772 -0.2842 -0.9478 -1.8969
  144SAPE   H6Y15835   2.189   2.062   9.664  1.8610  0.2838 -0.4020
  144SAPE   C3715836   2.248   2.266   9.707 -0.1552 -0.0893 -0.4770
  144SAPE   H7X15837   2.357   2.245   9.696  0.4286  2.0167  0.7293
  144SAPE   H7Y15838   2.233   2.343   9.786  1.1973 -1.9592  1.7194
  144SAPE   C3815839   2.194   2.318   9.573 -0.3436 -0.8454 -0.2030
  144SAPE   H8X15840   2.106   2.384   9.590  1.6881  1.9516 -0.0392
  144SAPE   H8Y15841   2.160   2.227   9.518 -0.3998 -0.9405 -0.0130
  144SAPE   C3915842   2.290   2.392   9.479  0.2301  0.3223 -0.2525
  144SAPE   H9X15843   2.367   2.316   9.452  2.3233  0.5276  4.3045
  144SAPE   H9Y15844   2.330   2.467   9.550 -3.2074  0.7592  1.3992
  144SAPE  C31015845   2.234   2.450   9.350  0.2319 -0.5441  0.8641
  144SAPE  H10X15846   2.155   2.524   9.373 -0.6566 -0.6649 -1.5392
  144SAPE  H10Y15847   2.194   2.360   9.298  3.2799 -0.1968 -2.4151
  144SAPE  C31115848   2.349   2.511   9.257 -0.0699 -1.0421  0.2589
  144SAPE  H11X15849   2.417   2.425   9.236  2.7549  0.1435  3.5813
  144SAPE  H11Y15850   2.401   2.588   9.318 -1.2142 -0.8522  1.0208
  144SAPE  C31215851   2.276   2.573   9.129  0.4014  0.0529  0.0713
  144SAPE  H12X15852   2.206   2.654   9.160  0.6825 -0.2479  1.6025
  144SAPE  H12Y15853   2.224   2.497   9.067  1.2585  0.3168 -0.9883
  144SAPE  C31315854   2.370   2.633   9.016 -0.4741 -0.1002 -0.2082
  144SAPE  H13X15855   2.462   2.571   9.004 -0.5433 -0.5102  1.1587
  144SAPE  H13Y15856   2.403   2.729   9.061  3.5754 -0.4167 -2.0657
  144SAPE  C31415857   2.308   2.639   8.882  0.4476  0.1370  0.4388
  144SAPE  H14X15858   2.373   2.709   8.826  1.5344 -1.8742 -0.9076
  144SAPE  H14Y15859   2.201   2.670   8.874  0.3055 -0.4244  0.1032
  144SAPE  C31515860   2.327   2.501   8.811  0.2595  0.3963  0.1746
  144SAPE  H15X15861   2.325   2.410   8.874  0.9059 -0.9428 -1.6479
  144SAPE  H15Y15862   2.430   2.495   8.769 -0.2563 -2.0611 -0.9592
  144SAPE  C31615863   2.236   2.484   8.688  0.3267  0.5221  0.2920
  144SAPE  H16X15864   2.269   2.549   8.604  0.8184 -0.2453 -0.1248
  144SAPE  H16Y15865   2.136   2.517   8.722 -1.8202  0.8049 -5.2279
  144SAPE  C31715866   2.223   2.336   8.642 -0.4617 -0.3446 -0.6162
  144SAPE  H17X15867   2.209   2.278   8.736  1.4847  0.4124  0.1743
  144SAPE  H17Y15868   2.319   2.300   8.600 -0.2786 -0.4268 -0.1340
  144SAPE  C31815869   2.111   2.301   8.541  0.6706 -0.0002  0.3565
  144SAPE  H18X15870   2.099   2.381   8.465 -1.3064  0.6674  1.2849
  144SAPE  H18Y15871   2.017   2.311   8.600 -0.3847 -0.1008 -1.2652
  144SAPE  H18Z15872   2.118   2.199   8.497 -0.4388 -1.1661  2.6916
  145SAPE     N15873   6.107   5.430  11.197 -0.4817  0.1888  0.2228
  145SAPE   HN115874   6.207   5.401  11.187 -0.3736  1.0718 -1.7686
  145SAPE   HN215875   6.089   5.520  11.149  0.3152 -0.7080 -1.9277
  145SAPE   HN315876   6.091   5.439  11.299  1.7507  3.0528  0.4390
  145SAPE   C1215877   6.009   5.329  11.132  0.4791 -0.1411 -1.0511
  145SAPE  H12A15878   6.043   5.225  11.151  1.0391  0.3628  0.9390
  145SAPE  H12B15879   6.017   5.347  11.022  1.0350 -0.8957 -1.1431
  145SAPE   C1115880   5.860   5.330  11.177 -0.3638  0.0260 -0.2841
  145SAPE  H11A15881   5.807   5.243  11.132 -1.7042  0.6288  0.0806
  145SAPE  H11B15882   5.810   5.422  11.142 -1.9156 -0.3942  0.7433
  145SAPE     P15883   5.806   5.195  11.398  0.1202 -0.1793  0.0699
  145SAPE   O1315884   5.882   5.192  11.525 -0.8360  0.1141 -0.3199
  145SAPE   O1415885   5.660   5.181  11.420  0.2638  0.3420  0.1789
  145SAPE   O1215886   5.841   5.323  11.322 -0.1734 -0.5506  0.1990
  145SAPE   O1115887   5.862   5.083  11.305 -0.0063  0.6017  0.1853
  145SAPE    C115888   5.776   5.003  11.224 -0.1698 -0.4924  0.1156
  145SAPE    HA15889   5.710   4.954  11.299  0.1614 -0.4183  0.4577
  145SAPE    HB15890   5.713   5.060  11.152  1.2090  0.0807 -0.6830
  145SAPE    C215891   5.845   4.890  11.142 -0.3861 -0.1579  0.2546
  145SAPE    HS15892   5.920   4.845  11.211 -0.1316  0.5829  0.4725
  145SAPE   O2115893   5.903   4.957  11.028 -0.6522 -0.0328 -0.4195
  145SAPE   C2115894   5.991   4.877  10.956  0.8823  0.2565  0.1168
  145SAPE   O2215895   6.013   4.761  10.980 -0.2349 -0.0436  0.2131
  145SAPE   C2215896   6.055   4.958  10.850 -0.5248  0.2402 -0.8785
  145SAPE   H2R15897   5.984   4.987  10.770 -0.7901  1.6220 -0.1702
  145SAPE   H2S15898   6.097   5.051  10.894 -1.0889 -0.6476  1.7121
  145SAPE    C315899   5.736   4.776  11.100 -0.6425 -0.0543 -0.1105
  145SAPE    HX15900   5.719   4.725  11.197 -0.6492 -1.9561 -1.0701
  145SAPE    HY15901   5.784   4.699  11.035 -0.3387 -0.9390  1.1263
  145SAPE   O3115902   5.612   4.833  11.053  0.6373 -0.4490  0.0460
  145SAPE   C3115903   5.541   4.754  10.959  0.0686 -0.2766 -0.0049
  145SAPE   O3215904   5.582   4.642  10.929  0.6790  0.6381  0.2189
  145SAPE   C3215905   5.421   4.820  10.908  0.1116 -0.4509  0.0924
  145SAPE   H2X15906   5.447   4.918  10.861 -0.5258 -0.5866 -0.5574
  145SAPE   H2Y15907   5.356   4.837  10.996 -0.6409  0.7600 -0.6683
  145SAPE   C2315908   6.179   4.886  10.787 -0.7775  0.9738  0.0749
  145SAPE   H3R15909   6.135   4.802  10.729  1.4717 -1.0250  1.0858
  145SAPE   H3S15910   6.241   4.828  10.858  0.7379 -0.4792 -2.2965
  145SAPE   C2415911   6.260   4.979  10.698  0.7349 -0.0344  0.1828
  145SAPE   H4R15912   6.304   5.058  10.761  0.3264  0.5444 -0.2485
  145SAPE   H4S15913   6.186   5.029  10.632 -0.8167  1.1239  2.6737
  145SAPE   C2515914   6.362   4.903  10.616 -0.3669  0.0585 -0.4431
  145SAPE   H5R15915   6.440   4.867  10.684 -1.7570  0.4723  1.4329
  145SAPE   C2615916   6.370   4.865  10.482 -0.3786  0.9495  0.0262
  145SAPE   H6R15917   6.453   4.797  10.458 -2.8512 -2.4983  0.5773
  145SAPE   C2715918   6.268   4.899  10.378  0.3316 -0.3510  0.3721
  145SAPE   H7R15919   6.319   4.949  10.293 -1.7955  2.7707  0.7557
  145SAPE   H7S15920   6.190   4.969  10.416 -1.7222 -1.5625 -1.3710
  145SAPE   C2815921   6.197   4.773  10.330  0.3205  0.0015  0.3287
  145SAPE   H8R15922   6.177   4.709  10.417 -0.0120  0.4758  0.6040
  145SAPE   C2915923   6.154   4.740  10.211  0.3742  0.5954  0.2645
  145SAPE   H9R15924   6.101   4.643  10.205  0.4703  0.3448  2.6198
  145SAPE  C21015925   6.161   4.806  10.076  0.3106 -0.9419 -0.1628
  145SAPE  H10R15926   6.202   4.908  10.092 -1.4473 -0.4378  1.5420
  145SAPE  H10S15927   6.060   4.832  10.037  0.9772  2.7690  0.1755
  145SAPE  C21115928   6.236   4.734   9.967  0.0860 -0.1228 -0.6092
  145SAPE  H11R15929   6.303   4.661  10.015 -0.0738  0.4625  0.5459
  145SAPE  C21215930   6.223   4.749   9.837 -0.3156 -0.1565  0.0533
  145SAPE  H12R15931   6.287   4.684   9.775 -1.2412  0.0110 -1.1061
  145SAPE  C21315932   6.150   4.853   9.760 -0.5186  0.4682 -0.2898
  145SAPE  H13R15933   6.139   4.940   9.828  0.9232 -1.3383  2.4303
  145SAPE  H13S15934   6.052   4.808   9.734  0.4168 -2.0973  0.3295
  145SAPE  C21415935   6.225   4.898   9.635 -0.8545  0.2028 -0.1907
  145SAPE  H14R15936   6.334   4.890   9.647 -0.5395 -0.1904 -2.8487
  145SAPE  C21515937   6.176   4.935   9.515  0.2201  0.3648  0.1512
  145SAPE  H15R15938   6.241   4.961   9.430 -0.2099 -0.7567 -0.5435
  145SAPE  C21615939   6.027   4.937   9.479  0.3623 -0.2837 -0.0466
  145SAPE  H16R15940   5.965   4.874   9.546 -0.5105 -1.1274 -1.5889
  145SAPE  H16S15941   6.013   4.886   9.382  1.4980  0.7526 -0.7906
  145SAPE  C21715942   5.944   5.068   9.467 -0.0207 -0.2854  0.2481
  145SAPE  H17R15943   5.966   5.118   9.564  1.9888 -3.0130  1.3436
  145SAPE  H17S15944   5.837   5.040   9.470 -0.9427  2.7269 -0.4030
  145SAPE  C21815945   5.980   5.157   9.349 -0.0593 -0.5662  0.0871
  145SAPE  H18R15946   6.091   5.160   9.354  0.0110 -2.7186  1.2546
  145SAPE  H18S15947   5.955   5.264   9.365 -1.5736 -0.8132 -0.5078
  145SAPE  C21915948   5.920   5.094   9.219 -0.0180  0.1525  0.7729
  145SAPE  H19R15949   5.819   5.053   9.242 -0.8047  0.6638 -1.5052
  145SAPE  H19S15950   5.989   5.012   9.191 -0.0575  0.5156 -0.4740
  145SAPE  C22015951   5.917   5.194   9.104 -0.2938 -0.2491 -0.4490
  145SAPE  H20R15952   5.860   5.283   9.138 -0.0673 -0.5657  0.8118
  145SAPE  H20S15953   5.853   5.157   9.020 -0.7175  1.7333 -1.0371
  145SAPE  H20T15954   6.015   5.223   9.061  0.1217 -0.4327  0.3547
  145SAPE   C3315955   5.349   4.732  10.802  0.9010 -0.4441 -0.2064
  145SAPE   H3X15956   5.247   4.768  10.777  0.1463 -2.8429 -0.8058
  145SAPE   H3Y15957   5.324   4.633  10.847  0.2692  0.2273  0.9895
  145SAPE   C3415958   5.425   4.725  10.672  0.1236 -0.1447  0.3278
  145SAPE   H4X15959   5.507   4.651  10.690 -0.4489 -0.2262  3.0774
  145SAPE   H4Y15960   5.469   4.824  10.652 -0.0803  0.4659  2.6313
  145SAPE   C3515961   5.337   4.661  10.562  0.5174 -0.6722 -0.4110
  145SAPE   H5X15962   5.252   4.730  10.545  0.1295 -0.8604  0.7312
  145SAPE   H5Y15963   5.310   4.563  10.606 -1.3693 -1.7576 -3.6390
  145SAPE   C3615964   5.406   4.623  10.428  0.6201  0.6913 -1.0458
  145SAPE   H6X15965   5.445   4.519  10.428 -1.1783 -0.0391 -2.2944
  145SAPE   H6Y15966   5.492   4.693  10.418 -0.7737  2.4669 -1.1525
  145SAPE   C3715967   5.324   4.640  10.300  0.7114  0.3444  0.3145
  145SAPE   H7X15968   5.293   4.746  10.288 -2.7843 -0.5361  0.2651
  145SAPE   H7Y15969   5.225   4.589  10.298  0.1536  1.1545 -4.3457
  145SAPE   C3815970   5.410   4.600  10.174  0.2159 -0.5551 -0.6166
  145SAPE   H8X15971   5.435   4.493  10.185  1.4753 -0.3340 -1.1364
  145SAPE   H8Y15972   5.500   4.664  10.182 -0.3345  0.2356 -0.5914
  145SAPE   C3915973   5.349   4.629  10.044  0.6608 -0.4196  0.4720
  145SAPE   H9X15974   5.344   4.739  10.030  1.3291 -0.1465  2.1081
  145SAPE   H9Y15975   5.252   4.576  10.033  0.6066  0.0463 -1.7710
  145SAPE  C31015976   5.443   4.580   9.928  0.1634 -0.1878 -0.4779
  145SAPE  H10X15977   5.475   4.474   9.937  2.6865  0.6081  1.1476
  145SAPE  H10Y15978   5.535   4.642   9.935 -0.3101  0.3848  1.6814
  145SAPE  C31115979   5.399   4.617   9.789  0.4518  0.7903 -1.3814
  145SAPE  H11X15980   5.370   4.724   9.792 -0.0725  0.6299  0.5253
  145SAPE  H11Y15981   5.304   4.561   9.775  0.6094 -0.1898  0.9956
  145SAPE  C31215982   5.501   4.587   9.681 -0.1004  0.0369  0.1666
  145SAPE  H12X15983   5.454   4.545   9.589 -1.1291  1.4350  0.0186
  145SAPE  H12Y15984   5.569   4.508   9.719  0.3351  0.8485  1.1273
  145SAPE  C31315985   5.592   4.710   9.642 -0.3081  0.1246 -0.3598
  145SAPE  H13X15986   5.669   4.730   9.720  0.4515 -0.9209 -0.8169
  145SAPE  H13Y15987   5.531   4.803   9.639 -1.1351 -0.3838  0.2184
  145SAPE  C31415988   5.675   4.693   9.512  0.0888  0.3290  0.3855
  145SAPE  H14X15989   5.735   4.600   9.522 -1.3178 -0.5557  0.8731
  145SAPE  H14Y15990   5.759   4.765   9.500  2.0208 -1.9742 -0.7478
  145SAPE  C31515991   5.581   4.697   9.389 -0.5870  0.8858  0.1293
  145SAPE  H15X15992   5.524   4.792   9.398 -0.0430  1.1402  0.9933
  145SAPE  H15Y15993   5.522   4.603   9.390  1.3493 -0.4000  0.1053
  145SAPE  C31615994   5.655   4.697   9.249 -0.3017 -0.3918 -0.1835
  145SAPE  H16X15995   5.733   4.618   9.248 -0.5547 -0.6489  0.1459
  145SAPE  H16Y15996   5.706   4.795   9.242 -1.5364  0.2540 -0.4184
  145SAPE  C31715997   5.558   4.680   9.127  0.6092 -0.0651  0.3711
  145SAPE  H17X15998   5.472   4.742   9.159  0.5354 -0.6891  1.4620
  145SAPE  H17Y15999   5.514   4.579   9.112  0.7764 -0.4242  2.0438
  145SAPE  C31816000   5.617   4.732   8.994 -0.7050 -0.1142 -0.0561
  145SAPE  H18X16001   5.682   4.821   9.000  1.8721 -1.8394 -0.8469
  145SAPE  H18Y16002   5.530   4.762   8.932  0.0133 -0.7005 -1.3774
  145SAPE  H18Z16003   5.678   4.659   8.938 -0.0094  0.9479 -0.7133
  146SAPE     N16004   4.145   2.926  10.785  0.0675  0.0005 -0.1168
  146SAPE   HN116005   4.165   2.972  10.694 -1.1251 -2.1947 -1.5942
  146SAPE   HN216006   4.054   2.954  10.827 -0.2330 -0.2105 -0.6105
  146SAPE   HN316007   4.218   2.942  10.857  0.4715 -0.1771 -0.4777
  146SAPE   C1216008   4.146   2.777  10.742  0.5178 -0.4082 -0.9033
  146SAPE  H12A16009   4.124   2.713  10.830  0.3564 -0.6284 -1.1025
  146SAPE  H12B16010   4.244   2.739  10.706  2.0047  0.5057  1.8634
  146SAPE   C1116011   4.038   2.758  10.645  0.0220 -0.0995 -0.1287
  146SAPE  H11A16012   4.051   2.648  10.632  0.7154 -0.3310  2.1167
  146SAPE  H11B16013   4.061   2.810  10.549  3.6627 -0.9207  0.1682
  146SAPE     P16014   3.786   2.685  10.713  0.2499 -0.1668  0.1556
  146SAPE   O1316015   3.832   2.564  10.784  0.1726 -0.0132  0.0155
  146SAPE   O1416016   3.668   2.759  10.767  0.3027  0.2842 -0.0840
  146SAPE   O1216017   3.910   2.793  10.700  0.1635 -0.4264  0.1456
  146SAPE   O1116018   3.753   2.643  10.568 -0.0771 -0.0744 -0.2917
  146SAPE    C116019   3.763   2.506  10.514  0.3234 -0.4433 -0.4146
  146SAPE    HA16020   3.765   2.428  10.594  0.4092 -0.3568 -0.3319
  146SAPE    HB16021   3.675   2.483  10.451  0.9724  0.1461 -1.5642
  146SAPE    C216022   3.895   2.487  10.434  0.0680 -0.0389  0.0231
  146SAPE    HS16023   3.983   2.490  10.502  0.6577 -4.2092 -0.3143
  146SAPE   O2116024   3.893   2.589  10.331  0.6905  0.3001 -0.2279
  146SAPE   C2116025   4.005   2.624  10.278 -0.4131 -0.3151 -0.0949
  146SAPE   O2216026   4.114   2.575  10.308  0.4125 -0.1961  0.0691
  146SAPE   C2216027   3.982   2.734  10.171 -0.6417  0.0707 -0.5060
  146SAPE   H2R16028   3.909   2.684  10.103 -1.7510  0.7459  0.1674
  146SAPE   H2S16029   3.939   2.823  10.222  1.4636  1.1823 -0.5947
  146SAPE    C316030   3.900   2.357  10.364  0.5231 -0.3006  0.5717
  146SAPE    HX16031   3.906   2.273  10.437  0.7744 -3.0329 -2.3582
  146SAPE    HY16032   3.998   2.342  10.312  0.4949 -1.9765  0.9366
  146SAPE   O3116033   3.788   2.336  10.282 -0.0197  0.2461  0.1317
  146SAPE   C3116034   3.791   2.382  10.159  0.4479 -0.1533  0.3334
  146SAPE   O3216035   3.888   2.428  10.107  0.0073 -0.0073 -0.0672
  146SAPE   C3216036   3.647   2.365  10.091  0.0045 -0.0080 -0.1804
  146SAPE   H2X16037   3.569   2.414  10.154 -3.2951 -2.2400 -2.2608
  146SAPE   H2Y16038   3.634   2.255  10.089  0.7611 -0.1303  0.6821
  146SAPE   C2316039   4.109   2.777  10.080  0.5627  0.5152 -0.0179
  146SAPE   H3R16040   4.188   2.814  10.149  1.3055  2.2693 -1.7338
  146SAPE   H3S16041   4.076   2.851  10.005  1.7016 -1.8836 -3.0906
  146SAPE   C2416042   4.171   2.665  10.010 -0.5184  0.1651 -0.4304
  146SAPE   H4R16043   4.197   2.588  10.086  1.6712  0.3400 -0.9314
  146SAPE   H4S16044   4.270   2.697   9.972 -0.5345  1.2664  0.4121
  146SAPE   C2516045   4.087   2.595   9.907 -0.1690 -0.2927 -0.3696
  146SAPE   H5R16046   4.010   2.526   9.945  0.6741 -1.1420 -0.1349
  146SAPE   C2616047   4.086   2.604   9.769 -0.6706  0.8273 -0.1672
  146SAPE   H6R16048   4.019   2.535   9.717 -2.2104  0.9954  1.4750
  146SAPE   C2716049   4.182   2.684   9.689  0.5194  0.0296 -0.2035
  146SAPE   H7R16050   4.258   2.614   9.648 -0.3861  0.8225 -3.5438
  146SAPE   H7S16051   4.231   2.773   9.736  1.4199 -1.2271  1.3339
  146SAPE   C2816052   4.100   2.734   9.576  0.7036  0.0759 -0.1733
  146SAPE   H8R16053   4.020   2.800   9.612  2.0086  1.4810  0.2794
  146SAPE   C2916054   4.103   2.714   9.443 -0.2660  0.2556  0.9825
  146SAPE   H9R16055   4.030   2.766   9.380 -1.5700  0.8236  2.8763
  146SAPE  C21016056   4.209   2.644   9.365 -0.6657 -0.2993  0.5562
  146SAPE  H10R16057   4.169   2.558   9.307 -1.9568  0.6947 -0.0615
  146SAPE  H10S16058   4.290   2.602   9.428  1.2305  1.6639 -0.4379
  146SAPE  C21116059   4.268   2.750   9.277  0.7090 -0.3270  0.0447
  146SAPE  H11R16060   4.300   2.838   9.334  1.2375 -1.2676  1.2494
  146SAPE  C21216061   4.282   2.753   9.142 -0.1518  0.0173 -0.0545
  146SAPE  H12R16062   4.321   2.843   9.094 -0.3030  0.3378  0.4115
  146SAPE  C21316063   4.245   2.638   9.042 -0.0790  0.0082 -0.1775
  146SAPE  H13R16064   4.287   2.542   9.079  1.2907  0.2943 -0.9505
  146SAPE  H13S16065   4.294   2.651   8.944 -1.6788  0.5127 -0.9482
  146SAPE  C21416066   4.099   2.641   9.016 -0.7724 -0.0115 -0.4766
  146SAPE  H14R16067   4.040   2.730   9.039  0.7497  1.8905 -3.3236
  146SAPE  C21516068   4.033   2.538   8.953 -0.3414 -0.4755  0.4867
  146SAPE  H15R16069   3.924   2.543   8.939 -0.3869 -1.2407  0.5168
  146SAPE  C21616070   4.092   2.414   8.890  0.4343  0.1400 -0.7079
  146SAPE  H16R16071   4.016   2.338   8.918  0.0516  0.4701 -0.8520
  146SAPE  H16S16072   4.184   2.379   8.941  1.2057 -1.7056 -3.1285
  146SAPE  C21716073   4.135   2.424   8.734  0.2384  0.7337 -0.5032
  146SAPE  H17R16074   4.044   2.457   8.680  1.0448 -0.6984 -2.9248
  146SAPE  H17S16075   4.168   2.320   8.711 -0.2760 -0.2863  2.8695
  146SAPE  C21816076   4.253   2.527   8.709  0.9732 -0.0036  0.0459
  146SAPE  H18R16077   4.344   2.500   8.766  0.9044  1.4605  0.8790
  146SAPE  H18S16078   4.228   2.628   8.747 -0.6848 -1.1108  2.1436
  146SAPE  C21916079   4.306   2.526   8.566 -0.2158 -0.6812  0.1042
  146SAPE  H19R16080   4.227   2.528   8.488  0.6343 -0.2945 -0.7616
  146SAPE  H19S16081   4.379   2.448   8.537  0.9687  0.8905 -1.3330
  146SAPE  C22016082   4.394   2.653   8.550 -0.3561 -0.1129  0.1664
  146SAPE  H20R16083   4.326   2.741   8.546  0.3755  0.4309 -2.5360
  146SAPE  H20S16084   4.459   2.651   8.460 -0.2323 -0.4905  0.2613
  146SAPE  H20T16085   4.458   2.650   8.640  0.3543  0.4345 -0.3059
  146SAPE   C3316086   3.635   2.416   9.943 -1.0634 -0.1975 -0.2658
  146SAPE   H3X16087   3.737   2.447   9.911 -0.3973 -1.5999  0.4239
  146SAPE   H3Y16088   3.564   2.501   9.943 -4.4991 -2.8846 -0.5321
  146SAPE   C3416089   3.597   2.313   9.834 -0.3522  0.6189 -0.0238
  146SAPE   H4X16090   3.503   2.279   9.884  0.8442  1.7699  3.2755
  146SAPE   H4Y16091   3.667   2.227   9.844 -2.8948 -1.4903  1.1422
  146SAPE   C3516092   3.571   2.372   9.700 -0.2994 -0.0963  0.3333
  146SAPE   H5X16093   3.489   2.447   9.702 -0.3635 -0.1124 -1.0050
  146SAPE   H5Y16094   3.528   2.293   9.635 -2.0567  0.9366  0.1725
  146SAPE   C3616095   3.691   2.428   9.636 -0.4855 -0.4699 -0.8731
  146SAPE   H6X16096   3.779   2.360   9.644 -0.1111  0.0747 -0.2989
  146SAPE   H6Y16097   3.717   2.517   9.697  1.6819 -2.4275  1.2545
  146SAPE   C3716098   3.668   2.487   9.493 -0.5621  0.1033 -0.2755
  146SAPE   H7X16099   3.571   2.542   9.500 -1.3762 -1.3800  0.6480
  146SAPE   H7Y16100   3.644   2.397   9.432 -1.4981  0.0344  0.1756
  146SAPE   C3816101   3.774   2.576   9.441 -0.0196  0.2185  0.3003
  146SAPE   H8X16102   3.873   2.527   9.437  0.1513  0.2290  2.6440
  146SAPE   H8Y16103   3.785   2.655   9.519  0.4073 -0.5996  1.0927
  146SAPE   C3916104   3.722   2.624   9.304 -0.5620 -0.1714  0.2973
  146SAPE   H9X16105   3.616   2.655   9.314 -0.3932  0.2509  0.8656
  146SAPE   H9Y16106   3.732   2.544   9.228  0.1369  0.3840 -0.2134
  146SAPE  C31016107   3.804   2.748   9.258 -0.1872  0.1878  0.0785
  146SAPE  H10X16108   3.906   2.713   9.235 -0.1748 -1.0531  1.8632
  146SAPE  H10Y16109   3.822   2.813   9.347  1.4084 -0.0814 -0.0234
  146SAPE  C31116110   3.745   2.850   9.151  0.0231 -0.3322  0.3712
  146SAPE  H11X16111   3.836   2.913   9.146  1.0401 -1.8121 -0.2627
  146SAPE  H11Y16112   3.660   2.904   9.198  2.0664  2.9403  0.5813
  146SAPE  C31216113   3.717   2.770   9.023  0.0670  0.3246  0.1488
  146SAPE  H12X16114   3.625   2.709   9.028  1.5442 -1.9956  0.7614
  146SAPE  H12Y16115   3.803   2.703   9.003  0.3252  0.6247  0.2367
  146SAPE  C31316116   3.690   2.869   8.906 -0.1391 -0.3216 -0.3898
  146SAPE  H13X16117   3.776   2.937   8.922  0.2564 -1.5460  3.6329
  146SAPE  H13Y16118   3.602   2.936   8.921  1.5516  1.3247  3.5854
  146SAPE  C31416119   3.670   2.791   8.773 -0.7540  0.4128 -0.5794
  146SAPE  H14X16120   3.610   2.861   8.712  2.0138  0.4460 -3.5393
  146SAPE  H14Y16121   3.618   2.693   8.779  0.3608 -0.1384  0.9418
  146SAPE  C31516122   3.811   2.772   8.713 -0.6145 -0.5155  0.2110
  146SAPE  H15X16123   3.850   2.703   8.791  0.5976  0.8593  0.8747
  146SAPE  H15Y16124   3.866   2.868   8.709 -0.1392 -0.8121 -0.3658
  146SAPE  C31616125   3.816   2.711   8.572  0.0571 -0.1985 -0.0892
  146SAPE  H16X16126   3.739   2.753   8.504 -0.2290 -0.4784  0.0631
  146SAPE  H16Y16127   3.788   2.604   8.584 -3.2612  0.4694 -0.7977
  146SAPE  C31716128   3.961   2.701   8.513  0.3395 -0.1780  0.1399
  146SAPE  H17X16129   4.024   2.654   8.591 -2.2816 -2.3194  1.1253
  146SAPE  H17Y16130   3.977   2.810   8.499 -4.9503  0.6430 -1.9541
  146SAPE  C31816131   3.970   2.636   8.376 -0.0273  0.6763 -0.2043
  146SAPE  H18X16132   3.955   2.527   8.385  0.1527  0.8052  2.4930
  146SAPE  H18Y16133   4.077   2.643   8.347  0.6788  0.8337  2.1927
  146SAPE  H18Z16134   3.898   2.672   8.300 -1.6798 -0.7405  0.6327
  147SAPE     N16135   4.094   6.325   6.436  0.1743  0.9576 -0.3110
  147SAPE   HN116136   4.056   6.242   6.487  2.7048 -0.0310  0.0963
  147SAPE   HN216137   4.011   6.370   6.392  1.0098  0.0300 -3.0423
  147SAPE   HN316138   4.162   6.283   6.370 -1.6558 -2.0518 -0.4998
  147SAPE   C1216139   4.160   6.427   6.519  0.8705 -0.6051  0.4460
  147SAPE  H12A16140   4.229   6.492   6.460  1.4283 -0.0667  1.6619
  147SAPE  H12B16141   4.209   6.373   6.603  1.9992 -0.1933  0.0799
  147SAPE   C1116142   4.036   6.508   6.571 -0.0038  0.0871  0.4186
  147SAPE  H11A16143   4.078   6.587   6.637 -0.7181 -1.6924  3.2071
  147SAPE  H11B16144   3.980   6.439   6.638  1.0192 -1.1983 -0.0045
  147SAPE     P16145   3.938   6.707   6.440 -0.1592 -0.6046  0.2471
  147SAPE   O1316146   4.072   6.767   6.436 -0.1117  0.2678  0.2184
  147SAPE   O1416147   3.848   6.733   6.326  0.4367  0.5832 -0.2100
  147SAPE   O1216148   3.952   6.554   6.461  0.1832 -0.5516 -0.6602
  147SAPE   O1116149   3.877   6.751   6.575 -0.6873  0.4304 -0.4078
  147SAPE    C116150   3.762   6.838   6.582 -0.1810 -0.3184  0.1807
  147SAPE    HA16151   3.785   6.926   6.518  3.2091 -0.6962  0.7063
  147SAPE    HB16152   3.676   6.788   6.533 -0.3622  0.8025 -0.6763
  147SAPE    C216153   3.719   6.880   6.725 -1.2971 -0.3657  0.2961
  147SAPE    HS16154   3.760   6.983   6.736 -0.2086 -0.7212 -0.3344
  147SAPE   O2116155   3.764   6.790   6.823 -0.5067 -0.3485  0.7084
  147SAPE   C2116156   3.868   6.823   6.890 -0.2323  0.2515 -0.1175
  147SAPE   O2216157   3.942   6.915   6.864 -0.0081  0.0897 -1.2412
  147SAPE   C2216158   3.879   6.742   7.018  0.3301 -0.0471  0.4337
  147SAPE   H2R16159   3.790   6.678   7.033  0.7274 -0.5728  0.5366
  147SAPE   H2S16160   3.967   6.675   7.018  0.9119  0.6517 -0.9027
  147SAPE    C316161   3.567   6.887   6.728  0.6849 -0.1257 -0.3020
  147SAPE    HX16162   3.534   6.784   6.706  0.0826 -0.0980  0.4064
  147SAPE    HY16163   3.534   6.962   6.653 -0.9834 -0.5009  0.0109
  147SAPE   O3116164   3.525   6.918   6.862  0.2217  0.0905  0.5896
  147SAPE   C3116165   3.395   6.953   6.853  0.2687 -0.1671  0.9905
  147SAPE   O3216166   3.322   6.940   6.755  0.2704  0.2951 -0.0701
  147SAPE   C3216167   3.347   7.016   6.985  0.3571  0.3819  0.5525
  147SAPE   H2X16168   3.282   6.941   7.034  1.4352 -0.1062  1.2672
  147SAPE   H2Y16169   3.285   7.106   6.965 -0.1768 -0.2162 -0.5554
  147SAPE   C2316170   3.897   6.852   7.125  0.1859 -0.7005  0.6009
  147SAPE   H3R16171   3.826   6.933   7.096  0.2067 -0.7436  0.4292
  147SAPE   H3S16172   4.003   6.885   7.121  0.2280 -0.9606 -1.1456
  147SAPE   C2416173   3.864   6.799   7.257 -0.0412  1.1572 -0.2253
  147SAPE   H4R16174   3.935   6.714   7.273 -1.5786  0.1706  1.7989
  147SAPE   H4S16175   3.760   6.763   7.269  0.6912 -0.5217  1.9198
  147SAPE   C2516176   3.882   6.901   7.361  0.0900 -0.7094 -0.1477
  147SAPE   H5R16177   3.834   6.991   7.318  2.6782  0.6293 -0.4157
  147SAPE   C2616178   3.951   6.900   7.482  0.2006  0.2920 -0.4655
  147SAPE   H6R16179   3.948   6.988   7.548 -0.4654 -0.9461  1.2351
  147SAPE   C2716180   4.023   6.780   7.535 -0.5047  0.1736  0.2821
  147SAPE   H7R16181   4.023   6.693   7.466 -1.8960 -0.8160  1.4642
  147SAPE   H7S16182   3.961   6.736   7.616 -0.8793 -0.4632 -0.3450
  147SAPE   C2816183   4.163   6.826   7.565  0.7207  0.1098  0.5057
  147SAPE   H8R16184   4.218   6.884   7.488  0.3506  1.9434  1.5687
  147SAPE   C2916185   4.232   6.803   7.677 -1.2973  0.0164 -0.3424
  147SAPE   H9R16186   4.338   6.830   7.676 -1.8679  2.4894 -1.8389
  147SAPE  C21016187   4.196   6.725   7.799 -0.6060 -0.3420 -0.9020
  147SAPE  H10R16188   4.272   6.647   7.821 -0.0151 -0.1198 -2.0619
  147SAPE  H10S16189   4.098   6.678   7.777 -2.1074  0.6323  3.0195
  147SAPE  C21116190   4.185   6.821   7.918 -0.0221  0.5286 -0.4924
  147SAPE  H11R16191   4.116   6.902   7.890  0.1907  0.9675  0.2280
  147SAPE  C21216192   4.241   6.814   8.040 -0.8488  0.2651  1.3686
  147SAPE  H12R16193   4.208   6.885   8.118  1.4804  1.5817  1.2599
  147SAPE  C21316194   4.344   6.711   8.082 -0.6362  0.2216  0.8755
  147SAPE  H13R16195   4.417   6.754   8.154  0.6571 -0.5400  0.0833
  147SAPE  H13S16196   4.409   6.698   7.993 -0.5735 -0.3803  1.0019
  147SAPE  C21416197   4.294   6.575   8.132 -0.2254  0.1234  0.3850
  147SAPE  H14R16198   4.256   6.509   8.053  1.1035 -0.8973  0.5565
  147SAPE  C21516199   4.289   6.532   8.261  0.3332 -0.0914 -1.2614
  147SAPE  H15R16200   4.281   6.424   8.283  1.4468  0.5191  3.1751
  147SAPE  C21616201   4.343   6.608   8.381  0.3719  0.0033 -0.0055
  147SAPE  H16R16202   4.257   6.671   8.413  0.1436  0.1750 -0.9304
  147SAPE  H16S16203   4.427   6.678   8.365  1.3684 -1.4430 -1.3214
  147SAPE  C21716204   4.381   6.509   8.496 -0.2076 -0.0859 -0.2528
  147SAPE  H17R16205   4.462   6.444   8.456 -0.1272  0.3931 -0.8750
  147SAPE  H17S16206   4.294   6.444   8.523  0.2714 -0.5031  0.3298
  147SAPE  C21816207   4.427   6.586   8.623  0.0704 -0.6035 -0.5195
  147SAPE  H18R16208   4.358   6.667   8.656 -0.9526 -1.7491  0.2580
  147SAPE  H18S16209   4.527   6.630   8.600  0.2301 -0.6818 -0.0011
  147SAPE  C21916210   4.443   6.493   8.745 -0.3276 -0.4090 -0.2139
  147SAPE  H19R16211   4.343   6.456   8.777 -0.4264 -2.2738 -2.4136
  147SAPE  H19S16212   4.485   6.559   8.824 -0.0341 -1.7925  0.8384
  147SAPE  C22016213   4.553   6.383   8.725  0.4065 -0.2263 -0.0794
  147SAPE  H20R16214   4.563   6.329   8.821  0.4618  0.4189  0.2799
  147SAPE  H20S16215   4.650   6.432   8.704  1.3287 -1.3725  1.3344
  147SAPE  H20T16216   4.526   6.319   8.638  3.2245  0.1799 -1.3799
  147SAPE   C3316217   3.446   7.077   7.084  0.1135  0.1842 -0.0974
  147SAPE   H3X16218   3.509   7.156   7.037 -1.4543  0.4993 -1.7835
  147SAPE   H3Y16219   3.506   6.989   7.115 -2.3909 -2.2668 -1.7556
  147SAPE   C3416220   3.380   7.137   7.206 -0.5569 -0.6633 -0.4639
  147SAPE   H4X16221   3.299   7.067   7.231  0.4775 -1.9562 -0.6073
  147SAPE   H4Y16222   3.327   7.230   7.176  0.5276  0.6680  1.4903
  147SAPE   C3516223   3.464   7.179   7.331  0.5148  0.1026  0.3151
  147SAPE   H5X16224   3.533   7.265   7.314 -0.9332  1.6463  1.8646
  147SAPE   H5Y16225   3.523   7.089   7.356 -0.4329 -0.8075 -0.5724
  147SAPE   C3616226   3.381   7.204   7.458 -0.1154  0.6489 -0.2854
  147SAPE   H6X16227   3.298   7.138   7.490  1.1027 -0.3797  0.8791
  147SAPE   H6Y16228   3.316   7.291   7.434  1.0167  1.3076 -1.0331
  147SAPE   C3716229   3.469   7.240   7.580  0.2488  0.3720  1.0043
  147SAPE   H7X16230   3.424   7.321   7.642 -1.5827 -1.0528  1.6283
  147SAPE   H7Y16231   3.568   7.275   7.542  0.2219  0.1195  0.7019
  147SAPE   C3816232   3.492   7.133   7.690 -0.0386 -0.9549 -0.0767
  147SAPE   H8X16233   3.554   7.059   7.636  0.6816  0.0351 -0.6441
  147SAPE   H8Y16234   3.395   7.090   7.724 -0.3388 -0.4856 -0.3173
  147SAPE   C3916235   3.586   7.180   7.801  0.0774 -0.7979 -0.7586
  147SAPE   H9X16236   3.642   7.266   7.758 -1.7566  1.2603  0.7766
  147SAPE   H9Y16237   3.660   7.097   7.798  2.2192  1.0239 -1.0928
  147SAPE  C31016238   3.535   7.222   7.935 -0.1321  0.0791 -0.0615
  147SAPE  H10X16239   3.486   7.130   7.972 -2.0526 -0.1585 -2.9189
  147SAPE  H10Y16240   3.448   7.288   7.918 -2.0428 -2.5492 -1.0926
  147SAPE  C31116241   3.632   7.266   8.043 -0.6470 -0.1810 -0.3146
  147SAPE  H11X16242   3.687   7.352   8.000 -2.7428  1.1703 -0.3814
  147SAPE  H11Y16243   3.710   7.193   8.075  0.3416  0.6019 -0.8660
  147SAPE  C31216244   3.569   7.320   8.176  1.3589  0.7330  0.4182
  147SAPE  H12X16245   3.489   7.397   8.168 -0.4655 -1.0663  0.4537
  147SAPE  H12Y16246   3.648   7.367   8.238  0.9244 -0.4501  1.9106
  147SAPE  C31316247   3.497   7.212   8.267 -0.6707  0.0848 -0.2013
  147SAPE  H13X16248   3.524   7.235   8.372  1.8029  2.7633 -1.2966
  147SAPE  H13Y16249   3.526   7.108   8.240 -0.7294 -0.6357  2.2447
  147SAPE  C31416250   3.344   7.211   8.249  0.4028  0.4172  0.4871
  147SAPE  H14X16251   3.328   7.219   8.140  0.0627 -1.0467  0.4103
  147SAPE  H14Y16252   3.309   7.303   8.300 -1.0575  0.3554 -0.3734
  147SAPE  C31516253   3.271   7.084   8.320  0.2543 -0.0623 -0.3390
  147SAPE  H15X16254   3.346   7.002   8.313  0.9134  0.2873  1.9552
  147SAPE  H15Y16255   3.176   7.066   8.265 -0.3192  1.2665  0.1900
  147SAPE  C31616256   3.236   7.096   8.473  0.6005  0.6283 -0.5200
  147SAPE  H16X16257   3.164   7.180   8.482  2.2846  1.8880  2.8732
  147SAPE  H16Y16258   3.319   7.130   8.539 -2.7209  1.7077  3.5315
  147SAPE  C31716259   3.183   6.966   8.543 -0.0097 -0.1083 -0.6945
  147SAPE  H17X16260   3.240   6.879   8.504  2.2277  0.5490  0.8936
  147SAPE  H17Y16261   3.079   6.951   8.508  0.4199 -0.1301 -2.0190
  147SAPE  C31816262   3.189   6.970   8.696 -0.0766 -0.1373 -0.5216
  147SAPE  H18X16263   3.143   7.064   8.734 -0.9388 -1.0138  0.6721
  147SAPE  H18Y16264   3.292   6.991   8.731 -0.5177 -0.7681  1.2494
  147SAPE  H18Z16265   3.151   6.882   8.752 -0.1183 -2.2241 -3.5957
  148SAPE     N16266   0.968   5.251   6.412 -0.2696  0.6829 -0.1943
  148SAPE   HN116267   0.953   5.342   6.461  0.3273  0.5593  0.2260
  148SAPE   HN216268   1.058   5.262   6.361 -0.9587  0.1478 -1.5787
  148SAPE   HN316269   0.896   5.224   6.341  0.8981 -0.8839 -0.8338
  148SAPE   C1216270   0.981   5.139   6.510  0.3999  0.1123  0.1709
  148SAPE  H12A16271   1.073   5.153   6.570 -0.3102  0.0559  1.2996
  148SAPE  H12B16272   0.979   5.040   6.459 -0.2187  0.5349 -0.6438
  148SAPE   C1116273   0.860   5.145   6.597  0.1508  0.3099  0.4033
  148SAPE  H11A16274   0.882   5.087   6.689 -0.1590  0.1353  0.3691
  148SAPE  H11B16275   0.775   5.099   6.542  1.5561 -0.8976 -0.8538
  148SAPE     P16276   0.728   5.316   6.750 -0.1334  0.0524  0.0569
  148SAPE   O1316277   0.765   5.451   6.804 -0.1524  0.7221 -0.5747
  148SAPE   O1416278   0.593   5.297   6.692 -0.4408 -0.5553 -0.4159
  148SAPE   O1216279   0.833   5.277   6.643 -0.1949  0.0527 -0.4750
  148SAPE   O1116280   0.737   5.200   6.861  0.9074  0.1689  0.4523
  148SAPE    C116281   0.624   5.198   6.956 -0.2707 -0.1012 -0.1379
  148SAPE    HA16282   0.540   5.262   6.922 -0.1990 -1.1724 -2.5933
  148SAPE    HB16283   0.586   5.094   6.966  0.1834 -0.4116 -1.3667
  148SAPE    C216284   0.660   5.252   7.090  0.0363  0.2255 -0.2059
  148SAPE    HS16285   0.587   5.217   7.166 -0.2764 -2.4727 -1.6339
  148SAPE   O2116286   0.658   5.390   7.095 -0.1217 -0.0710 -0.0523
  148SAPE   C2116287   0.529   5.444   7.080 -0.1016  0.7077  0.4228
  148SAPE   O2216288   0.429   5.374   7.080  0.4584 -0.2570  0.8412
  148SAPE   C2216289   0.521   5.598   7.083  0.5183  0.0675 -1.0013
  148SAPE   H2R16290   0.595   5.656   7.023  1.1899  1.3892  0.9981
  148SAPE   H2S16291   0.416   5.614   7.050  0.7746 -1.4609 -2.7073
  148SAPE    C316292   0.801   5.204   7.135 -0.1464  0.4147 -0.0321
  148SAPE    HX16293   0.875   5.241   7.061  0.9299 -2.1739 -0.3336
  148SAPE    HY16294   0.816   5.097   7.111  1.5684  0.4473  0.7422
  148SAPE   O3116295   0.832   5.227   7.275 -0.2862 -0.1548  0.2334
  148SAPE   C3116296   0.932   5.322   7.291  0.2041 -0.2753 -0.0062
  148SAPE   O3216297   0.984   5.384   7.199 -0.1165 -0.3473  0.2089
  148SAPE   C3216298   0.949   5.361   7.438 -0.5349  0.1536 -0.5620
  148SAPE   H2X16299   0.945   5.471   7.449 -1.2866 -0.0942  3.0895
  148SAPE   H2Y16300   1.053   5.323   7.452 -0.0971  1.5432  0.0829
  148SAPE   C2316301   0.539   5.640   7.235  0.0439 -0.4350 -0.2009
  148SAPE   H3R16302   0.471   5.576   7.296  1.8269 -1.7510  0.4780
  148SAPE   H3S16303   0.516   5.748   7.250  0.3286 -0.5468  1.1181
  148SAPE   C2416304   0.683   5.610   7.277 -0.6572  0.6174  0.1187
  148SAPE   H4R16305   0.699   5.500   7.273  0.0313  0.6451  1.4933
  148SAPE   H4S16306   0.695   5.633   7.385  0.1516  1.3584 -0.1199
  148SAPE   C2516307   0.789   5.687   7.201  0.0240 -0.3555 -0.1520
  148SAPE   H5R16308   0.810   5.642   7.104 -1.9361  1.8319 -1.7136
  148SAPE   C2616309   0.860   5.793   7.246 -1.0555  0.0979  0.1669
  148SAPE   H6R16310   0.937   5.838   7.180 -0.8956 -1.7736 -1.0134
  148SAPE   C2716311   0.842   5.871   7.377 -0.4073 -0.1176  0.2554
  148SAPE   H7R16312   0.736   5.902   7.380  0.0235  1.7371 -1.4781
  148SAPE   H7S16313   0.905   5.963   7.375 -1.8446  0.9010 -1.4001
  148SAPE   C2816314   0.898   5.789   7.485  0.5873  0.3113  0.2722
  148SAPE   H8R16315   0.988   5.731   7.463  1.6938  1.0911  2.4190
  148SAPE   C2916316   0.825   5.766   7.600 -0.2707 -0.6226 -0.0679
  148SAPE   H9R16317   0.889   5.720   7.677  0.9283  1.3251  0.1717
  148SAPE  C21016318   0.686   5.824   7.638 -0.9564 -0.2309  0.4899
  148SAPE  H10R16319   0.633   5.817   7.540  0.5070  2.8544 -0.6643
  148SAPE  H10S16320   0.684   5.932   7.663 -1.9365  0.2064 -1.2971
  148SAPE  C21116321   0.616   5.753   7.757 -0.2149 -0.3096  0.3851
  148SAPE  H11R16322   0.657   5.772   7.858  1.1766 -0.4321 -0.1331
  148SAPE  C21216323   0.515   5.667   7.753 -0.0332 -0.4444  0.8733
  148SAPE  H12R16324   0.470   5.626   7.845 -1.8351 -0.4211  0.0622
  148SAPE  C21316325   0.443   5.619   7.627 -0.1006  0.4443 -0.1243
  148SAPE  H13R16326   0.461   5.683   7.538 -0.4932 -0.3039 -0.7502
  148SAPE  H13S16327   0.335   5.629   7.648 -0.2208 -0.8962 -0.0254
  148SAPE  C21416328   0.490   5.478   7.598  0.3514  0.0291  0.4914
  148SAPE  H14R16329   0.588   5.471   7.548 -1.0970 -2.4426 -2.2086
  148SAPE  C21516330   0.422   5.363   7.614  1.3795 -0.2478  0.9397
  148SAPE  H15R16331   0.471   5.268   7.588 -1.5610 -1.3999 -0.9280
  148SAPE  C21616332   0.278   5.344   7.677  0.1906 -0.6541 -0.6295
  148SAPE  H16R16333   0.226   5.263   7.622 -0.4195 -3.1374  3.2380
  148SAPE  H16S16334   0.213   5.434   7.670 -1.3690 -1.2741  3.3035
  148SAPE  C21716335   0.291   5.293   7.823  0.3680  0.2477  0.1943
  148SAPE  H17R16336   0.366   5.356   7.876  0.4081  0.4195 -0.0654
  148SAPE  H17S16337   0.338   5.192   7.819  0.3265  0.1751  1.2785
  148SAPE  C21816338   0.160   5.284   7.902  0.5522  0.1579  0.5568
  148SAPE  H18R16339   0.120   5.388   7.897  0.3207  0.0484 -0.0365
  148SAPE  H18S16340   0.188   5.276   8.009 -0.6716  0.1054  0.8913
  148SAPE  C21916341   0.052   5.181   7.871 -0.0227 -0.1741  0.4536
  148SAPE  H19R16342   0.066   5.092   7.937 -2.1999  1.0654  2.7667
  148SAPE  H19S16343   0.062   5.148   7.766 -0.2974 -0.6348  0.5663
  148SAPE  C22016344  -0.088   5.233   7.898 -0.3530 -0.3461  0.0356
  148SAPE  H20R16345  -0.158   5.149   7.880  0.5045 -0.8728 -0.9570
  148SAPE  H20S16346  -0.097   5.319   7.829  0.8364 -1.5425 -1.6961
  148SAPE  H20T16347  -0.087   5.274   8.001  0.9564 -0.5932  0.1492
  148SAPE   C3316348   0.840   5.301   7.528  0.0415  0.3499  0.4905
  148SAPE   H3X16349   0.866   5.194   7.542  2.1520  0.7491 -0.0337
  148SAPE   H3Y16350   0.738   5.311   7.484  0.1317  1.3888  0.4858
  148SAPE   C3416351   0.823   5.364   7.668 -0.4723  0.0268 -0.0780
  148SAPE   H4X16352   0.778   5.466   7.660  3.3548  1.7512 -2.6066
  148SAPE   H4Y16353   0.924   5.377   7.714 -1.2654 -0.7617  1.9995
  148SAPE   C3516354   0.756   5.287   7.779 -0.1077  0.2783 -0.0287
  148SAPE   H5X16355   0.806   5.187   7.782 -0.7137 -0.0888 -1.2589
  148SAPE   H5Y16356   0.647   5.282   7.758 -0.3251  2.2489  0.4312
  148SAPE   C3616357   0.783   5.351   7.914  0.7075 -0.7315 -0.3897
  148SAPE   H6X16358   0.718   5.439   7.933  0.0779 -1.8185  3.5543
  148SAPE   H6Y16359   0.893   5.370   7.920  0.4502  2.1515 -2.8070
  148SAPE   C3716360   0.755   5.254   8.036 -0.3891  0.2317  0.1259
  148SAPE   H7X16361   0.772   5.313   8.128 -0.9726 -2.7166  2.2866
  148SAPE   H7Y16362   0.823   5.166   8.035 -1.1689 -0.4212  1.1950
  148SAPE   C3816363   0.621   5.186   8.042  0.3503 -0.2986  0.3764
  148SAPE   H8X16364   0.610   5.118   7.955  0.1518  1.7548 -1.3130
  148SAPE   H8Y16365   0.555   5.275   8.032  2.5798  1.3628 -0.8589
  148SAPE   C3916366   0.609   5.111   8.176 -1.1863  0.6587  0.2835
  148SAPE   H9X16367   0.653   5.164   8.263 -0.6297 -0.4199  0.6794
  148SAPE   H9Y16368   0.662   5.013   8.174 -1.9612  0.1824  1.7485
  148SAPE  C31016369   0.462   5.083   8.213  0.1446 -0.0673  0.5032
  148SAPE  H10X16370   0.456   4.997   8.282 -0.0767  1.3509  2.3475
  148SAPE  H10Y16371   0.418   5.048   8.118  1.4995 -0.9958  0.1890
  148SAPE  C31116372   0.371   5.198   8.265 -0.1393  0.1320 -0.0484
  148SAPE  H11X16373   0.389   5.280   8.192  3.3385 -1.1079 -0.7595
  148SAPE  H11Y16374   0.407   5.228   8.366 -0.5857 -1.3760  0.5802
  148SAPE  C31216375   0.220   5.177   8.278  0.4330  0.1893  0.6107
  148SAPE  H12X16376   0.205   5.102   8.358 -0.1358  1.4923  1.7793
  148SAPE  H12Y16377   0.185   5.140   8.180  1.4008 -0.2970  0.4496
  148SAPE  C31316378   0.135   5.310   8.305  0.0246 -0.3170  0.0533
  148SAPE  H13X16379   0.047   5.313   8.238 -1.5665 -0.1060  2.0396
  148SAPE  H13Y16380   0.186   5.404   8.276 -0.6168  0.1451  0.3962
  148SAPE  C31416381   0.086   5.319   8.446  0.1552  0.2742  0.5709
  148SAPE  H14X16382   0.172   5.296   8.512 -0.4421  0.3407  1.3883
  148SAPE  H14Y16383   0.008   5.241   8.454 -0.1896  0.6979  1.5102
  148SAPE  C31516384   0.044   5.455   8.507  0.7135 -0.3433 -0.3578
  148SAPE  H15X16385   0.129   5.525   8.493  1.2518 -0.6836  1.0291
  148SAPE  H15Y16386   0.018   5.424   8.611 -1.4392  0.1614 -0.7152
  148SAPE  C31616387  -0.085   5.497   8.439  0.5263 -0.1061 -0.4790
  148SAPE  H16X16388  -0.169   5.428   8.463  0.8047 -0.1709  0.3209
  148SAPE  H16Y16389  -0.080   5.494   8.328 -3.0437 -1.0452 -0.7451
  148SAPE  C31716390  -0.123   5.633   8.488  0.1815  0.3347 -0.1388
  148SAPE  H17X16391  -0.033   5.697   8.473  0.5506 -0.3106 -0.7336
  148SAPE  H17Y16392  -0.150   5.631   8.595 -0.4766  1.0388 -0.2826
  148SAPE  C31816393  -0.242   5.685   8.410 -0.3112  0.0840 -0.2305
  148SAPE  H18X16394  -0.318   5.605   8.401 -0.7531  0.6495 -1.8646
  148SAPE  H18Y16395  -0.208   5.700   8.305 -1.8325  2.5544 -0.4281
  148SAPE  H18Z16396  -0.281   5.780   8.452  0.6610  0.6293 -0.5142
  149SAPE     N16397   0.181   0.117   6.411 -0.5987  0.3209  0.4286
  149SAPE   HN116398   0.112   0.190   6.385 -0.3158  0.7660  0.8967
  149SAPE   HN216399   0.175   0.101   6.514  0.5270 -2.2866  0.1809
  149SAPE   HN316400   0.271   0.167   6.396 -0.6615  1.4939  3.3412
  149SAPE   C1216401   0.157  -0.014   6.327 -0.3121 -0.0764 -0.6304
  149SAPE  H12A16402   0.226  -0.091   6.367  0.9839  1.8882  1.1213
  149SAPE  H12B16403   0.184   0.011   6.223  0.1689 -4.3120 -1.7123
  149SAPE   C1116404   0.006  -0.058   6.319  0.9247  0.4475  0.2236
  149SAPE  H11A16405   0.008  -0.140   6.245  0.2518  0.7864 -0.1845
  149SAPE  H11B16406  -0.063   0.020   6.281 -1.1202 -1.6838 -0.6676
  149SAPE     P16407  -0.066  -0.239   6.508  0.0133  0.9046 -0.7001
  149SAPE   O1316408  -0.204  -0.280   6.509 -0.0797  0.1848  0.4241
  149SAPE   O1416409   0.031  -0.326   6.439  0.3272 -0.1371 -0.7196
  149SAPE   O1216410  -0.051  -0.094   6.444  0.3795 -0.3863  0.0572
  149SAPE   O1116411  -0.016  -0.217   6.656  0.0357  0.5016 -0.2638
  149SAPE    C116412  -0.048  -0.095   6.726 -0.6294 -0.4280  0.0451
  149SAPE    HA16413  -0.038  -0.002   6.667 -1.4274 -0.3705 -0.0113
  149SAPE    HB16414  -0.153  -0.092   6.761 -0.3319  0.9826  0.8967
  149SAPE    C216415   0.051  -0.062   6.842  0.3176  0.3830  0.3789
  149SAPE    HS16416   0.039   0.042   6.880  1.9103  0.7592 -0.0849
  149SAPE   O2116417   0.185  -0.084   6.808 -0.2741 -0.2141  0.3482
  149SAPE   C2116418   0.240   0.017   6.740  0.1046  1.3421 -1.0768
  149SAPE   O2216419   0.184   0.116   6.701  0.2517 -0.7249  0.3408
  149SAPE   C2216420   0.388  -0.016   6.725 -0.9335 -0.5113 -0.5360
  149SAPE   H2R16421   0.407  -0.120   6.758 -1.3362 -1.1204 -2.1543
  149SAPE   H2S16422   0.406  -0.008   6.616 -0.2528  1.2815 -0.3331
  149SAPE    C316423   0.014  -0.156   6.957 -0.0761  0.3932 -1.1244
  149SAPE    HX16424   0.039  -0.258   6.921  2.8371  0.2832  0.8706
  149SAPE    HY16425  -0.092  -0.139   6.986 -0.2442  0.0659 -1.5357
  149SAPE   O3116426   0.087  -0.136   7.084  0.0503 -0.2756  0.1659
  149SAPE   C3116427   0.211  -0.194   7.092  0.3209  0.2874 -0.5215
  149SAPE   O3216428   0.253  -0.277   7.013  0.1588 -0.3053 -0.5534
  149SAPE   C3216429   0.289  -0.140   7.214 -0.3027  0.1548  0.7179
  149SAPE   H2X16430   0.343  -0.045   7.197 -2.1670  0.9855 -1.0069
  149SAPE   H2Y16431   0.366  -0.219   7.227  1.0550  0.1379 -4.8485
  149SAPE   C2316432   0.482   0.086   6.796  0.3130 -0.6040 -0.0897
  149SAPE   H3R16433   0.459   0.092   6.904 -0.7807  0.4930 -0.3591
  149SAPE   H3S16434   0.460   0.186   6.753 -0.9231 -0.4797  0.7987
  149SAPE   C2416435   0.630   0.059   6.777 -0.8736 -0.4086  0.4066
  149SAPE   H4R16436   0.695   0.137   6.823  0.4109  0.6990 -2.9980
  149SAPE   H4S16437   0.647   0.053   6.668  0.7043 -1.7190  0.6747
  149SAPE   C2516438   0.658  -0.080   6.820  0.5260  0.9621  0.0295
  149SAPE   H5R16439   0.669  -0.154   6.739 -0.8490 -2.0804  2.4071
  149SAPE   C2616440   0.680  -0.132   6.941  0.9058  0.0809  0.3366
  149SAPE   H6R16441   0.701  -0.239   6.949 -1.2772 -0.4449 -0.2643
  149SAPE   C2716442   0.674  -0.058   7.071 -0.2098 -0.1685  0.4475
  149SAPE   H7R16443   0.589  -0.111   7.121  0.2473 -0.6325  0.7475
  149SAPE   H7S16444   0.666   0.051   7.054 -0.0140  0.1259  2.0829
  149SAPE   C2816445   0.797  -0.087   7.145  0.3434  0.3273  0.0221
  149SAPE   H8R16446   0.887  -0.112   7.087 -0.2785  0.8381 -1.1849
  149SAPE   C2916447   0.806  -0.084   7.281 -0.1941  0.7554  0.5315
  149SAPE   H9R16448   0.906  -0.106   7.320 -0.4518  0.5293  1.0800
  149SAPE  C21016449   0.704  -0.059   7.384  0.5253 -0.2494 -0.5153
  149SAPE  H10R16450   0.706  -0.149   7.450  0.9018  0.0795 -0.0709
  149SAPE  H10S16451   0.603  -0.051   7.338  0.5390 -2.2194 -1.0208
  149SAPE  C21116452   0.749   0.061   7.461  0.3167  0.0681  0.2699
  149SAPE  H11R16453   0.740   0.160   7.413 -0.9197 -0.2965 -0.3031
  149SAPE  C21216454   0.776   0.071   7.593  0.4230  0.8341 -0.4228
  149SAPE  H12R16455   0.838   0.156   7.625 -0.8455  2.1199 -1.2729
  149SAPE  C21316456   0.776  -0.050   7.689 -0.3221  0.0149 -0.1074
  149SAPE  H13R16457   0.825  -0.130   7.629  0.3521  0.6310 -0.4031
  149SAPE  H13S16458   0.671  -0.076   7.711 -0.6764  1.0041 -0.5792
  149SAPE  C21416459   0.866  -0.011   7.814 -0.7198 -0.0900  0.0344
  149SAPE  H14R16460   0.943   0.066   7.800 -1.4147  0.6120  0.0369
  149SAPE  C21516461   0.851  -0.061   7.941  0.8579 -0.1879  0.4973
  149SAPE  H15R16462   0.939  -0.036   8.002  2.7003  0.3216 -2.2035
  149SAPE  C21616463   0.749  -0.159   7.996 -0.3865 -0.3033 -0.1635
  149SAPE  H16R16464   0.803  -0.250   8.028  0.9845  0.9658  1.3448
  149SAPE  H16S16465   0.664  -0.170   7.925 -1.1437  3.0460  0.0345
  149SAPE  C21716466   0.663  -0.117   8.125 -0.3111  0.2597  0.5057
  149SAPE  H17R16467   0.592  -0.043   8.082 -1.0664  0.2441  1.6887
  149SAPE  H17S16468   0.736  -0.059   8.185 -1.2601  1.7782  0.2527
  149SAPE  C21816469   0.593  -0.231   8.201  0.0800  0.5545 -0.4649
  149SAPE  H18R16470   0.670  -0.303   8.235 -2.1717 -1.5476  0.4399
  149SAPE  H18S16471   0.520  -0.283   8.136  1.4021  0.1868 -1.7016
  149SAPE  C21916472   0.539  -0.179   8.338  0.5947 -0.0980 -0.0399
  149SAPE  H19R16473   0.484  -0.084   8.320 -0.8023 -0.6145  1.2914
  149SAPE  H19S16474   0.622  -0.165   8.410 -1.0609  4.0003  1.3765
  149SAPE  C22016475   0.443  -0.278   8.405 -0.5998 -0.3029 -0.3736
  149SAPE  H20R16476   0.349  -0.289   8.347  0.2626  1.8169 -2.3236
  149SAPE  H20S16477   0.415  -0.236   8.504 -1.0134  1.8907 -1.3535
  149SAPE  H20T16478   0.500  -0.373   8.407  1.3232  0.8128  0.2118
  149SAPE   C3316479   0.204  -0.136   7.343  0.4328 -0.7257 -0.0087
  149SAPE   H3X16480   0.160  -0.237   7.360  0.9213 -0.9199  0.1174
  149SAPE   H3Y16481   0.130  -0.054   7.331  0.5991 -0.7350 -1.1680
  149SAPE   C3416482   0.294  -0.105   7.472  0.7338  0.3573  0.1341
  149SAPE   H4X16483   0.299   0.006   7.471  1.0062  0.3450  0.1535
  149SAPE   H4Y16484   0.393  -0.154   7.470  0.4293 -0.3117  0.7956
  149SAPE   C3516485   0.229  -0.157   7.603  0.0730 -0.1465  0.7287
  149SAPE   H5X16486   0.240  -0.267   7.608 -0.2347 -0.2042  0.1072
  149SAPE   H5Y16487   0.119  -0.141   7.600 -0.0027 -0.8563 -1.0517
  149SAPE   C3616488   0.275  -0.094   7.737  0.2996 -0.0314  0.2643
  149SAPE   H6X16489   0.226   0.006   7.747 -0.2385 -0.2976  0.3326
  149SAPE   H6Y16490   0.386  -0.087   7.739  0.3272 -0.4654  0.3361
  149SAPE   C3716491   0.235  -0.175   7.862  0.8965  0.4480 -0.5379
  149SAPE   H7X16492   0.313  -0.252   7.882  1.5390  0.8984 -1.2744
  149SAPE   H7Y16493   0.142  -0.232   7.844  0.4558  0.6904  0.8317
  149SAPE   C3816494   0.207  -0.088   7.988 -0.0695 -0.5039  0.7170
  149SAPE   H8X16495   0.108  -0.039   7.976 -0.0724  0.3925  3.5956
  149SAPE   H8Y16496   0.279  -0.004   7.985 -1.1148  0.4403 -3.0285
  149SAPE   C3916497   0.207  -0.163   8.122  0.5189 -0.0304  0.2182
  149SAPE   H9X16498   0.313  -0.189   8.146  1.2583  2.9241  0.5192
  149SAPE   H9Y16499   0.157  -0.261   8.114  0.3898  0.1483 -1.9151
  149SAPE  C31016500   0.148  -0.096   8.242 -0.6006 -0.1433 -0.3691
  149SAPE  H10X16501   0.157   0.014   8.230 -0.5214 -0.2364 -1.1990
  149SAPE  H10Y16502   0.188  -0.126   8.341 -0.8093  0.6802 -0.0285
  149SAPE  C31116503  -0.003  -0.115   8.258 -0.4671  0.6303  0.2426
  149SAPE  H11X16504  -0.021  -0.219   8.292  1.9297 -0.7623 -2.2993
  149SAPE  H11Y16505  -0.045  -0.103   8.155 -0.2520  0.6886  0.1622
  149SAPE  C31216506  -0.065  -0.015   8.350 -0.3420 -0.7395  0.4540
  149SAPE  H12X16507  -0.175  -0.031   8.349 -0.2129 -2.1315  2.1678
  149SAPE  H12Y16508  -0.048   0.084   8.302  0.4303 -0.0988  1.9717
  149SAPE  C31316509  -0.008  -0.017   8.492  0.4495  0.0797  0.0117
  149SAPE  H13X16510   0.095   0.022   8.503  0.6044  0.1226 -1.3921
  149SAPE  H13Y16511  -0.003  -0.119   8.536  1.9140  0.6429  1.2132
  149SAPE  C31416512  -0.098   0.058   8.591 -0.0179  0.0699  0.3680
  149SAPE  H14X16513  -0.199   0.013   8.591 -0.8717  1.8820 -0.4412
  149SAPE  H14Y16514  -0.107   0.166   8.568  1.1026  0.2416  0.6549
  149SAPE  C31516515  -0.042   0.047   8.732  0.7100 -0.8226  0.4160
  149SAPE  H15X16516   0.047   0.112   8.740  0.1402  0.2116 -1.1942
  149SAPE  H15Y16517  -0.005  -0.055   8.756  1.1686 -1.5913 -3.0989
  149SAPE  C31616518  -0.149   0.088   8.835  0.3268 -0.0504  0.1553
  149SAPE  H16X16519  -0.227   0.011   8.848  0.0443 -0.2387 -2.2764
  149SAPE  H16Y16520  -0.193   0.180   8.790 -1.0277 -1.2832 -1.1282
  149SAPE  C31716521  -0.082   0.136   8.952  0.9688  0.0371  0.3011
  149SAPE  H17X16522  -0.021   0.223   8.921 -0.3462  1.6162  1.9477
  149SAPE  H17Y16523  -0.018   0.067   9.010 -0.7318 -0.5435  1.5782
  149SAPE  C31816524  -0.168   0.193   9.061 -0.0703  0.1184 -0.4708
  149SAPE  H18X16525  -0.245   0.116   9.081  1.3979 -1.0686  0.9310
  149SAPE  H18Y16526  -0.224   0.288   9.044 -0.2181 -0.4042 -3.2205
  149SAPE  H18Z16527  -0.126   0.207   9.163  0.0064  0.7234 -0.5804
  150SAPE     N16528   5.043   0.543   6.387  0.6412  0.2159 -0.2957
  150SAPE   HN116529   4.974   0.612   6.352  0.9781  1.0567  0.6440
  150SAPE   HN216530   5.135   0.574   6.349  0.2791 -1.8200 -3.1110
  150SAPE   HN316531   5.029   0.454   6.336 -1.9785  0.4170 -0.0336
  150SAPE   C1216532   5.043   0.530   6.535 -0.2022  0.0690  0.3507
  150SAPE  H12A16533   4.947   0.574   6.570 -0.4163 -0.5191  0.5342
  150SAPE  H12B16534   5.126   0.595   6.570  0.9351 -1.4716  0.6262
  150SAPE   C1116535   5.066   0.386   6.590 -0.1123 -0.6318 -0.0835
  150SAPE  H11A16536   4.987   0.313   6.565 -0.1292 -0.3396 -0.9106
  150SAPE  H11B16537   5.068   0.399   6.701 -2.0260 -0.7099 -0.0161
  150SAPE     P16538   5.226   0.190   6.490  0.2756 -0.0367  0.3418
  150SAPE   O1316539   5.103   0.137   6.422  0.1786 -0.0280 -0.6224
  150SAPE   O1416540   5.351   0.190   6.417 -0.0613 -0.8204 -0.1081
  150SAPE   O1216541   5.191   0.333   6.546  0.5808  0.1953 -0.4699
  150SAPE   O1116542   5.241   0.102   6.625  0.1697  0.4414  0.4085
  150SAPE    C116543   5.130   0.055   6.701 -0.2693 -0.4976 -0.4405
  150SAPE    HA16544   5.048   0.131   6.697  0.6560  0.4788 -2.3024
  150SAPE    HB16545   5.103  -0.043   6.658  1.7019 -1.4519  0.3760
  150SAPE    C216546   5.164   0.050   6.851  0.3794  0.1260  0.3686
  150SAPE    HS16547   5.256  -0.009   6.872 -0.0716 -0.1094  1.7499
  150SAPE   O2116548   5.054  -0.011   6.927  0.0969 -0.1129  0.7274
  150SAPE   C2116549   5.043  -0.137   6.905 -0.6471 -0.0989 -0.1282
  150SAPE   O2216550   5.130  -0.204   6.854  0.4354  0.3793  0.1795
  150SAPE   C2216551   4.909  -0.186   6.958 -0.1079  0.4424 -0.1790
  150SAPE   H2R16552   4.841  -0.106   6.920  0.2987  0.8043 -0.1540
  150SAPE   H2S16553   4.877  -0.283   6.915  0.3918 -0.4009  1.2758
  150SAPE    C316554   5.199   0.194   6.906 -0.1956 -0.6865 -0.1196
  150SAPE    HX16555   5.112   0.260   6.885 -0.8447 -1.4192  0.2453
  150SAPE    HY16556   5.286   0.241   6.853  0.7304 -2.3233 -0.1144
  150SAPE   O3116557   5.215   0.196   7.047  0.3308  0.3475  0.2632
  150SAPE   C3116558   5.335   0.162   7.083  0.4478 -0.2246  0.0607
  150SAPE   O3216559   5.423   0.118   7.009  0.0113  0.0079  0.5482
  150SAPE   C3216560   5.354   0.186   7.237  0.3239 -0.0930  0.5998
  150SAPE   H2X16561   5.270   0.131   7.285 -1.1807  2.0424  0.5262
  150SAPE   H2Y16562   5.347   0.296   7.250  0.7916  0.0805 -0.4707
  150SAPE   C2316563   4.926  -0.197   7.115  0.9040 -0.1870  0.9111
  150SAPE   H3R16564   4.964  -0.104   7.161 -0.6048  0.2056  1.4359
  150SAPE   H3S16565   5.002  -0.276   7.129  0.6308 -1.2805 -2.7690
  150SAPE   C2416566   4.796  -0.221   7.188 -0.2092  0.0015 -0.0462
  150SAPE   H4R16567   4.741  -0.295   7.126 -0.8269  2.8568 -3.2137
  150SAPE   H4S16568   4.723  -0.139   7.171  0.5943  0.9122  0.7462
  150SAPE   C2516569   4.825  -0.260   7.331  0.3244 -0.4369 -0.2601
  150SAPE   H5R16570   4.829  -0.171   7.395 -1.1578  0.4981 -1.3817
  150SAPE   C2616571   4.837  -0.377   7.388 -0.1340 -0.0417  0.0990
  150SAPE   H6R16572   4.856  -0.369   7.496  0.0022 -0.3896  0.1050
  150SAPE   C2716573   4.825  -0.514   7.328 -0.5687 -0.2661 -0.1881
  150SAPE   H7R16574   4.827  -0.508   7.217 -0.7032 -0.4976 -0.2052
  150SAPE   H7S16575   4.720  -0.550   7.330 -0.4685 -0.5676 -0.2739
  150SAPE   C2816576   4.923  -0.620   7.387 -0.3663  0.6860  0.4407
  150SAPE   H8R16577   5.023  -0.621   7.341 -1.3360  2.1615 -1.9509
  150SAPE   C2916578   4.899  -0.707   7.487  0.4300 -0.3386 -0.4265
  150SAPE   H9R16579   4.975  -0.779   7.521  0.8168 -0.0106 -0.5896
  150SAPE  C21016580   4.767  -0.705   7.567 -0.0517  0.3423  0.0830
  150SAPE  H10R16581   4.687  -0.672   7.496  1.5402  0.5832 -1.6942
  150SAPE  H10S16582   4.776  -0.628   7.646 -1.1256 -0.1133  0.6618
  150SAPE  C21116583   4.730  -0.842   7.619 -0.4741 -0.1188  0.3145
  150SAPE  H11R16584   4.706  -0.915   7.540  1.3538  1.0924 -1.4426
  150SAPE  C21216585   4.741  -0.890   7.744 -0.4852  1.2347  0.0546
  150SAPE  H12R16586   4.720  -0.996   7.766  0.8728  0.9367 -0.0448
  150SAPE  C21316587   4.775  -0.805   7.872 -0.0844 -0.3745  0.1567
  150SAPE  H13R16588   4.725  -0.708   7.851 -0.1699 -0.9098 -2.3913
  150SAPE  H13S16589   4.884  -0.789   7.878 -0.1360 -0.1091  0.4877
  150SAPE  C21416590   4.734  -0.882   7.994 -0.3818  0.6288  0.0967
  150SAPE  H14R16591   4.803  -0.963   8.019  0.2578  0.5664 -1.7208
  150SAPE  C21516592   4.640  -0.853   8.085  0.0634  0.5927  0.0585
  150SAPE  H15R16593   4.625  -0.923   8.169  1.4005 -1.0090 -0.9639
  150SAPE  C21616594   4.540  -0.736   8.083 -0.3766 -0.0276 -0.5984
  150SAPE  H16R16595   4.526  -0.695   7.980 -1.4434  2.0948  0.3315
  150SAPE  H16S16596   4.567  -0.649   8.146  1.9546  1.2274 -3.0905
  150SAPE  C21716597   4.403  -0.773   8.127  0.5299 -0.4723  0.0976
  150SAPE  H17R16598   4.366  -0.875   8.102  1.3719 -0.7824  0.0613
  150SAPE  H17S16599   4.334  -0.696   8.088  1.4699  0.0500 -0.5585
  150SAPE  C21816600   4.400  -0.754   8.284  0.6125 -0.2361 -0.3420
  150SAPE  H18R16601   4.397  -0.647   8.314 -0.5315  0.6125 -3.1785
  150SAPE  H18S16602   4.487  -0.800   8.336 -0.2099 -0.0653  1.2456
  150SAPE  C21916603   4.265  -0.814   8.325 -0.1046  0.1723 -0.4435
  150SAPE  H19R16604   4.258  -0.924   8.312 -1.7387 -0.2668  3.0329
  150SAPE  H19S16605   4.187  -0.766   8.261 -0.1210 -1.9461 -2.1332
  150SAPE  C22016606   4.222  -0.795   8.474 -0.1303 -0.8831  0.0505
  150SAPE  H20R16607   4.296  -0.843   8.542 -0.0981  0.3176  0.8892
  150SAPE  H20S16608   4.126  -0.850   8.487 -0.2275 -0.7063  0.0854
  150SAPE  H20T16609   4.204  -0.687   8.494 -0.9476 -1.1351  0.7462
  150SAPE   C3316610   5.492   0.138   7.286 -0.1758 -0.1081 -0.3726
  150SAPE   H3X16611   5.563   0.215   7.251  1.1991 -0.7891  0.8365
  150SAPE   H3Y16612   5.530   0.041   7.247 -1.5997 -1.3149  1.1062
  150SAPE   C3416613   5.501   0.126   7.435  0.4735  0.5529 -0.6187
  150SAPE   H4X16614   5.610   0.128   7.457  0.1722  2.4250  1.0563
  150SAPE   H4Y16615   5.463   0.028   7.474  0.0511  0.8283 -0.3281
  150SAPE   C3516616   5.433   0.241   7.508  0.2025 -0.4784  0.2501
  150SAPE   H5X16617   5.323   0.235   7.495  0.2742 -0.6482 -0.3026
  150SAPE   H5Y16618   5.463   0.332   7.451 -0.6113 -1.3145 -1.5926
  150SAPE   C3616619   5.455   0.246   7.661 -0.3678  0.3262  0.1978
  150SAPE   H6X16620   5.439   0.145   7.705  0.0371  0.1424 -0.0664
  150SAPE   H6Y16621   5.383   0.312   7.714 -0.0164  2.0225 -1.3585
  150SAPE   C3716622   5.606   0.285   7.696  0.8933 -0.1318  1.2694
  150SAPE   H7X16623   5.618   0.388   7.656  1.7340 -0.1958  1.3467
  150SAPE   H7Y16624   5.664   0.217   7.631 -1.3620  0.3050 -1.4022
  150SAPE   C3816625   5.629   0.278   7.849  0.2584  0.3595  0.7122
  150SAPE   H8X16626   5.737   0.257   7.868  0.1102 -0.5662  0.5380
  150SAPE   H8Y16627   5.575   0.191   7.890 -0.9705 -0.0099 -1.5025
  150SAPE   C3916628   5.585   0.416   7.906 -0.3111  0.2691 -0.3974
  150SAPE   H9X16629   5.489   0.456   7.867 -1.7008 -0.4980  2.0379
  150SAPE   H9Y16630   5.665   0.492   7.894 -1.3167  1.3424 -0.4898
  150SAPE  C31016631   5.567   0.388   8.062  0.2082  0.1928 -0.2728
  150SAPE  H10X16632   5.668   0.351   8.091  0.0029  0.0907  0.3073
  150SAPE  H10Y16633   5.484   0.316   8.077  0.4295  0.1898  1.0059
  150SAPE  C31116634   5.538   0.514   8.138 -0.5285  0.1979 -0.1997
  150SAPE  H11X16635   5.440   0.559   8.108 -1.2096 -0.8741  0.3478
  150SAPE  H11Y16636   5.614   0.588   8.106  0.3486  0.2544  1.8521
  150SAPE  C31216637   5.547   0.505   8.295 -0.0094  0.5555 -0.7603
  150SAPE  H12X16638   5.589   0.600   8.335 -0.1488 -0.1326  1.1147
  150SAPE  H12Y16639   5.614   0.423   8.328  1.8436  0.9945 -3.1892
  150SAPE  C31316640   5.410   0.499   8.365 -0.4773  0.5758 -0.1907
  150SAPE  H13X16641   5.414   0.493   8.476 -2.7374  0.4880 -0.0631
  150SAPE  H13Y16642   5.363   0.407   8.323 -0.8469  0.9262 -0.5612
  150SAPE  C31416643   5.326   0.623   8.348 -0.3537 -0.0059 -0.0083
  150SAPE  H14X16644   5.326   0.658   8.242  2.2880  2.2518  0.6370
  150SAPE  H14Y16645   5.354   0.701   8.422  1.5401 -2.4729  2.0030
  150SAPE  C31516646   5.183   0.602   8.396  0.4157 -0.4577 -0.1213
  150SAPE  H15X16647   5.125   0.697   8.400  0.6463 -0.3391  0.4595
  150SAPE  H15Y16648   5.194   0.549   8.493  0.6652 -3.2070 -1.5497
  150SAPE  C31616649   5.102   0.500   8.313 -0.1916 -0.1734 -0.0844
  150SAPE  H16X16650   4.996   0.505   8.345 -0.1784 -0.5442  0.0298
  150SAPE  H16Y16651   5.144   0.398   8.326  1.2200  0.2550 -1.0329
  150SAPE  C31716652   5.108   0.535   8.163  0.2882 -0.7790 -0.7667
  150SAPE  H17X16653   5.027   0.477   8.113 -0.4108  0.1933 -0.7845
  150SAPE  H17Y16654   5.208   0.509   8.122  1.4871  0.0189  1.5052
  150SAPE  C31816655   5.075   0.682   8.125 -0.1284  0.2174  0.7441
  150SAPE  H18X16656   5.086   0.691   8.015 -1.0709 -0.6915  0.5688
  150SAPE  H18Y16657   5.133   0.761   8.178  0.0419  0.2122  0.5665
  150SAPE  H18Z16658   4.969   0.704   8.149  0.1420 -0.6142  3.0101
  151SAPE     N16659   3.133   5.157   6.048  0.1420  0.4209  0.5947
  151SAPE   HN116660   3.209   5.086   6.054  0.1464  0.0355 -2.3812
  151SAPE   HN216661   3.040   5.114   6.062 -0.8950  1.5744 -1.9930
  151SAPE   HN316662   3.130   5.191   5.950 -0.5738  0.9811  0.8040
  151SAPE   C1216663   3.163   5.263   6.151  0.3628 -0.0937  0.2097
  151SAPE  H12A16664   3.091   5.343   6.123 -0.5790 -0.8253  0.4731
  151SAPE  H12B16665   3.270   5.291   6.144  0.1247  1.0669  0.8683
  151SAPE   C1116666   3.141   5.199   6.283  0.4266 -0.0771 -0.0937
  151SAPE  H11A16667   3.032   5.186   6.298  0.5212 -0.5190  0.2500
  151SAPE  H11B16668   3.181   5.262   6.365 -0.8550 -3.0691  3.1043
  151SAPE     P16669   3.325   5.042   6.377  0.2865 -0.0160  0.7059
  151SAPE   O1316670   3.316   4.899   6.414 -0.5656 -0.3441 -0.0620
  151SAPE   O1416671   3.442   5.078   6.301 -0.4063 -0.4103  0.2724
  151SAPE   O1216672   3.201   5.068   6.284  0.3151 -0.4874  0.3828
  151SAPE   O1116673   3.300   5.144   6.498 -0.3378  0.0869  0.0002
  151SAPE    C116674   3.199   5.113   6.595 -0.2065  0.2296  0.3948
  151SAPE    HA16675   3.156   5.206   6.638 -2.2674 -1.9560  3.5060
  151SAPE    HB16676   3.119   5.050   6.550 -0.2852  0.3265  0.3992
  151SAPE    C216677   3.263   5.036   6.713  0.7177  0.3444 -0.0667
  151SAPE    HS16678   3.266   4.928   6.689 -0.1161  0.1709  0.5599
  151SAPE   O2116679   3.177   5.067   6.827 -0.3254  0.2880 -0.0412
  151SAPE   C2116680   3.055   5.013   6.832  0.1376 -0.3020 -0.7644
  151SAPE   O2216681   3.017   4.948   6.736  0.1651 -0.4717  0.5306
  151SAPE   C2216682   2.974   5.049   6.962 -0.8153 -0.2324 -0.3453
  151SAPE   H2R16683   3.030   5.124   7.024 -1.2378 -0.1149 -0.1018
  151SAPE   H2S16684   2.879   5.092   6.925  0.7741  1.1133 -3.1728
  151SAPE    C316685   3.410   5.069   6.751 -0.2655 -0.3591  0.1334
  151SAPE    HX16686   3.427   5.179   6.748  1.7741 -0.6022  0.8601
  151SAPE    HY16687   3.481   5.030   6.675 -1.0371 -1.3050 -0.1179
  151SAPE   O3116688   3.442   5.008   6.876  1.1352 -0.5786 -0.0166
  151SAPE   C3116689   3.562   5.027   6.924  0.1891 -0.0934 -0.9192
  151SAPE   O3216690   3.645   5.089   6.869 -0.9309  0.4142  0.2922
  151SAPE   C3216691   3.578   4.951   7.051 -0.2276 -0.4198  0.3913
  151SAPE   H2X16692   3.574   4.844   7.023 -0.2426 -0.5945  1.0385
  151SAPE   H2Y16693   3.494   4.979   7.118 -0.0964  0.6798  0.1135
  151SAPE   C2316694   2.941   4.924   7.047 -0.1574 -0.3234 -0.3160
  151SAPE   H3R16695   3.025   4.852   7.054 -0.5397 -0.6811  0.9346
  151SAPE   H3S16696   2.854   4.879   6.994 -1.4778 -0.2075  1.6334
  151SAPE   C2416697   2.880   4.962   7.182 -0.4196  0.5443  0.2868
  151SAPE   H4R16698   2.799   5.033   7.154  1.1107  2.2489 -0.0827
  151SAPE   H4S16699   2.953   5.023   7.241 -0.7277  0.9187  0.2911
  151SAPE   C2516700   2.825   4.851   7.271 -0.3284  0.0722 -0.0843
  151SAPE   H5R16701   2.833   4.752   7.222 -1.1530  0.6887 -1.5297
  151SAPE   C2616702   2.760   4.873   7.387  0.1289 -0.4030 -0.5363
  151SAPE   H6R16703   2.715   4.790   7.443  1.0640  0.1922  1.1722
  151SAPE   C2716704   2.737   5.015   7.446  0.5106 -0.2602  0.2738
  151SAPE   H7R16705   2.784   5.097   7.387  0.0553  1.1800  1.8255
  151SAPE   H7S16706   2.796   5.009   7.540  1.5116  2.6838 -0.0703
  151SAPE   C2816707   2.591   5.043   7.484 -0.7424 -0.3334  0.4062
  151SAPE   H8R16708   2.535   5.083   7.399 -0.0409 -1.4130 -0.5878
  151SAPE   C2916709   2.547   5.032   7.613  0.0094  0.3919 -0.2606
  151SAPE   H9R16710   2.442   5.058   7.634  0.2110  2.8769 -1.8933
  151SAPE  C21016711   2.630   4.983   7.727 -0.0224  0.1147  0.4307
  151SAPE  H10R16712   2.705   4.908   7.693 -1.4616 -2.3830  2.4410
  151SAPE  H10S16713   2.559   4.923   7.788  1.2654 -0.6846  1.1963
  151SAPE  C21116714   2.690   5.087   7.817 -0.1715  0.6325  1.2275
  151SAPE  H11R16715   2.751   5.163   7.765 -0.8138 -0.1583 -0.7384
  151SAPE  C21216716   2.679   5.101   7.945  0.2184 -0.8640  0.2766
  151SAPE  H12R16717   2.708   5.197   7.990  0.7371 -1.1972  0.6631
  151SAPE  C21316718   2.589   5.022   8.035 -0.2645  0.3291 -0.8139
  151SAPE  H13R16719   2.623   5.044   8.138  1.3952 -2.1089 -0.7436
  151SAPE  H13S16720   2.620   4.915   8.035  1.7925  0.8773 -0.6936
  151SAPE  C21416721   2.445   5.016   8.006  0.2809 -0.3821  0.3001
  151SAPE  H14R16722   2.421   5.066   7.910  0.8953 -0.3645  0.1498
  151SAPE  C21516723   2.347   4.962   8.077 -0.0310  0.2221 -0.2544
  151SAPE  H15R16724   2.244   4.971   8.039 -0.4969 -2.4123  0.1926
  151SAPE  C21616725   2.364   4.896   8.208 -0.3683  0.2849 -0.3729
  151SAPE  H16R16726   2.464   4.851   8.223 -0.2652  0.8760  0.8289
  151SAPE  H16S16727   2.283   4.822   8.222  0.1043 -0.1302  0.1891
  151SAPE  C21716728   2.367   4.994   8.323 -0.1525 -0.0844 -0.3133
  151SAPE  H17R16729   2.271   5.047   8.340  0.0244 -0.1170  0.8476
  151SAPE  H17S16730   2.459   5.055   8.322  1.0467 -1.7562  1.3126
  151SAPE  C21816731   2.388   4.907   8.451  0.6767  0.3858 -0.6183
  151SAPE  H18R16732   2.492   4.868   8.454 -0.2355 -2.2575 -1.1341
  151SAPE  H18S16733   2.318   4.822   8.444 -1.3590  2.0657 -1.5774
  151SAPE  C21916734   2.362   4.964   8.589 -0.4404 -0.3173 -0.9139
  151SAPE  H19R16735   2.397   5.069   8.589  2.0631 -1.0918 -0.7272
  151SAPE  H19S16736   2.420   4.908   8.666 -0.9976  1.1244  0.6183
  151SAPE  C22016737   2.212   4.950   8.625  0.7118 -0.2666 -0.2996
  151SAPE  H20R16738   2.187   5.005   8.718  0.5386 -3.4374  1.6918
  151SAPE  H20S16739   2.141   4.985   8.547 -2.1155 -3.0448  0.7805
  151SAPE  H20T16740   2.174   4.850   8.655 -1.0923  0.5695  0.3803
  151SAPE   C3316741   3.695   4.986   7.140 -0.2757  0.2627  0.6943
  151SAPE   H3X16742   3.695   5.095   7.161 -0.0302 -0.0152  2.2711
  151SAPE   H3Y16743   3.787   4.957   7.084 -0.2763  1.1467  0.2162
  151SAPE   C3416744   3.706   4.898   7.271  0.4170 -0.1910 -0.1657
  151SAPE   H4X16745   3.804   4.920   7.319 -0.1848  3.7245 -0.4425
  151SAPE   H4Y16746   3.705   4.792   7.235  1.2865  0.3027 -1.7536
  151SAPE   C3516747   3.602   4.921   7.378 -0.0514  0.3013 -0.8519
  151SAPE   H5X16748   3.498   4.899   7.347  0.4852 -0.0403 -2.4824
  151SAPE   H5Y16749   3.609   5.030   7.399 -1.4090  0.3729 -0.7092
  151SAPE   C3616750   3.643   4.852   7.512  0.0926  0.4121  0.6537
  151SAPE   H6X16751   3.752   4.842   7.531  0.2346 -2.8680 -1.2927
  151SAPE   H6Y16752   3.608   4.747   7.515 -0.6391  0.5895 -0.9385
  151SAPE   C3716753   3.574   4.926   7.634 -0.2818  0.3773 -0.0196
  151SAPE   H7X16754   3.467   4.947   7.615 -0.3817  0.4146  0.5869
  151SAPE   H7Y16755   3.631   5.018   7.662 -0.2586  0.1185  0.8096
  151SAPE   C3816756   3.575   4.831   7.754  0.5543  0.3346 -0.2780
  151SAPE   H8X16757   3.674   4.782   7.762  0.3531 -0.3702 -1.7237
  151SAPE   H8Y16758   3.499   4.751   7.742  0.3864  0.2293  1.2728
  151SAPE   C3916759   3.544   4.909   7.886 -0.0241  0.1453  0.4575
  151SAPE   H9X16760   3.440   4.945   7.904 -0.7160 -1.5689  0.0906
  151SAPE   H9Y16761   3.605   5.002   7.881  0.5173 -0.2908 -2.0004
  151SAPE  C31016762   3.586   4.831   8.013  0.0906 -0.5188 -0.6339
  151SAPE  H10X16763   3.696   4.825   8.007  0.4129  2.0651  1.1367
  151SAPE  H10Y16764   3.534   4.733   8.014  0.8993 -0.9542 -0.6148
  151SAPE  C31116765   3.535   4.925   8.127 -0.3848  0.2254  0.0466
  151SAPE  H11X16766   3.425   4.929   8.121 -0.3419  0.2405 -0.9242
  151SAPE  H11Y16767   3.579   5.024   8.101  1.2661 -0.6762 -0.7867
  151SAPE  C31216768   3.590   4.882   8.264  0.4219  0.8069 -1.1519
  151SAPE  H12X16769   3.690   4.928   8.274  0.4102  1.1750 -2.6091
  151SAPE  H12Y16770   3.617   4.774   8.257  1.3511  0.7977  1.3326
  151SAPE  C31316771   3.510   4.903   8.401 -0.7079  0.1593  1.0795
  151SAPE  H13X16772   3.438   4.987   8.401  0.4998  1.2258  0.3446
  151SAPE  H13Y16773   3.590   4.945   8.464  1.1391  0.4522 -1.2926
  151SAPE  C31416774   3.444   4.778   8.465 -0.2474 -0.4213  0.0732
  151SAPE  H14X16775   3.517   4.696   8.452  0.3718  0.3448 -1.6444
  151SAPE  H14Y16776   3.353   4.763   8.401 -0.6388  1.9387 -0.0267
  151SAPE  C31516777   3.424   4.800   8.608 -0.0311 -0.0428  0.2424
  151SAPE  H15X16778   3.362   4.889   8.630 -0.2476 -0.0816 -0.2122
  151SAPE  H15Y16779   3.517   4.808   8.670 -0.3899  0.0693  0.7738
  151SAPE  C31616780   3.352   4.683   8.677  0.3712 -0.3409 -0.0631
  151SAPE  H16X16781   3.405   4.591   8.645 -0.6120 -1.0792  0.3961
  151SAPE  H16Y16782   3.249   4.686   8.635 -0.3664  2.0707  1.7098
  151SAPE  C31716783   3.348   4.695   8.835  0.3940  0.6802  0.1665
  151SAPE  H17X16784   3.445   4.719   8.884  0.9232  1.8551 -1.3681
  151SAPE  H17Y16785   3.307   4.600   8.875  0.2075 -0.7363 -3.0351
  151SAPE  C31816786   3.251   4.804   8.880 -0.0994  0.0780 -0.4208
  151SAPE  H18X16787   3.250   4.881   8.799 -0.2887  2.6539  1.8909
  151SAPE  H18Y16788   3.280   4.858   8.972 -1.5614 -0.1345  0.1914
  151SAPE  H18Z16789   3.152   4.757   8.896  1.0263 -2.3065 -0.0485
  152SAPE     N16790   6.218   2.138   6.485 -0.1131  0.0437  0.6409
  152SAPE   HN116791   6.117   2.124   6.507 -0.2466 -0.2300 -0.0961
  152SAPE   HN216792   6.275   2.075   6.544  0.7214  0.6003  0.4459
  152SAPE   HN316793   6.247   2.236   6.503  0.0277 -0.1306  1.4002
  152SAPE   C1216794   6.254   2.113   6.344 -0.1924 -0.6800 -0.3265
  152SAPE  H12A16795   6.208   2.203   6.299 -0.6217 -1.0565 -0.6528
  152SAPE  H12B16796   6.181   2.036   6.309 -0.6919 -0.0635 -0.6630
  152SAPE   C1116797   6.396   2.081   6.320 -0.1725 -0.3551  0.0681
  152SAPE  H11A16798   6.463   2.166   6.344 -0.2215 -0.8290  2.0107
  152SAPE  H11B16799   6.409   2.065   6.210 -2.5407 -0.6464 -0.2171
  152SAPE     P16800   6.500   1.943   6.527 -0.0529 -0.1326 -0.0138
  152SAPE   O1316801   6.395   1.993   6.620  0.2090 -0.3809 -0.4253
  152SAPE   O1416802   6.550   1.807   6.549  0.2068  0.0508 -0.6477
  152SAPE   O1216803   6.436   1.961   6.381 -0.1279  0.2237 -0.3318
  152SAPE   O1116804   6.627   2.043   6.515 -0.1309  0.1546 -0.3756
  152SAPE    C116805   6.613   2.156   6.602  0.9818 -0.4531  0.1853
  152SAPE    HA16806   6.651   2.245   6.547  1.7804 -1.0814 -0.2977
  152SAPE    HB16807   6.514   2.206   6.603  1.5419  1.0527 -3.3524
  152SAPE    C216808   6.679   2.150   6.736  0.0474  0.0228  0.1807
  152SAPE    HS16809   6.691   2.256   6.766  0.9796  0.2781 -1.0403
  152SAPE   O2116810   6.801   2.073   6.737  0.1498  0.5101 -0.1215
  152SAPE   C2116811   6.876   2.119   6.833 -0.3940 -0.3120 -0.3469
  152SAPE   O2216812   6.860   2.216   6.906 -0.4331 -0.1137  0.5109
  152SAPE   C2216813   7.001   2.032   6.836  0.1270 -0.0649  0.3016
  152SAPE   H2R16814   6.963   1.928   6.841  0.4602 -0.1313  2.3528
  152SAPE   H2S16815   7.057   2.064   6.745 -0.2532 -1.2222 -0.3612
  152SAPE    C316816   6.577   2.094   6.833 -0.0835 -0.1961 -0.3646
  152SAPE    HX16817   6.562   1.987   6.811  0.3096  0.2141 -2.9874
  152SAPE    HY16818   6.482   2.150   6.815  1.0253  0.8230 -3.8176
  152SAPE   O3116819   6.610   2.100   6.972 -0.2080 -0.1232 -0.5391
  152SAPE   C3116820   6.598   2.221   7.017 -0.6494  0.4638  0.5172
  152SAPE   O3216821   6.535   2.311   6.968  0.5744  0.1527  0.6837
  152SAPE   C3216822   6.671   2.230   7.141  0.7355  0.1570  1.2760
  152SAPE   H2X16823   6.758   2.294   7.116 -0.6980  1.1001 -1.7112
  152SAPE   H2Y16824   6.707   2.132   7.180  0.4602 -0.9246 -1.0222
  152SAPE   C2316825   7.079   2.061   6.967 -0.3908  0.8044 -0.1840
  152SAPE   H3R16826   7.099   2.168   6.987 -2.0825  1.0902  0.0982
  152SAPE   H3S16827   7.180   2.023   6.939 -0.1631  1.8146 -0.7726
  152SAPE   C2416828   7.023   1.982   7.086 -0.0829  0.0226  0.7481
  152SAPE   H4R16829   6.986   1.881   7.060 -1.8250  0.2987  1.9483
  152SAPE   H4S16830   6.942   2.045   7.129 -0.8212 -0.0657 -0.4964
  152SAPE   C2516831   7.134   1.955   7.184 -0.2280 -0.5306 -0.3116
  152SAPE   H5R16832   7.231   1.941   7.133 -0.2657 -2.3603  0.0703
  152SAPE   C2616833   7.118   1.949   7.311  0.2314 -0.0209 -0.2341
  152SAPE   H6R16834   7.205   1.913   7.367 -0.8419 -1.3847  0.6281
  152SAPE   C2716835   6.987   1.960   7.387  0.5528  0.2849  0.1093
  152SAPE   H7R16836   6.908   2.020   7.337 -0.1873 -1.6349 -1.1023
  152SAPE   H7S16837   7.024   2.028   7.467  1.4766 -0.2123  0.1238
  152SAPE   C2816838   6.923   1.834   7.432  0.7923  0.0429  0.3163
  152SAPE   H8R16839   6.878   1.779   7.349 -3.1473  0.9942  1.6172
  152SAPE   C2916840   6.903   1.789   7.555 -0.6473  0.3682 -0.5473
  152SAPE   H9R16841   6.860   1.689   7.567  1.3326 -0.5276 -0.6454
  152SAPE  C21016842   6.930   1.862   7.685 -0.3026 -0.4887 -0.6731
  152SAPE  H10R16843   6.832   1.895   7.726  0.2790  0.8285 -0.3030
  152SAPE  H10S16844   6.991   1.953   7.669  2.4484 -2.1461 -0.3340
  152SAPE  C21116845   7.008   1.779   7.780 -0.6495  0.2767 -0.2151
  152SAPE  H11R16846   7.052   1.682   7.751 -1.3266 -0.0638 -0.1329
  152SAPE  C21216847   7.031   1.821   7.907 -0.1300  0.4364  1.2996
  152SAPE  H12R16848   7.089   1.756   7.975 -1.3345 -1.5129  0.5549
  152SAPE  C21316849   6.994   1.946   7.974  0.1937 -0.6806 -0.5165
  152SAPE  H13R16850   6.975   1.914   8.079 -1.6787 -3.0613 -1.4767
  152SAPE  H13S16851   6.892   1.964   7.936  0.7411  0.8304 -1.3448
  152SAPE  C21416852   7.079   2.065   7.958  0.2340 -1.0038  0.1735
  152SAPE  H14R16853   7.130   2.077   7.861  1.9926 -0.8430  1.0771
  152SAPE  C21516854   7.099   2.159   8.052 -0.7738 -0.8062 -0.6067
  152SAPE  H15R16855   7.168   2.242   8.030 -1.8734  1.3841  3.1712
  152SAPE  C21616856   7.054   2.165   8.195 -0.3552 -0.0443  0.2512
  152SAPE  H16R16857   6.975   2.091   8.216 -0.7216  0.1554 -0.4090
  152SAPE  H16S16858   7.005   2.265   8.202  0.9364  0.5227  2.3256
  152SAPE  C21716859   7.165   2.153   8.298 -0.0926 -0.0791 -0.2342
  152SAPE  H17R16860   7.228   2.061   8.290  0.2100  0.0202  0.8483
  152SAPE  H17S16861   7.122   2.156   8.400  2.8353  0.6508  1.1012
  152SAPE  C21816862   7.264   2.274   8.299  0.2208  0.3952 -0.2448
  152SAPE  H18R16863   7.210   2.368   8.323  0.7610  0.0298  2.8242
  152SAPE  H18S16864   7.308   2.284   8.198  0.4011 -0.2359 -0.2297
  152SAPE  C21916865   7.382   2.262   8.405 -0.4189  1.0463 -0.3192
  152SAPE  H19R16866   7.445   2.179   8.365 -2.8044  0.0790 -2.2836
  152SAPE  H19S16867   7.342   2.239   8.506 -0.0828  0.6197 -0.2756
  152SAPE  C22016868   7.478   2.382   8.397 -0.0309 -0.3938  0.5189
  152SAPE  H20R16869   7.420   2.477   8.387 -1.3439 -1.3747 -2.7764
  152SAPE  H20S16870   7.522   2.377   8.295  0.5115 -2.2322  0.8186
  152SAPE  H20T16871   7.563   2.376   8.468  1.5469  0.1052 -1.2398
  152SAPE   C3316872   6.591   2.302   7.247  0.2405 -0.5342 -0.9943
  152SAPE   H3X16873   6.492   2.252   7.257  0.6208 -0.9572  1.1899
  152SAPE   H3Y16874   6.577   2.408   7.216 -2.9131 -0.8242 -0.9146
  152SAPE   C3416875   6.644   2.288   7.388 -0.5765 -0.5015  0.1437
  152SAPE   H4X16876   6.724   2.364   7.381 -1.2677  0.0748 -1.9905
  152SAPE   H4Y16877   6.699   2.192   7.397 -0.2214 -0.4316 -1.2062
  152SAPE   C3516878   6.542   2.326   7.494  0.5657 -0.4445 -0.8680
  152SAPE   H5X16879   6.461   2.255   7.468 -0.4238  0.3523  0.0049
  152SAPE   H5Y16880   6.502   2.428   7.480 -0.4401 -0.6024  0.6418
  152SAPE   C3616881   6.597   2.298   7.638 -0.3290  0.2022  0.7653
  152SAPE   H6X16882   6.516   2.326   7.709 -0.8665 -4.4613  2.3223
  152SAPE   H6Y16883   6.691   2.354   7.653  0.5224 -1.3062  1.1987
  152SAPE   C3716884   6.619   2.150   7.675 -0.1361  0.0797 -0.4550
  152SAPE   H7X16885   6.711   2.129   7.617  1.2477 -0.7133  1.9061
  152SAPE   H7Y16886   6.525   2.092   7.664 -0.2656 -0.3820  2.4215
  152SAPE   C3816887   6.638   2.143   7.828 -0.1899  0.5579  0.1605
  152SAPE   H8X16888   6.566   2.211   7.877 -1.1210 -1.4967  1.7818
  152SAPE   H8Y16889   6.740   2.186   7.843  1.1144 -2.0549 -0.5937
  152SAPE   C3916890   6.616   2.017   7.903  0.7674 -0.5699 -0.0273
  152SAPE   H9X16891   6.680   1.933   7.868 -0.7890 -1.8943  0.2452
  152SAPE   H9Y16892   6.511   1.981   7.897  1.4337 -2.7150  0.3055
  152SAPE  C31016893   6.657   2.028   8.053 -0.5181  1.0822  0.4498
  152SAPE  H10X16894   6.592   2.101   8.105 -0.2694  1.2938  0.4676
  152SAPE  H10Y16895   6.756   2.079   8.047 -0.9822  2.3541  2.6651
  152SAPE  C31116896   6.675   1.896   8.126 -0.3019  1.0568 -0.1877
  152SAPE  H11X16897   6.706   1.907   8.232 -1.3311  0.8894  0.1468
  152SAPE  H11Y16898   6.768   1.841   8.101  0.1833  0.7853  1.9858
  152SAPE  C31216899   6.555   1.807   8.097 -0.1521 -0.3239  0.4644
  152SAPE  H12X16900   6.571   1.764   7.996 -1.2486 -1.3777  0.7179
  152SAPE  H12Y16901   6.461   1.865   8.090 -0.5935 -0.8112  1.9194
  152SAPE  C31316902   6.545   1.692   8.203 -0.2662 -0.5404  0.2353
  152SAPE  H13X16903   6.652   1.670   8.224  0.4949  0.0773 -2.5720
  152SAPE  H13Y16904   6.490   1.607   8.156 -0.2564 -1.8510  2.4404
  152SAPE  C31416905   6.467   1.724   8.334 -0.2678 -0.0224  0.1635
  152SAPE  H14X16906   6.386   1.795   8.306  1.1284  1.5957  0.0680
  152SAPE  H14Y16907   6.539   1.785   8.393  0.1943 -0.0939 -0.3168
  152SAPE  C31516908   6.412   1.604   8.407 -0.1272 -0.1539  0.2243
  152SAPE  H15X16909   6.501   1.544   8.435  1.5316  3.0568  2.5542
  152SAPE  H15Y16910   6.332   1.560   8.344 -1.9108  1.6929  1.0867
  152SAPE  C31616911   6.350   1.648   8.545  0.0389 -0.2779  0.3480
  152SAPE  H16X16912   6.307   1.750   8.536  0.5156  0.0078  1.1819
  152SAPE  H16Y16913   6.430   1.644   8.622 -0.3497  1.4944  0.8859
  152SAPE  C31716914   6.233   1.559   8.583 -0.2307  0.1213 -0.1617
  152SAPE  H17X16915   6.165   1.557   8.496  2.3735 -0.2707 -2.3250
  152SAPE  H17Y16916   6.192   1.610   8.674  2.8459  0.7923  0.9821
  152SAPE  C31816917   6.270   1.418   8.610  0.2308  0.3839 -0.8467
  152SAPE  H18X16918   6.330   1.406   8.702 -0.1021 -0.9718 -0.7887
  152SAPE  H18Y16919   6.337   1.379   8.529 -2.4862  1.0274 -3.5945
  152SAPE  H18Z16920   6.179   1.356   8.626 -0.0628  1.4257  1.9813
  153SAPE     N16921   4.029   1.138   6.494  0.2044 -0.1252 -0.0188
  153SAPE   HN116922   4.036   1.052   6.437 -1.6503  1.3628 -2.7028
  153SAPE   HN216923   3.957   1.191   6.441  0.4998  1.5106  1.1086
  153SAPE   HN316924   4.120   1.187   6.480  0.2338 -0.3809 -0.7191
  153SAPE   C1216925   3.982   1.112   6.631  0.4211 -0.4535 -0.1087
  153SAPE  H12A16926   3.977   1.208   6.687  2.2871 -0.3682 -0.0346
  153SAPE  H12B16927   4.053   1.042   6.681 -0.5559 -0.9297  0.6651
  153SAPE   C1116928   3.842   1.053   6.650  0.1911 -0.6216 -0.1668
  153SAPE  H11A16929   3.844   1.015   6.755 -1.0775  0.6720  0.3674
  153SAPE  H11B16930   3.822   0.975   6.575 -0.7714  1.9086 -2.7183
  153SAPE     P16931   3.657   1.205   6.548  0.1838 -0.3528  0.1142
  153SAPE   O1316932   3.566   1.309   6.605  0.2045 -0.5937  0.1915
  153SAPE   O1416933   3.741   1.243   6.438  0.0991  0.7475  0.4130
  153SAPE   O1216934   3.741   1.154   6.663 -0.2696  0.5280  0.2791
  153SAPE   O1116935   3.568   1.080   6.500  0.1802  0.0011 -0.0321
  153SAPE    C116936   3.461   1.028   6.585 -0.3234  0.6039  0.7877
  153SAPE    HA16937   3.488   1.029   6.693  2.1299  0.5337  0.2330
  153SAPE    HB16938   3.365   1.081   6.566 -0.3421  0.6972  1.1353
  153SAPE    C216939   3.434   0.880   6.556 -0.0645  0.3603 -0.0339
  153SAPE    HS16940   3.410   0.860   6.449 -0.9515  0.6084  0.1158
  153SAPE   O2116941   3.324   0.846   6.636 -0.8440 -0.3721  0.3764
  153SAPE   C2116942   3.274   0.723   6.616 -0.1336  0.5518  0.3413
  153SAPE   O2216943   3.322   0.648   6.533  0.5267  0.5821  0.3664
  153SAPE   C2216944   3.158   0.682   6.712 -0.5276  0.0802 -0.4745
  153SAPE   H2R16945   3.095   0.768   6.744  0.7182  1.1947 -0.9064
  153SAPE   H2S16946   3.087   0.617   6.655  4.0782 -2.3612 -4.1666
  153SAPE    C316947   3.566   0.800   6.598  0.6531 -0.1271 -1.0592
  153SAPE    HX16948   3.640   0.821   6.517  0.0221 -0.7581 -1.8071
  153SAPE    HY16949   3.565   0.689   6.599  0.1560 -0.1212 -0.8320
  153SAPE   O3116950   3.627   0.859   6.715  0.2850 -0.2668 -0.6914
  153SAPE   C3116951   3.614   0.799   6.834  0.7427  0.2177  0.0588
  153SAPE   O3216952   3.554   0.692   6.853 -0.3416 -0.5799 -0.0916
  153SAPE   C3216953   3.700   0.872   6.939 -0.4421  0.5497 -0.1992
  153SAPE   H2X16954   3.703   0.978   6.906  4.2797  0.5879 -0.2785
  153SAPE   H2Y16955   3.803   0.832   6.936 -0.4822  0.4728 -0.7907
  153SAPE   C2316956   3.213   0.604   6.834  0.5219  0.1473  0.1022
  153SAPE   H3R16957   3.306   0.655   6.870  0.8251 -1.2518  1.3857
  153SAPE   H3S16958   3.248   0.506   6.795 -3.0042 -1.6453  1.0932
  153SAPE   C2416959   3.106   0.606   6.946 -0.1247  0.8543 -0.9014
  153SAPE   H4R16960   3.111   0.704   6.999 -0.0474  0.2426  0.2700
  153SAPE   H4S16961   3.143   0.540   7.028 -0.4935  3.3621  1.4293
  153SAPE   C2516962   2.968   0.565   6.901  0.0444 -0.4897 -0.2357
  153SAPE   H5R16963   2.962   0.469   6.848 -1.2084 -1.3946  1.4622
  153SAPE   C2616964   2.857   0.641   6.908  0.4289  0.4050 -0.0190
  153SAPE   H6R16965   2.765   0.604   6.860  1.0716 -0.9241 -0.2771
  153SAPE   C2716966   2.844   0.774   6.968  0.4781 -1.3794  0.0120
  153SAPE   H7R16967   2.924   0.795   7.042  1.0508  1.5752 -1.3000
  153SAPE   H7S16968   2.745   0.773   7.018 -0.4844  1.6576 -1.5800
  153SAPE   C2816969   2.835   0.887   6.870 -1.0003 -0.7619  0.7724
  153SAPE   H8R16970   2.849   0.869   6.762 -0.8228  1.7495  0.3202
  153SAPE   C2916971   2.812   1.015   6.915  0.2021 -0.1168 -0.5734
  153SAPE   H9R16972   2.797   1.093   6.838  0.3181  0.0054 -0.4724
  153SAPE  C21016973   2.794   1.071   7.053  0.4522  1.1691  0.6520
  153SAPE  H10R16974   2.763   0.988   7.120 -0.9626 -0.6055 -2.0333
  153SAPE  H10S16975   2.707   1.140   7.051 -0.9455 -0.5175  1.1697
  153SAPE  C21116976   2.913   1.137   7.111 -0.5895 -0.0261  0.1525
  153SAPE  H11R16977   2.995   1.146   7.039 -0.9958  1.5546 -0.1444
  153SAPE  C21216978   2.933   1.168   7.242  0.2775  0.1596  0.0172
  153SAPE  H12R16979   3.031   1.213   7.263 -0.2628  1.9115 -1.0566
  153SAPE  C21316980   2.824   1.164   7.350  0.1925  0.0683 -0.0166
  153SAPE  H13R16981   2.829   1.062   7.394  4.8651 -0.0127 -0.2036
  153SAPE  H13S16982   2.724   1.171   7.302  0.4659 -1.4973 -0.9086
  153SAPE  C21416983   2.831   1.267   7.468  0.0180 -0.0328  0.1273
  153SAPE  H14R16984   2.777   1.362   7.458  0.3761 -0.0502 -2.8415
  153SAPE  C21516985   2.899   1.242   7.578  0.2469  0.1631  0.6275
  153SAPE  H15R16986   2.904   1.322   7.654  3.5980 -0.2467  1.0280
  153SAPE  C21616987   2.982   1.123   7.612 -0.6939 -0.1518  0.2877
  153SAPE  H16R16988   3.074   1.157   7.664 -1.8836  2.1465  1.0065
  153SAPE  H16S16989   3.004   1.068   7.518 -2.8059  2.2441 -1.7436
  153SAPE  C21716990   2.898   1.038   7.709  0.7761  0.5131 -0.3308
  153SAPE  H17R16991   2.953   0.941   7.714 -0.2258 -0.0959 -0.6897
  153SAPE  H17S16992   2.797   1.009   7.671  1.1589 -0.8276 -0.3938
  153SAPE  C21816993   2.892   1.107   7.842  0.2360  0.3746 -0.7590
  153SAPE  H18R16994   2.838   1.204   7.845 -2.5849 -1.1141  0.2000
  153SAPE  H18S16995   2.993   1.133   7.882 -0.2254 -0.4578  1.0639
  153SAPE  C21916996   2.819   1.025   7.958 -0.5226  0.1452  0.3444
  153SAPE  H19R16997   2.831   1.076   8.056  1.2584  0.2228  0.1150
  153SAPE  H19S16998   2.858   0.922   7.941 -0.1920  0.6500 -2.4804
  153SAPE  C22016999   2.672   1.016   7.933 -0.0744 -0.6718  0.5175
  153SAPE  H20R17000   2.612   0.939   7.984 -0.5269 -1.3750 -1.0286
  153SAPE  H20S17001   2.651   0.996   7.826  1.4964 -2.7934  0.5472
  153SAPE  H20T17002   2.623   1.113   7.958  0.8882 -1.0211  4.3743
  153SAPE   C3317003   3.627   0.865   7.079 -0.3686 -0.3478 -0.9140
  153SAPE   H3X17004   3.586   0.765   7.106 -0.6936 -0.2508 -1.0433
  153SAPE   H3Y17005   3.560   0.953   7.074 -0.9226 -0.7888 -1.3458
  153SAPE   C3417006   3.730   0.896   7.196 -0.1868  0.1252  0.2735
  153SAPE   H4X17007   3.752   1.003   7.212  1.9822 -0.5537  2.4773
  153SAPE   H4Y17008   3.830   0.851   7.181  0.0033 -0.1989  2.2743
  153SAPE   C3517009   3.668   0.850   7.331 -0.5502 -0.5493 -0.2506
  153SAPE   H5X17010   3.646   0.742   7.317 -1.7846 -0.2074 -1.0547
  153SAPE   H5Y17011   3.575   0.905   7.354  0.2300  0.0097  1.6980
  153SAPE   C3617012   3.769   0.867   7.446  0.4143  0.2280 -0.0878
  153SAPE   H6X17013   3.801   0.973   7.453  0.2536  0.3819 -1.4225
  153SAPE   H6Y17014   3.862   0.811   7.421  0.0522 -0.0017 -0.9717
  153SAPE   C3717015   3.719   0.830   7.587 -0.0916 -0.6830  0.1178
  153SAPE   H7X17016   3.695   0.722   7.596  2.2246 -1.3386 -0.8899
  153SAPE   H7Y17017   3.629   0.890   7.612  1.0455  1.3586 -0.4379
  153SAPE   C3817018   3.819   0.859   7.702  0.3269 -0.1238  0.5434
  153SAPE   H8X17019   3.861   0.958   7.675 -1.7825  0.5078 -0.7242
  153SAPE   H8Y17020   3.900   0.784   7.694  0.5971  0.1381  0.8064
  153SAPE   C3917021   3.770   0.868   7.846  0.1906  0.3287 -0.2495
  153SAPE   H9X17022   3.698   0.786   7.867  0.1911 -0.4397 -2.8539
  153SAPE   H9Y17023   3.699   0.954   7.851 -0.6426 -0.2759 -1.2116
  153SAPE  C31017024   3.869   0.873   7.960  0.2420  0.8198 -0.5171
  153SAPE  H10X17025   3.941   0.957   7.948  1.3698  0.0645  0.7275
  153SAPE  H10Y17026   3.929   0.780   7.955  0.2449  0.6482  1.7383
  153SAPE  C31117027   3.802   0.891   8.099  0.5377 -0.0656  0.0346
  153SAPE  H11X17028   3.721   0.815   8.105  1.6257 -1.2971 -0.3704
  153SAPE  H11Y17029   3.747   0.987   8.111  0.9913 -0.0688  2.6915
  153SAPE  C31217030   3.904   0.863   8.208 -0.6739 -0.1973 -0.0913
  153SAPE  H12X17031   3.971   0.951   8.218 -1.9158  0.5793  2.7406
  153SAPE  H12Y17032   3.963   0.778   8.169  0.0962 -0.0083  0.6311
  153SAPE  C31317033   3.854   0.844   8.346  0.0083 -0.7677 -0.1387
  153SAPE  H13X17034   3.943   0.798   8.394  1.0902  1.3848  0.0189
  153SAPE  H13Y17035   3.764   0.780   8.335 -0.5452  0.0288 -0.3533
  153SAPE  C31417036   3.814   0.971   8.431  0.3617 -0.0855  0.9928
  153SAPE  H14X17037   3.754   1.042   8.370 -1.4025 -1.3515  1.1677
  153SAPE  H14Y17038   3.909   1.027   8.444  0.9750 -0.7543 -0.4230
  153SAPE  C31517039   3.745   0.931   8.560  0.4291 -0.3891  0.1184
  153SAPE  H15X17040   3.812   0.859   8.612  0.0838  0.3440  1.6254
  153SAPE  H15Y17041   3.648   0.888   8.529 -0.5009  0.7277  1.3599
  153SAPE  C31617042   3.717   1.059   8.639 -0.0171 -0.2847 -1.3720
  153SAPE  H16X17043   3.800   1.133   8.634  0.8560 -0.9167  1.5207
  153SAPE  H16Y17044   3.723   1.029   8.746 -1.0601  3.2546 -0.2004
  153SAPE  C31717045   3.582   1.127   8.622 -0.6949 -0.2078 -0.4233
  153SAPE  H17X17046   3.492   1.064   8.641 -0.1064 -0.5684  1.2928
  153SAPE  H17Y17047   3.577   1.169   8.519  2.1161 -0.6571 -0.8317
  153SAPE  C31817048   3.563   1.252   8.717 -0.2925 -0.1177 -0.0646
  153SAPE  H18X17049   3.469   1.295   8.677 -0.4092  0.9699  1.3420
  153SAPE  H18Y17050   3.644   1.327   8.705 -0.8095  0.1329 -2.4545
  153SAPE  H18Z17051   3.554   1.226   8.825 -0.4228 -1.1611 -0.3086
  154SAPE     N17052   1.636   0.604   6.383  0.9172 -0.5624 -0.3909
  154SAPE   HN117053   1.571   0.522   6.384 -1.1054  0.9554 -0.6701
  154SAPE   HN217054   1.730   0.571   6.411  1.7554  1.2462 -0.9760
  154SAPE   HN317055   1.599   0.674   6.451  0.6810 -0.9558 -0.1055
  154SAPE   C1217056   1.664   0.635   6.238 -0.4774  0.3350  0.9190
  154SAPE  H12A17057   1.751   0.702   6.226  0.3186 -1.0606 -2.1763
  154SAPE  H12B17058   1.576   0.688   6.195  1.5541  3.5624  0.4556
  154SAPE   C1117059   1.688   0.505   6.152 -0.4804 -0.6498  0.5119
  154SAPE  H11A17060   1.774   0.450   6.196 -0.5244  0.7058  2.4493
  154SAPE  H11B17061   1.723   0.541   6.053 -0.4382 -1.1185  0.3539
  154SAPE     P17062   1.532   0.312   6.237  0.1969 -0.0628 -0.0038
  154SAPE   O1317063   1.486   0.389   6.350  0.0266  0.1132  0.1840
  154SAPE   O1417064   1.427   0.234   6.168 -0.1413 -0.8268 -0.2060
  154SAPE   O1217065   1.581   0.414   6.128 -0.6606 -0.7544 -0.8281
  154SAPE   O1117066   1.646   0.211   6.283  0.0137  0.3662 -0.3273
  154SAPE    C117067   1.615   0.071   6.289 -0.1039  0.0710 -0.0200
  154SAPE    HA17068   1.560   0.039   6.199 -1.2635 -1.3956  1.1585
  154SAPE    HB17069   1.706   0.010   6.309 -0.1487  0.3844  1.2453
  154SAPE    C217070   1.521   0.027   6.406 -0.2369  0.0241  1.2695
  154SAPE    HS17071   1.443   0.105   6.417  0.0032  0.0264  3.3287
  154SAPE   O2117072   1.599   0.008   6.523 -0.8950 -0.3370  0.0480
  154SAPE   C2117073   1.552   0.056   6.633 -0.6704 -0.7083  0.0583
  154SAPE   O2217074   1.457   0.130   6.645 -0.0490 -0.6545  0.4048
  154SAPE   C2217075   1.625  -0.011   6.752  0.0302  0.2719  0.2396
  154SAPE   H2R17076   1.554  -0.074   6.809  0.5262 -1.2366 -0.7643
  154SAPE   H2S17077   1.709  -0.079   6.728  0.2476  0.4167  0.5777
  154SAPE    C317078   1.452  -0.102   6.354  0.0478 -0.2415 -0.1784
  154SAPE    HX17079   1.537  -0.175   6.352  1.0032  0.7772  1.0546
  154SAPE    HY17080   1.412  -0.103   6.251 -0.2695 -3.5875 -0.1399
  154SAPE   O3117081   1.355  -0.148   6.444 -0.1720 -0.1548 -0.3978
  154SAPE   C3117082   1.233  -0.089   6.443  0.1458  1.4358  0.2746
  154SAPE   O3217083   1.198   0.003   6.369 -0.0749 -0.0421 -0.7014
  154SAPE   C3217084   1.142  -0.142   6.556  0.5459  0.5356  0.8352
  154SAPE   H2X17085   1.109  -0.248   6.544  0.2048  0.6692  0.5768
  154SAPE   H2Y17086   1.052  -0.078   6.543  0.3506  0.1266  0.1023
  154SAPE   C2317087   1.673   0.103   6.850 -0.0970 -0.1193  0.4861
  154SAPE   H3R17088   1.599   0.185   6.863  0.7209  1.0118 -1.5276
  154SAPE   H3S17089   1.769   0.139   6.808 -0.4247 -1.9619 -2.1007
  154SAPE   C2417090   1.715   0.058   6.993  0.3093 -0.0344 -0.2712
  154SAPE   H4R17091   1.788  -0.025   6.993 -0.6578 -0.9309  1.8821
  154SAPE   H4S17092   1.621   0.031   7.045 -2.2928  2.7231 -3.0519
  154SAPE   C2517093   1.774   0.178   7.062  0.0419  0.4273 -0.0707
  154SAPE   H5R17094   1.782   0.266   6.996  0.5675 -0.1063 -0.7299
  154SAPE   C2617095   1.821   0.173   7.186 -0.3966  0.1790 -0.0243
  154SAPE   H6R17096   1.884   0.258   7.217  0.5901  0.2510 -2.0915
  154SAPE   C2717097   1.825   0.051   7.274 -0.6438  0.5738  0.0733
  154SAPE   H7R17098   1.782  -0.038   7.222  1.0519 -0.1016 -0.2160
  154SAPE   H7S17099   1.764   0.088   7.360 -1.8567 -1.5095  0.1851
  154SAPE   C2817100   1.973   0.016   7.303 -0.1583  0.1092 -0.1044
  154SAPE   H8R17101   2.018  -0.026   7.212 -1.8895  1.0069 -1.4598
  154SAPE   C2917102   2.033   0.025   7.424  0.1814  0.3055  0.1049
  154SAPE   H9R17103   2.143   0.029   7.424  0.1635  0.8653 -0.0273
  154SAPE  C21017104   1.982   0.083   7.553  0.4040  0.6189 -0.5953
  154SAPE  H10R17105   1.874   0.109   7.551  0.3137  0.2630 -0.4279
  154SAPE  H10S17106   2.023   0.185   7.568 -3.5136  2.4447 -1.1471
  154SAPE  C21117107   2.011  -0.015   7.671  0.5781 -0.3412 -0.0775
  154SAPE  H11R17108   2.034  -0.117   7.637  1.4437  0.1066 -0.8765
  154SAPE  C21217109   2.024   0.014   7.805  0.0785 -0.3966 -0.0222
  154SAPE  H12R17110   2.041  -0.075   7.866  1.9206  0.3056  0.5503
  154SAPE  C21317111   2.005   0.149   7.875 -0.4107 -0.8209  0.1435
  154SAPE  H13R17112   1.925   0.142   7.952  0.5592  1.2137  1.4007
  154SAPE  H13S17113   1.960   0.215   7.798  2.6330 -0.1582 -1.1829
  154SAPE  C21417114   2.130   0.210   7.931  0.4625 -0.2316 -0.1503
  154SAPE  H14R17115   2.202   0.254   7.861  0.3878  2.3941  1.2965
  154SAPE  C21517116   2.164   0.196   8.062  0.1314  0.2154  0.8951
  154SAPE  H15R17117   2.256   0.250   8.088  0.7765 -0.1271 -0.5733
  154SAPE  C21617118   2.091   0.134   8.183  0.0726  0.4963 -0.0312
  154SAPE  H16R17119   2.138   0.038   8.216  1.9107  1.1777 -0.5215
  154SAPE  H16S17120   1.986   0.112   8.156  0.5606  1.0118 -2.6069
  154SAPE  C21717121   2.090   0.225   8.307  0.0993 -1.4640  0.3739
  154SAPE  H17R17122   2.043   0.323   8.284 -0.3036 -1.3702  1.5034
  154SAPE  H17S17123   2.196   0.248   8.328 -0.2201  0.1955  0.3368
  154SAPE  C21817124   2.024   0.153   8.425 -0.5358 -0.5122  0.1614
  154SAPE  H18R17125   2.030   0.209   8.522  1.9852 -0.0892 -0.1684
  154SAPE  H18S17126   2.052   0.046   8.437  0.8904 -0.5163 -2.4170
  154SAPE  C21917127   1.875   0.141   8.399  0.0354  0.3422 -0.3453
  154SAPE  H19R17128   1.862   0.060   8.324 -1.6629 -0.2767  0.5509
  154SAPE  H19S17129   1.837   0.236   8.355 -3.5190 -0.6517  0.1942
  154SAPE  C22017130   1.785   0.111   8.523  0.0716 -0.2120  0.4920
  154SAPE  H20R17131   1.783   0.001   8.540 -0.5981 -0.0658  1.4761
  154SAPE  H20S17132   1.675   0.123   8.507 -0.2205 -2.3681  0.5022
  154SAPE  H20T17133   1.806   0.159   8.621 -0.2138 -1.6970  1.3155
  154SAPE   C3317134   1.194  -0.103   6.696 -0.0216 -0.7987 -0.2320
  154SAPE   H3X17135   1.190   0.004   6.727  3.6274 -0.2400 -1.1857
  154SAPE   H3Y17136   1.304  -0.118   6.702  0.4357  2.3827  1.2874
  154SAPE   C3417137   1.131  -0.193   6.808 -0.6225  0.4826  0.1741
  154SAPE   H4X17138   1.151  -0.299   6.783  1.8622  0.5689  1.4999
  154SAPE   H4Y17139   1.020  -0.179   6.814 -0.7856 -0.8306  0.4487
  154SAPE   C3517140   1.186  -0.174   6.952 -0.4729  0.7243  0.8075
  154SAPE   H5X17141   1.152  -0.075   6.989 -0.2683  0.5771  1.3998
  154SAPE   H5Y17142   1.296  -0.182   6.953 -0.5034 -0.0364 -0.2393
  154SAPE   C3617143   1.123  -0.272   7.051 -0.0816  0.3399  0.4092
  154SAPE   H6X17144   1.160  -0.375   7.031  1.3778  0.6483  1.4281
  154SAPE   H6Y17145   1.014  -0.280   7.033 -0.0201  2.0214 -1.0030
  154SAPE   C3717146   1.133  -0.232   7.199 -0.2179 -0.5494  0.8405
  154SAPE   H7X17147   1.085  -0.132   7.207 -2.2333 -1.4229  0.3595
  154SAPE   H7Y17148   1.240  -0.216   7.223  0.3276  0.6734 -1.9174
  154SAPE   C3817149   1.073  -0.330   7.296 -0.1888 -0.0129 -0.5312
  154SAPE   H8X17150   1.129  -0.423   7.272  0.8298  0.7111 -1.0649
  154SAPE   H8Y17151   0.965  -0.348   7.282  0.1989 -1.6740 -1.7120
  154SAPE   C3917152   1.095  -0.288   7.441 -0.0638 -0.7901 -0.1219
  154SAPE   H9X17153   1.026  -0.202   7.452 -1.0803 -1.1680 -2.6544
  154SAPE   H9Y17154   1.183  -0.233   7.479 -1.5852  0.8863  1.1566
  154SAPE  C31017155   1.067  -0.399   7.538 -0.5240  0.0735 -0.6139
  154SAPE  H10X17156   1.137  -0.483   7.520  0.4576  0.5052  0.9980
  154SAPE  H10Y17157   0.967  -0.441   7.512 -0.4158 -0.6801  0.1629
  154SAPE  C31117158   1.062  -0.367   7.691  0.2185 -0.1625 -0.5302
  154SAPE  H11X17159   0.980  -0.295   7.714 -0.9685 -2.0127  1.3156
  154SAPE  H11Y17160   1.157  -0.318   7.723  0.3125  0.5849 -1.8828
  154SAPE  C31217161   1.037  -0.484   7.784 -0.2198  0.5013 -0.2097
  154SAPE  H12X17162   1.119  -0.552   7.752 -0.9517  0.0745 -1.2274
  154SAPE  H12Y17163   0.949  -0.538   7.744  1.4096 -0.4495 -2.7949
  154SAPE  C31317164   1.022  -0.468   7.936 -0.0894  0.3314  0.5272
  154SAPE  H13X17165   1.022  -0.562   7.995 -4.0074  1.6006  2.9570
  154SAPE  H13Y17166   0.919  -0.429   7.951  0.3344  1.1654  1.4006
  154SAPE  C31417167   1.129  -0.376   7.993  0.1729 -0.2466 -0.6949
  154SAPE  H14X17168   1.112  -0.271   7.960  0.7978  0.4393  1.0348
  154SAPE  H14Y17169   1.229  -0.399   7.951  0.0242  0.5043 -1.4968
  154SAPE  C31517170   1.143  -0.380   8.145  1.0457 -0.1614  0.8155
  154SAPE  H15X17171   1.243  -0.340   8.173  1.6009 -1.4580  0.7470
  154SAPE  H15Y17172   1.155  -0.489   8.162  0.7980 -0.4531 -0.7114
  154SAPE  C31617173   1.019  -0.328   8.216  0.0670 -0.2052 -0.2264
  154SAPE  H16X17174   0.926  -0.388   8.211  0.0557 -0.1000 -1.5030
  154SAPE  H16Y17175   0.999  -0.223   8.185 -3.8877 -1.3871 -2.3969
  154SAPE  C31717176   1.042  -0.314   8.369  0.0287  0.1310 -0.5226
  154SAPE  H17X17177   1.137  -0.260   8.388 -1.3732  2.8617 -0.7680
  154SAPE  H17Y17178   1.046  -0.414   8.415  3.9352  1.5873  2.8876
  154SAPE  C31817179   0.926  -0.240   8.431 -0.0031  0.7764 -0.2039
  154SAPE  H18X17180   0.951  -0.219   8.537  1.2673 -2.2812  0.2207
  154SAPE  H18Y17181   0.836  -0.305   8.429  0.5637 -0.0309 -1.9359
  154SAPE  H18Z17182   0.895  -0.149   8.375 -0.9907  0.0581 -0.8724
  155SAPE     N17183   0.817   2.534   6.337 -0.1253 -0.0123  0.1199
  155SAPE   HN117184   0.720   2.560   6.311 -0.6020 -0.3920  1.4581
  155SAPE   HN217185   0.874   2.526   6.250  0.3971 -1.0073  0.5301
  155SAPE   HN317186   0.808   2.441   6.382  0.2179  0.3563  0.9552
  155SAPE   C1217187   0.867   2.653   6.414  0.6282  0.0507  0.2420
  155SAPE  H12A17188   0.869   2.742   6.348 -1.9612  0.7728  1.0136
  155SAPE  H12B17189   0.975   2.648   6.438  0.4582 -0.6763  0.8909
  155SAPE   C1117190   0.778   2.668   6.543  0.5749 -0.1319 -0.2448
  155SAPE  H11A17191   0.819   2.753   6.601 -3.5061  1.1582  1.1252
  155SAPE  H11B17192   0.778   2.575   6.605 -1.4407 -0.4154 -0.5885
  155SAPE     P17193   0.599   2.837   6.479  0.3050  0.0572 -0.1675
  155SAPE   O1317194   0.719   2.917   6.438 -0.0681  0.0165 -0.1849
  155SAPE   O1417195   0.485   2.819   6.379 -0.2008 -0.4884 -0.2295
  155SAPE   O1217196   0.642   2.688   6.509  0.1640  0.4076 -0.0653
  155SAPE   O1117197   0.542   2.894   6.606  0.6756  0.1338  0.3774
  155SAPE    C117198   0.606   2.995   6.686  0.2196 -0.0001  1.2028
  155SAPE    HA17199   0.706   2.959   6.719  0.8100  0.4048 -0.0785
  155SAPE    HB17200   0.618   3.095   6.639 -0.6120 -0.0950  0.7792
  155SAPE    C217201   0.526   3.031   6.813 -0.6528  0.4430 -0.0879
  155SAPE    HS17202   0.464   3.121   6.790  1.2538  2.0257  0.7429
  155SAPE   O2117203   0.617   3.069   6.921  0.4117 -0.1821  0.2597
  155SAPE   C2117204   0.692   3.182   6.906  0.4069  0.5120 -0.8232
  155SAPE   O2217205   0.684   3.262   6.816  0.1638 -0.1149 -0.4051
  155SAPE   C2217206   0.786   3.185   7.023  0.3242 -0.6845  0.0450
  155SAPE   H2R17207   0.748   3.119   7.104  0.4744  0.7107  1.2850
  155SAPE   H2S17208   0.883   3.151   6.979 -0.5786 -1.4083 -1.4961
  155SAPE    C317209   0.434   2.917   6.862  0.2789  0.2739 -0.5938
  155SAPE    HX17210   0.503   2.831   6.855  0.0221  0.1819 -2.6370
  155SAPE    HY17211   0.353   2.904   6.787  1.3941  2.2111 -2.2308
  155SAPE   O3117212   0.383   2.937   7.003  0.3022 -0.3279 -0.2726
  155SAPE   C3117213   0.256   2.986   7.016 -0.9819  0.8845 -0.1431
  155SAPE   O3217214   0.193   3.041   6.930 -0.6839 -0.0053  0.2141
  155SAPE   C3217215   0.210   2.958   7.159 -0.4377 -0.4810 -0.4302
  155SAPE   H2X17216   0.111   3.006   7.175  0.0091 -0.1027  1.4143
  155SAPE   H2Y17217   0.287   2.993   7.231 -1.5210  0.3541  0.3669
  155SAPE   C2317218   0.801   3.330   7.082  0.1770  0.2919  0.0719
  155SAPE   H3R17219   0.774   3.417   7.018  2.1886  0.4582 -0.6102
  155SAPE   H3S17220   0.910   3.345   7.098 -0.1238  0.9446  1.7713
  155SAPE   C2417221   0.738   3.349   7.227  0.3918 -0.4204  0.0850
  155SAPE   H4R17222   0.637   3.311   7.203  0.4991 -1.2534  0.9051
  155SAPE   H4S17223   0.724   3.456   7.253 -0.0156 -0.8607  1.7905
  155SAPE   C2517224   0.809   3.268   7.340 -0.1420  0.0385 -0.2927
  155SAPE   H5R17225   0.892   3.325   7.385  0.2580 -0.9146  0.2079
  155SAPE   C2617226   0.774   3.149   7.393 -0.0841  0.1958 -0.1206
  155SAPE   H6R17227   0.843   3.097   7.461  0.0935 -1.3633 -1.4282
  155SAPE   C2717228   0.655   3.068   7.360  0.7654  0.0462  0.1997
  155SAPE   H7R17229   0.597   3.125   7.283  1.0403 -0.5995 -0.4982
  155SAPE   H7S17230   0.588   3.084   7.447 -0.6757 -1.1071 -0.6684
  155SAPE   C2817231   0.678   2.928   7.318  0.0758 -0.0446 -0.1053
  155SAPE   H8R17232   0.665   2.909   7.210 -1.1617 -1.7998  0.3220
  155SAPE   C2917233   0.695   2.819   7.394 -0.5846  0.1811 -0.4096
  155SAPE   H9R17234   0.705   2.719   7.350  0.4468 -0.0655  0.3430
  155SAPE  C21017235   0.713   2.804   7.538 -0.5206  0.1197  0.2257
  155SAPE  H10R17236   0.763   2.895   7.577  2.0797 -0.9422 -0.4552
  155SAPE  H10S17237   0.792   2.727   7.552  0.7483  0.8930 -2.1836
  155SAPE  C21117238   0.585   2.784   7.612  0.9351 -0.0482 -0.5383
  155SAPE  H11R17239   0.501   2.852   7.589  2.4619  1.9633 -0.4676
  155SAPE  C21217240   0.556   2.696   7.714 -0.0434  0.0907  0.9654
  155SAPE  H12R17241   0.455   2.695   7.758 -1.3692  0.7145 -1.8243
  155SAPE  C21317242   0.658   2.598   7.763  0.1245  0.3258  0.4313
  155SAPE  H13R17243   0.751   2.652   7.790 -0.7695  1.7284  0.7608
  155SAPE  H13S17244   0.678   2.521   7.685 -0.6564 -2.2854  2.6254
  155SAPE  C21417245   0.616   2.513   7.883 -0.2508  0.0712  0.4005
  155SAPE  H14R17246   0.570   2.416   7.858 -0.7111  0.8252 -1.9892
  155SAPE  C21517247   0.625   2.552   8.012  0.0919  0.9084 -0.1389
  155SAPE  H15R17248   0.586   2.484   8.089 -1.4481  1.0176 -0.7822
  155SAPE  C21617249   0.671   2.687   8.057  0.6068  0.2483 -0.0168
  155SAPE  H16R17250   0.593   2.758   8.023  1.3471  1.8336  1.4167
  155SAPE  H16S17251   0.768   2.714   8.009  0.8957 -2.9781 -1.5146
  155SAPE  C21717252   0.714   2.682   8.207  0.0809  0.5051 -0.0938
  155SAPE  H17R17253   0.787   2.600   8.224 -2.2319 -1.0795  3.4027
  155SAPE  H17S17254   0.621   2.661   8.264  0.1266 -0.0776 -0.2282
  155SAPE  C21817255   0.775   2.809   8.263 -0.4889 -0.5210 -0.3328
  155SAPE  H18R17256   0.875   2.824   8.216 -0.6364  1.2589 -0.1485
  155SAPE  H18S17257   0.774   2.803   8.373 -2.1555 -1.1378 -0.3547
  155SAPE  C21917258   0.685   2.927   8.242 -0.1729  0.1107 -0.3668
  155SAPE  H19R17259   0.665   2.940   8.133  0.2692 -1.1688 -0.6205
  155SAPE  H19S17260   0.739   3.019   8.274  0.3742 -0.4354  0.3178
  155SAPE  C22017261   0.557   2.922   8.314 -0.7854 -0.2850 -0.1082
  155SAPE  H20R17262   0.519   2.818   8.316 -0.1607 -0.5422 -0.9173
  155SAPE  H20S17263   0.480   2.985   8.265 -1.3314  0.4360  1.5772
  155SAPE  H20T17264   0.576   2.951   8.420  1.0602  2.5690 -1.0758
  155SAPE   C3317265   0.192   2.809   7.181 -0.7396  0.2352  0.2460
  155SAPE   H3X17266   0.285   2.757   7.149 -0.3574  1.9145 -1.5395
  155SAPE   H3Y17267   0.114   2.772   7.111 -0.2579 -0.9056  0.2942
  155SAPE   C3417268   0.152   2.792   7.323 -0.2188 -0.0666 -0.2685
  155SAPE   H4X17269   0.106   2.691   7.331  0.5255 -0.6990 -2.9429
  155SAPE   H4Y17270   0.079   2.870   7.352 -1.1513 -1.0043 -0.0588
  155SAPE   C3517271   0.270   2.783   7.427  0.3338 -0.1220 -0.2482
  155SAPE   H5X17272   0.320   2.881   7.436  0.7594 -0.1070 -2.4094
  155SAPE   H5Y17273   0.347   2.706   7.405  0.1565 -0.9386  1.7675
  155SAPE   C3617274   0.200   2.738   7.563  0.5634 -0.0207 -1.0351
  155SAPE   H6X17275   0.283   2.709   7.631 -0.3688  0.7832  0.4965
  155SAPE   H6Y17276   0.145   2.642   7.569 -2.6566  1.7384 -0.2669
  155SAPE   C3717277   0.121   2.856   7.627 -0.1130 -0.1309  0.5084
  155SAPE   H7X17278   0.106   2.808   7.726  0.2130  0.4552  0.8444
  155SAPE   H7Y17279   0.020   2.877   7.586  0.4407 -0.7627 -1.2681
  155SAPE   C3817280   0.202   2.987   7.635 -0.4673  0.0045 -0.8325
  155SAPE   H8X17281   0.207   3.050   7.544  0.7324  0.8688 -0.1915
  155SAPE   H8Y17282   0.303   2.953   7.666 -0.6445  1.6722  1.8541
  155SAPE   C3917283   0.157   3.081   7.753  0.1064  0.8442 -0.4661
  155SAPE   H9X17284   0.224   3.167   7.734 -0.7288  1.2753 -1.6015
  155SAPE   H9Y17285   0.178   3.033   7.851 -0.3255 -1.0804 -1.2821
  155SAPE  C31017286   0.011   3.131   7.749  0.5392 -0.1288 -0.0355
  155SAPE  H10X17287  -0.047   3.040   7.776  3.0094 -2.3191 -1.5976
  155SAPE  H10Y17288  -0.018   3.148   7.643 -0.3642 -3.2264 -0.3858
  155SAPE  C31117289  -0.022   3.245   7.843 -0.3422  0.4564 -1.1599
  155SAPE  H11X17290  -0.128   3.274   7.822  0.3144  4.2783  0.0371
  155SAPE  H11Y17291   0.046   3.331   7.823 -1.0890  1.2234 -0.4946
  155SAPE  C31217292  -0.008   3.205   7.993  0.2309 -0.1963  0.3178
  155SAPE  H12X17293   0.100   3.205   8.018  0.8557  0.0988 -2.1695
  155SAPE  H12Y17294  -0.046   3.102   8.010  0.6424 -0.0925  2.0272
  155SAPE  C31317295  -0.068   3.308   8.092 -0.1661  0.0235 -0.7384
  155SAPE  H13X17296  -0.171   3.335   8.061  0.8790  2.5616 -2.3207
  155SAPE  H13Y17297  -0.008   3.402   8.085 -0.4832  0.2531 -0.4175
  155SAPE  C31417298  -0.063   3.265   8.236  0.5978  0.4000 -0.8190
  155SAPE  H14X17299   0.035   3.214   8.246 -0.5730 -1.5749  1.5418
  155SAPE  H14Y17300  -0.142   3.191   8.259  1.1669 -0.4039 -1.4090
  155SAPE  C31517301  -0.073   3.381   8.337 -0.1865 -0.2772 -0.4029
  155SAPE  H15X17302  -0.178   3.415   8.342 -0.5411 -1.4636  3.1182
  155SAPE  H15Y17303  -0.010   3.463   8.296  0.2663 -1.2965 -1.8126
  155SAPE  C31617304  -0.026   3.357   8.482  0.3176 -0.9099 -0.9652
  155SAPE  H16X17305   0.067   3.297   8.488  1.7097  1.1622 -0.7630
  155SAPE  H16Y17306  -0.102   3.287   8.524  0.8081 -1.5165 -1.0711
  155SAPE  C31717307  -0.005   3.487   8.562  0.0204  0.1776  0.1927
  155SAPE  H17X17308  -0.100   3.544   8.557  0.4731  0.9667  0.3465
  155SAPE  H17Y17309   0.071   3.547   8.507 -0.3750  0.0528 -0.4955
  155SAPE  C31817310   0.047   3.475   8.708  0.0291 -0.8281  0.1745
  155SAPE  H18X17311  -0.033   3.440   8.777  0.3517 -0.4275  0.7544
  155SAPE  H18Y17312   0.078   3.575   8.747  2.0814 -1.0777 -0.7145
  155SAPE  H18Z17313   0.136   3.410   8.721  0.3541 -0.1631  1.4491
  156SAPE     N17314   5.516   3.101   6.443  0.2190 -0.2720  0.4664
  156SAPE   HN117315   5.512   3.205   6.443 -0.8507 -0.3000  1.3483
  156SAPE   HN217316   5.507   3.088   6.341  0.4597  0.6574  0.3168
  156SAPE   HN317317   5.440   3.056   6.498 -0.4224  0.6942  0.3971
  156SAPE   C1217318   5.651   3.063   6.483 -0.2511  0.5742 -0.1901
  156SAPE  H12A17319   5.664   3.104   6.586 -0.5492 -1.8179  0.8564
  156SAPE  H12B17320   5.730   3.093   6.412  1.4406 -0.6613  1.0980
  156SAPE   C1117321   5.668   2.910   6.491  0.6065 -0.5740 -0.5710
  156SAPE  H11A17322   5.602   2.869   6.571  1.4708 -1.3314 -0.2282
  156SAPE  H11B17323   5.769   2.887   6.531 -0.1384 -0.2839  1.6095
  156SAPE     P17324   5.746   2.804   6.263 -0.4522 -0.0403 -0.1827
  156SAPE   O1317325   5.683   2.709   6.169  0.5465  0.3059  0.1817
  156SAPE   O1417326   5.808   2.924   6.207  0.2783  0.3498  0.5200
  156SAPE   O1217327   5.633   2.846   6.366 -0.1509 -0.3819  0.2805
  156SAPE   O1117328   5.859   2.728   6.346 -0.1998 -0.2674  0.2709
  156SAPE    C117329   5.823   2.593   6.382 -0.6998 -0.2689  0.1753
  156SAPE    HA17330   5.756   2.541   6.311  0.2111 -0.9653 -0.2043
  156SAPE    HB17331   5.914   2.529   6.393  0.0512  0.4884 -1.3110
  156SAPE    C217332   5.739   2.577   6.507  0.1128  0.0715 -0.0183
  156SAPE    HS17333   5.637   2.621   6.498  1.1822  2.5315 -0.7593
  156SAPE   O2117334   5.810   2.649   6.609 -0.6242 -0.6955 -0.2281
  156SAPE   C2117335   5.752   2.673   6.721  0.7981  0.6067 -0.5191
  156SAPE   O2217336   5.634   2.648   6.760 -0.0643  0.6339  0.0342
  156SAPE   C2217337   5.855   2.738   6.817  0.3907 -0.5705 -0.3459
  156SAPE   H2R17338   5.957   2.708   6.785  1.0184  1.4018 -0.3273
  156SAPE   H2S17339   5.861   2.847   6.793 -0.0838 -0.0955  1.5672
  156SAPE    C317340   5.728   2.423   6.549  0.3765  0.1098 -0.9378
  156SAPE    HX17341   5.701   2.377   6.452  3.0738  0.1781 -1.7990
  156SAPE    HY17342   5.656   2.406   6.633  1.8131  0.2222  0.3588
  156SAPE   O3117343   5.863   2.378   6.589 -0.4019  0.6975 -0.3679
  156SAPE   C3117344   5.881   2.360   6.724  0.5239 -0.7919 -1.0857
  156SAPE   O3217345   5.790   2.384   6.807 -0.1390 -0.2963  0.3079
  156SAPE   C3217346   6.022   2.316   6.753 -0.1955  0.5184  0.3130
  156SAPE   H2X17347   6.080   2.410   6.744 -1.1690  1.0499 -0.5411
  156SAPE   H2Y17348   6.054   2.248   6.672 -0.2935  0.0537  0.6584
  156SAPE   C2317349   5.809   2.748   6.964  0.1142 -0.0320  0.9909
  156SAPE   H3R17350   5.813   2.651   7.016  1.4073  0.1821  1.3249
  156SAPE   H3S17351   5.703   2.778   6.974  0.2433  0.8630 -0.0942
  156SAPE   C2417352   5.897   2.835   7.053 -0.4743 -0.5205 -0.3908
  156SAPE   H4R17353   5.866   2.836   7.160 -3.4314 -1.3661 -1.1404
  156SAPE   H4S17354   5.889   2.944   7.035 -2.0812 -0.8433 -1.9742
  156SAPE   C2517355   6.041   2.809   7.032 -0.5746 -0.0661 -0.3396
  156SAPE   H5R17356   6.078   2.876   6.954  0.2609  1.4428  1.2786
  156SAPE   C2617357   6.117   2.707   7.082  0.3281  0.7789 -0.7339
  156SAPE   H6R17358   6.221   2.694   7.048 -0.3321 -3.2900 -1.7643
  156SAPE   C2717359   6.064   2.601   7.182  0.6783 -0.1380 -0.5532
  156SAPE   H7R17360   5.988   2.539   7.129 -0.3801 -0.5522  1.3755
  156SAPE   H7S17361   6.008   2.645   7.266 -1.2656  0.1950 -1.9471
  156SAPE   C2817362   6.178   2.509   7.231 -0.5068  0.2006 -0.7943
  156SAPE   H8R17363   6.228   2.458   7.147  0.0365  0.4440 -0.6243
  156SAPE   C2917364   6.218   2.502   7.358 -0.1697 -0.2119 -0.7344
  156SAPE   H9R17365   6.292   2.425   7.385 -0.2794 -0.4082 -0.9914
  156SAPE  C21017366   6.156   2.574   7.479 -0.0127 -0.0318  0.2708
  156SAPE  H10R17367   6.045   2.571   7.486 -0.0929  1.9467  0.3536
  156SAPE  H10S17368   6.172   2.683   7.464  1.6151 -0.4913 -1.6680
  156SAPE  C21117369   6.218   2.543   7.614  0.3294 -0.3877 -0.3017
  156SAPE  H11R17370   6.322   2.509   7.607  0.8579  1.2927 -1.2955
  156SAPE  C21217371   6.168   2.574   7.739  0.0489  0.6945 -0.1603
  156SAPE  H12R17372   6.211   2.536   7.833 -1.1807  1.5081  0.7726
  156SAPE  C21317373   6.033   2.640   7.765  0.3260  0.6383  0.3086
  156SAPE  H13R17374   5.991   2.664   7.665  3.2163 -0.9882 -1.4254
  156SAPE  H13S17375   6.039   2.737   7.819  0.8498  2.4034 -2.7407
  156SAPE  C21417376   5.940   2.543   7.831  1.0869 -0.3102  0.6966
  156SAPE  H14R17377   5.912   2.473   7.751  2.7883  2.2720 -2.4450
  156SAPE  C21517378   5.912   2.538   7.963  0.1906  0.4500  0.4069
  156SAPE  H15R17379   5.851   2.453   7.996  1.1681 -0.3190  0.2689
  156SAPE  C21617380   5.975   2.632   8.069 -0.8034 -0.4715 -0.6679
  156SAPE  H16R17381   5.893   2.698   8.105  0.2821  0.3636  0.3612
  156SAPE  H16S17382   6.058   2.692   8.025  1.4327 -2.8493  0.0725
  156SAPE  C21717383   5.999   2.557   8.194 -0.6089 -0.2566  0.1257
  156SAPE  H17R17384   6.092   2.497   8.190  0.0647  0.7016  0.8454
  156SAPE  H17S17385   5.916   2.487   8.215  0.6914 -1.5973  0.9389
  156SAPE  C21817386   6.023   2.644   8.314 -0.1803 -0.0962 -0.5710
  156SAPE  H18R17387   5.934   2.709   8.321 -0.4966 -0.2350 -2.6105
  156SAPE  H18S17388   6.111   2.709   8.291  0.3618 -0.9999 -1.1145
  156SAPE  C21917389   6.047   2.575   8.450  0.4691  0.8975  0.6228
  156SAPE  H19R17390   6.125   2.498   8.434 -1.2043 -0.5822 -1.0798
  156SAPE  H19S17391   5.952   2.518   8.464 -0.0180  1.4091 -0.4520
  156SAPE  C22017392   6.088   2.668   8.564 -0.5905  0.1289 -0.2120
  156SAPE  H20R17393   5.999   2.701   8.623 -0.3419 -0.6190  0.6130
  156SAPE  H20S17394   6.144   2.759   8.532 -1.8490 -0.2344 -3.9226
  156SAPE  H20T17395   6.159   2.622   8.636  0.0890  0.7317 -0.4856
  156SAPE   C3317396   6.028   2.222   6.883  0.6280 -0.3600  0.1156
  156SAPE   H3X17397   5.948   2.146   6.869  0.7674 -0.9043  2.0491
  156SAPE   H3Y17398   6.004   2.274   6.979 -1.5395 -0.9921 -0.0293
  156SAPE   C3417399   6.169   2.161   6.911  1.0166  0.9414  0.0981
  156SAPE   H4X17400   6.238   2.244   6.937  1.3486  0.9366 -0.7374
  156SAPE   H4Y17401   6.211   2.122   6.816 -0.5286  2.4967 -1.2906
  156SAPE   C3517402   6.163   2.051   7.023 -0.1154  0.0369  0.1015
  156SAPE   H5X17403   6.261   1.997   7.029  0.9780  1.8370 -0.8838
  156SAPE   H5Y17404   6.075   1.983   7.018 -1.1002  1.3299 -0.5946
  156SAPE   C3617405   6.139   2.118   7.158 -0.0369 -0.2145 -0.5336
  156SAPE   H6X17406   6.030   2.139   7.151 -0.6027 -2.4832  0.4709
  156SAPE   H6Y17407   6.201   2.206   7.183 -1.5306  1.7842 -3.2365
  156SAPE   C3717408   6.137   2.016   7.276 -0.1249 -0.5070  0.2844
  156SAPE   H7X17409   6.232   1.959   7.264 -0.3094 -1.1469  1.6218
  156SAPE   H7Y17410   6.055   1.943   7.257  0.8353 -0.9962 -2.5210
  156SAPE   C3817411   6.127   2.078   7.417 -0.1692 -0.5871 -0.1398
  156SAPE   H8X17412   6.043   2.151   7.425  1.0803  0.9933 -0.9888
  156SAPE   H8Y17413   6.213   2.148   7.416 -0.1044 -0.6673 -0.1566
  156SAPE   C3917414   6.122   1.973   7.534  0.2255  0.0151  0.3172
  156SAPE   H9X17415   6.219   1.920   7.535  0.3579  0.1867 -1.3667
  156SAPE   H9Y17416   6.040   1.903   7.509 -0.8796  0.7143  1.7796
  156SAPE  C31017417   6.078   2.041   7.671  0.3577  0.6063 -0.7256
  156SAPE  H10X17418   6.042   1.956   7.733 -0.5507  0.2088 -1.7661
  156SAPE  H10Y17419   5.992   2.109   7.657  1.5947  2.5299  0.5295
  156SAPE  C31117420   6.194   2.114   7.735 -0.1208 -0.3024  0.0118
  156SAPE  H11X17421   6.209   2.209   7.680  2.8606 -1.2904 -1.0997
  156SAPE  H11Y17422   6.281   2.049   7.711  1.0457 -0.0879  3.1917
  156SAPE  C31217423   6.176   2.149   7.882 -0.0524  0.6413  0.4513
  156SAPE  H12X17424   6.157   2.049   7.926  1.6804  0.6344  1.2455
  156SAPE  H12Y17425   6.082   2.204   7.901 -1.3087 -1.1623 -0.3054
  156SAPE  C31317426   6.287   2.223   7.942 -0.2058 -0.8411 -0.6371
  156SAPE  H13X17427   6.329   2.307   7.883  0.9099 -0.6316  0.4265
  156SAPE  H13Y17428   6.378   2.159   7.930  0.1618 -0.1479 -1.7280
  156SAPE  C31417429   6.270   2.253   8.092 -0.6579  0.4144 -0.7752
  156SAPE  H14X17430   6.261   2.162   8.155 -1.3179  0.1347 -1.2568
  156SAPE  H14Y17431   6.171   2.302   8.100 -0.7151  0.2114 -0.1989
  156SAPE  C31517432   6.353   2.369   8.146 -0.2575  0.0463 -0.0158
  156SAPE  H15X17433   6.317   2.401   8.246  2.4111  0.2087  0.9716
  156SAPE  H15Y17434   6.349   2.460   8.082  0.2094  1.6359  2.1131
  156SAPE  C31617435   6.494   2.319   8.164 -0.0250 -0.8011  0.3445
  156SAPE  H16X17436   6.533   2.298   8.062  1.3265 -3.1444  1.2695
  156SAPE  H16Y17437   6.513   2.234   8.233  1.5939 -0.6946  0.0608
  156SAPE  C31717438   6.566   2.443   8.223 -0.1674 -0.2592 -0.1304
  156SAPE  H17X17439   6.513   2.455   8.321  0.0624 -0.7974  0.0615
  156SAPE  H17Y17440   6.549   2.540   8.171  1.4721  1.4558  2.2716
  156SAPE  C31817441   6.709   2.411   8.244 -0.5609  0.3127  0.2128
  156SAPE  H18X17442   6.765   2.421   8.149 -1.3898 -2.5454 -0.6778
  156SAPE  H18Y17443   6.716   2.315   8.300 -2.9731 -0.0481  0.0203
  156SAPE  H18Z17444   6.749   2.487   8.314 -0.0415 -1.0118  1.4064
  157SAPE     N17445   3.101   4.801   6.262  0.1879 -0.1399 -0.5462
  157SAPE   HN117446   3.190   4.836   6.301  0.1182 -0.8240  0.2491
  157SAPE   HN217447   3.125   4.726   6.194 -0.0369 -0.0008 -0.7848
  157SAPE   HN317448   3.049   4.874   6.209 -1.5090  0.1745  1.4475
  157SAPE   C1217449   3.011   4.747   6.366 -0.1688  0.1257  0.1497
  157SAPE  H12A17450   2.913   4.720   6.321 -0.6096  0.1381  1.0709
  157SAPE  H12B17451   3.000   4.818   6.451  0.1762  0.0831  0.2325
  157SAPE   C1117452   3.091   4.625   6.435 -0.2626  0.2843  0.1360
  157SAPE  H11A17453   3.041   4.588   6.526 -2.1539  2.4417  0.0815
  157SAPE  H11B17454   3.187   4.665   6.474 -0.4447  1.4984 -0.6012
  157SAPE     P17455   2.988   4.413   6.315 -0.2035  0.3665 -0.5302
  157SAPE   O1317456   2.859   4.483   6.321 -0.2045 -0.0844 -0.5604
  157SAPE   O1417457   3.011   4.332   6.191 -0.3980  0.2119 -0.3653
  157SAPE   O1217458   3.107   4.511   6.345  0.1186 -0.2729 -0.2300
  157SAPE   O1117459   2.981   4.321   6.437 -0.0481 -0.0060  0.0358
  157SAPE    C117460   3.094   4.249   6.493 -0.1017 -0.2914  0.5855
  157SAPE    HA17461   3.183   4.253   6.426 -1.1677  1.2839 -0.8283
  157SAPE    HB17462   3.121   4.294   6.591 -0.9166 -1.6452  1.4618
  157SAPE    C217463   3.059   4.101   6.523  0.6797  0.3525 -0.2633
  157SAPE    HS17464   3.030   4.056   6.426 -3.6357  0.8504  0.5809
  157SAPE   O2117465   2.951   4.082   6.623 -0.2979  0.5658  0.2014
  157SAPE   C2117466   2.885   3.974   6.618 -0.3138  0.2945  0.0593
  157SAPE   O2217467   2.900   3.880   6.539 -0.0084  0.4257  0.4238
  157SAPE   C2217468   2.805   3.963   6.749 -0.1855  0.4164 -0.0431
  157SAPE   H2R17469   2.859   3.884   6.807  1.5377  1.5715 -0.0096
  157SAPE   H2S17470   2.806   4.060   6.803  0.8758  0.0305  0.6706
  157SAPE    C317471   3.185   4.032   6.578  0.2985 -0.0751 -0.2130
  157SAPE    HX17472   3.268   4.064   6.512 -0.8429 -0.2257 -1.7911
  157SAPE    HY17473   3.155   3.925   6.570 -2.2930  0.5886 -0.2860
  157SAPE   O3117474   3.229   4.073   6.711 -0.1924  0.0568 -0.0551
  157SAPE   C3117475   3.219   3.979   6.811  0.5524 -0.0225  0.3446
  157SAPE   O3217476   3.151   3.880   6.805 -0.2740  0.2398  0.3263
  157SAPE   C3217477   3.308   4.018   6.930  0.3605 -0.1194 -0.0200
  157SAPE   H2X17478   3.374   4.101   6.894  1.3614 -0.9238 -0.0732
  157SAPE   H2Y17479   3.374   3.931   6.948  0.6493  0.1763  0.3788
  157SAPE   C2317480   2.666   3.907   6.709 -0.5458 -0.7961 -0.7152
  157SAPE   H3R17481   2.685   3.808   6.663 -0.5623 -0.0247 -2.4345
  157SAPE   H3S17482   2.628   3.984   6.639  3.0330  0.9577 -0.9431
  157SAPE   C2417483   2.572   3.879   6.829 -0.3207 -0.3456  0.2559
  157SAPE   H4R17484   2.478   3.850   6.777 -0.0751 -0.4088 -0.1579
  157SAPE   H4S17485   2.546   3.979   6.870  0.6011 -0.3117  0.7947
  157SAPE   C2517486   2.606   3.779   6.941 -0.5441  0.0017  0.5427
  157SAPE   H5R17487   2.597   3.674   6.909  2.7744  0.4462 -2.3666
  157SAPE   C2617488   2.618   3.807   7.069 -0.0834 -1.2031 -0.1262
  157SAPE   H6R17489   2.673   3.731   7.127  1.4131  0.1497  0.3038
  157SAPE   C2717490   2.623   3.949   7.139  0.2212  0.0484  0.4700
  157SAPE   H7R17491   2.531   3.964   7.200 -0.3101 -1.3630  0.0682
  157SAPE   H7S17492   2.621   4.027   7.059 -0.4180 -2.3965 -2.0529
  157SAPE   C2817493   2.747   3.967   7.228  0.9358 -0.0499  0.6721
  157SAPE   H8R17494   2.843   3.979   7.176  2.1961  1.9996  3.2420
  157SAPE   C2917495   2.753   3.979   7.360  0.1589  0.7490  0.6659
  157SAPE   H9R17496   2.851   3.988   7.410  1.4013 -1.3437 -1.1720
  157SAPE  C21017497   2.635   3.957   7.454 -0.0797  0.0054 -0.3999
  157SAPE  H10R17498   2.551   3.893   7.419 -0.3059 -0.5783  1.1220
  157SAPE  H10S17499   2.602   4.063   7.457  0.3410  0.1228  0.4579
  157SAPE  C21117500   2.674   3.912   7.592 -0.9165 -0.3203 -0.1172
  157SAPE  H11R17501   2.752   3.835   7.592 -1.6879 -1.1703  1.7254
  157SAPE  C21217502   2.618   3.949   7.710 -0.4303  0.3528  0.2468
  157SAPE  H12R17503   2.665   3.904   7.799 -1.5368 -2.9935 -0.7189
  157SAPE  C21317504   2.512   4.056   7.730  0.0326  0.5975  0.4926
  157SAPE  H13R17505   2.419   4.016   7.684  1.0809 -1.5728  0.1365
  157SAPE  H13S17506   2.534   4.143   7.664  0.3068 -1.3578 -2.1602
  157SAPE  C21417507   2.473   4.111   7.871 -1.0410  0.2188 -0.1220
  157SAPE  H14R17508   2.557   4.128   7.940 -1.0510 -1.6457  0.4145
  157SAPE  C21517509   2.354   4.158   7.916 -0.4232 -0.7869  0.2689
  157SAPE  H15R17510   2.354   4.188   8.021 -0.7530 -0.0329  0.0589
  157SAPE  C21617511   2.228   4.173   7.835 -0.3199 -0.5870  0.0232
  157SAPE  H16R17512   2.136   4.165   7.895  0.7010  0.7092  1.8456
  157SAPE  H16S17513   2.234   4.084   7.769  3.3249  0.1839 -0.9515
  157SAPE  C21717514   2.222   4.306   7.754 -0.0721 -0.3706  0.0825
  157SAPE  H17R17515   2.321   4.332   7.713 -0.6362  1.5640 -0.1384
  157SAPE  H17S17516   2.184   4.384   7.823  2.0279 -1.7019  2.9589
  157SAPE  C21817517   2.127   4.305   7.628  0.1243 -0.4343 -0.4395
  157SAPE  H18R17518   2.038   4.360   7.665  1.0573 -0.9888  2.9669
  157SAPE  H18S17519   2.109   4.198   7.605  2.4152 -0.4989 -2.1990
  157SAPE  C21917520   2.193   4.352   7.509  0.5586 -0.2079  1.2482
  157SAPE  H19R17521   2.285   4.292   7.497 -0.3916 -1.5046  0.2571
  157SAPE  H19S17522   2.225   4.459   7.515 -2.2956  0.7219  1.5560
  157SAPE  C22017523   2.102   4.335   7.379 -0.8907  0.6496 -0.1061
  157SAPE  H20R17524   2.159   4.369   7.289  0.3399 -2.1719 -0.5062
  157SAPE  H20S17525   2.014   4.401   7.389 -1.1234  0.0989  1.8393
  157SAPE  H20T17526   2.062   4.231   7.375 -0.8281  0.6247 -0.1003
  157SAPE   C3317527   3.226   4.066   7.051 -0.2281 -0.5011  0.1828
  157SAPE   H3X17528   3.298   4.067   7.136 -0.5080 -2.3590  0.4912
  157SAPE   H3Y17529   3.147   3.994   7.081  1.1422 -1.3434  2.0034
  157SAPE   C3417530   3.181   4.209   7.024 -0.1073  0.7750  0.7470
  157SAPE   H4X17531   3.146   4.204   6.919  0.5588 -2.0325  0.5775
  157SAPE   H4Y17532   3.272   4.272   7.015  1.2299 -1.3250 -1.5954
  157SAPE   C3517533   3.075   4.249   7.127  0.2056 -0.4209 -0.0312
  157SAPE   H5X17534   3.001   4.166   7.123 -0.9462  0.5016  1.2464
  157SAPE   H5Y17535   3.031   4.345   7.094 -1.2378 -1.1550 -0.3489
  157SAPE   C3617536   3.134   4.255   7.262  0.4419 -0.5944 -0.9026
  157SAPE   H6X17537   3.231   4.310   7.261 -0.1808  0.5447 -2.2684
  157SAPE   H6Y17538   3.176   4.157   7.294  1.2402 -0.1651 -0.6155
  157SAPE   C3717539   3.040   4.305   7.370 -0.3519  0.9360  0.7131
  157SAPE   H7X17540   2.958   4.232   7.386  0.6455 -0.0644  1.4397
  157SAPE   H7Y17541   2.988   4.400   7.346 -2.3677  0.2927  2.2516
  157SAPE   C3817542   3.114   4.318   7.503 -0.9918 -0.0754 -0.1947
  157SAPE   H8X17543   3.206   4.376   7.481 -1.4278  0.7538  0.1369
  157SAPE   H8Y17544   3.153   4.219   7.536  0.6721  0.3798 -0.7111
  157SAPE   C3917545   3.027   4.361   7.615  0.4946  0.1526  0.2203
  157SAPE   H9X17546   2.972   4.455   7.590 -0.2315 -0.2391  0.3321
  157SAPE   H9Y17547   3.097   4.399   7.692  1.7111 -2.5959  0.5701
  157SAPE  C31017548   2.938   4.251   7.679  0.0075 -0.7023 -0.1852
  157SAPE  H10X17549   2.880   4.199   7.600 -1.6074  0.2901  0.2966
  157SAPE  H10Y17550   2.892   4.304   7.765  2.7621  0.7659  0.5206
  157SAPE  C31117551   3.017   4.143   7.756  0.2010  0.0300 -0.4044
  157SAPE  H11X17552   3.094   4.195   7.816  0.0318  0.5952 -0.6735
  157SAPE  H11Y17553   3.060   4.071   7.683  4.5634  2.6665 -0.7729
  157SAPE  C31217554   2.932   4.056   7.858 -0.0556  0.1194  0.2134
  157SAPE  H12X17555   2.998   3.989   7.917 -1.0197 -0.1867  0.9835
  157SAPE  H12Y17556   2.864   3.988   7.802  1.3503 -1.4257  0.2984
  157SAPE  C31317557   2.854   4.136   7.959 -0.1007 -1.2360  0.8473
  157SAPE  H13X17558   2.771   4.190   7.909  1.2608 -0.1640 -0.3068
  157SAPE  H13Y17559   2.912   4.225   7.991  1.4451 -1.3354 -1.5018
  157SAPE  C31417560   2.804   4.055   8.081  0.2885  0.0072  0.2341
  157SAPE  H14X17561   2.893   3.996   8.112 -1.5708 -2.1142  1.8413
  157SAPE  H14Y17562   2.725   3.984   8.051  0.5530 -0.3651  0.4005
  157SAPE  C31517563   2.756   4.129   8.203 -0.2913  0.2065  0.7095
  157SAPE  H15X17564   2.653   4.167   8.193  0.4133  1.7103 -1.7167
  157SAPE  H15Y17565   2.816   4.222   8.214  1.1784 -0.5905 -0.1299
  157SAPE  C31617566   2.776   4.030   8.323  0.3970 -0.2742 -0.4222
  157SAPE  H16X17567   2.885   4.014   8.342  0.4084  0.0554 -0.1885
  157SAPE  H16Y17568   2.725   3.937   8.291 -2.7631  0.2374  2.5368
  157SAPE  C31717569   2.703   4.084   8.442  0.3738 -0.1574 -1.1319
  157SAPE  H17X17570   2.593   4.095   8.426  0.4247  1.2141 -0.6375
  157SAPE  H17Y17571   2.745   4.182   8.471 -2.0852  0.9826 -1.2035
  157SAPE  C31817572   2.729   3.990   8.551  0.8568  0.0958  1.1323
  157SAPE  H18X17573   2.693   3.892   8.516  0.1890  0.9353 -0.6655
  157SAPE  H18Y17574   2.685   4.032   8.644  0.2583 -0.1803  0.9766
  157SAPE  H18Z17575   2.836   3.977   8.580  0.8145 -0.0288  1.2293
  158SAPE     N17576   3.420   2.321   6.198 -0.0969  0.2333  0.1305
  158SAPE   HN117577   3.362   2.296   6.116 -0.4654 -0.3784  0.5682
  158SAPE   HN217578   3.390   2.414   6.236 -1.2971  0.1935 -0.6641
  158SAPE   HN317579   3.519   2.324   6.165 -0.0830  0.5691  0.1927
  158SAPE   C1217580   3.400   2.217   6.304 -0.5642 -0.5028  0.1321
  158SAPE  H12A17581   3.442   2.122   6.267  1.9997  0.7894 -0.5171
  158SAPE  H12B17582   3.290   2.215   6.321 -1.0847 -1.7603 -2.7239
  158SAPE   C1117583   3.470   2.263   6.432 -0.3725  0.3848 -0.2865
  158SAPE  H11A17584   3.471   2.178   6.503  0.8540  0.7789  0.1900
  158SAPE  H11B17585   3.404   2.335   6.485 -0.2320  1.3859 -1.4303
  158SAPE     P17586   3.730   2.230   6.403 -0.5518  0.5569  0.4802
  158SAPE   O1317587   3.704   2.101   6.329  0.0538  0.3518 -0.3896
  158SAPE   O1417588   3.845   2.305   6.344 -0.1520  0.4229 -0.0682
  158SAPE   O1217589   3.602   2.322   6.412 -0.2152 -0.1202 -0.3709
  158SAPE   O1117590   3.768   2.203   6.556  0.1601  0.2240 -0.2454
  158SAPE    C117591   3.780   2.310   6.645  0.2515 -0.4482 -0.1203
  158SAPE    HA17592   3.880   2.359   6.652  0.3743 -0.7060 -0.0626
  158SAPE    HB17593   3.714   2.393   6.614  0.7095 -0.0627 -0.0858
  158SAPE    C217594   3.739   2.262   6.787  1.0606  0.1554 -0.6360
  158SAPE    HS17595   3.824   2.202   6.827  1.3549  1.5940  0.9948
  158SAPE   O2117596   3.608   2.206   6.785  0.0780  0.8495 -0.2680
  158SAPE   C2117597   3.576   2.117   6.877 -0.1881 -0.3841 -0.4981
  158SAPE   O2217598   3.651   2.060   6.950  0.3938 -0.0761 -0.9234
  158SAPE   C2217599   3.435   2.067   6.849  0.0957 -0.1389  0.1240
  158SAPE   H2R17600   3.370   2.156   6.835 -1.7176 -0.8040  3.3840
  158SAPE   H2S17601   3.428   2.011   6.753 -0.1383 -0.1714  0.1588
  158SAPE    C317602   3.726   2.386   6.879  0.2369  0.5374  0.0806
  158SAPE    HX17603   3.644   2.434   6.822 -1.4659 -2.0218  0.1948
  158SAPE    HY17604   3.815   2.451   6.867  0.0763  0.8963  0.8117
  158SAPE   O3117605   3.691   2.360   7.020 -0.0676  0.3282  0.2059
  158SAPE   C3117606   3.801   2.338   7.090 -0.0221 -0.4350 -0.5151
  158SAPE   O3217607   3.918   2.342   7.053  0.4903 -0.1499 -0.8613
  158SAPE   C3217608   3.754   2.297   7.231 -0.5275 -0.3155  0.0669
  158SAPE   H2X17609   3.787   2.192   7.247  0.5602  0.0920  0.5257
  158SAPE   H2Y17610   3.644   2.304   7.247 -0.5672 -0.2870 -0.2016
  158SAPE   C2317611   3.373   1.977   6.961  0.4162 -0.8038  0.0204
  158SAPE   H3R17612   3.442   1.890   6.971  0.3279 -0.9641 -0.6928
  158SAPE   H3S17613   3.279   1.929   6.927 -0.3211  0.9448 -0.5372
  158SAPE   C2417614   3.344   2.053   7.088  0.9716  0.6111  0.1213
  158SAPE   H4R17615   3.274   2.137   7.071  0.0393  0.1428  1.4904
  158SAPE   H4S17616   3.433   2.111   7.117  0.5009  0.4473  1.9954
  158SAPE   C2517617   3.297   1.972   7.199  0.2519  0.2419 -0.2299
  158SAPE   H5R17618   3.191   1.993   7.217 -0.6793 -2.1918 -2.2831
  158SAPE   C2617619   3.372   1.889   7.272 -0.0131  0.3379  0.5068
  158SAPE   H6R17620   3.332   1.831   7.357 -1.1301  0.5205  0.1243
  158SAPE   C2717621   3.518   1.863   7.234  0.1507  0.4585 -0.2332
  158SAPE   H7R17622   3.580   1.924   7.303 -3.4059  1.5160  2.3193
  158SAPE   H7S17623   3.555   1.894   7.134 -0.5469  0.4054 -0.5090
  158SAPE   C2817624   3.552   1.713   7.245 -0.7790  0.5808  0.0053
  158SAPE   H8R17625   3.518   1.654   7.159  0.5203  0.7257 -0.6203
  158SAPE   C2917626   3.610   1.652   7.349 -0.1665  0.4359 -0.4642
  158SAPE   H9R17627   3.618   1.543   7.360  2.1771  0.3682 -2.0101
  158SAPE  C21017628   3.656   1.729   7.473  0.5525 -0.0791 -0.9746
  158SAPE  H10R17629   3.670   1.839   7.459  2.3172 -0.3698 -1.7377
  158SAPE  H10S17630   3.759   1.697   7.497  0.2433  0.2679  0.9749
  158SAPE  C21117631   3.563   1.718   7.590  0.8542  0.4344 -0.3382
  158SAPE  H11R17632   3.467   1.771   7.582  0.0992 -1.0693 -1.9540
  158SAPE  C21217633   3.580   1.639   7.702 -0.0433 -0.0467 -0.3122
  158SAPE  H12R17634   3.493   1.622   7.767  0.0942  1.0107  0.1788
  158SAPE  C21317635   3.700   1.555   7.726  0.4777 -0.4860 -0.1792
  158SAPE  H13R17636   3.790   1.602   7.771  0.0648  0.4661 -0.3248
  158SAPE  H13S17637   3.749   1.519   7.633  3.4925 -1.5842  1.6935
  158SAPE  C21417638   3.653   1.422   7.792 -0.3265 -0.3618 -0.1598
  158SAPE  H14R17639   3.631   1.450   7.896 -2.2019  1.7661 -1.0536
  158SAPE  C21517640   3.621   1.303   7.732 -0.4436  0.0465 -0.1190
  158SAPE  H15R17641   3.601   1.229   7.810 -2.0724  1.6260  1.0478
  158SAPE  C21617642   3.636   1.263   7.588 -0.3109  0.0627  0.2110
  158SAPE  H16R17643   3.662   1.155   7.587 -1.4296 -0.2272  1.0200
  158SAPE  H16S17644   3.732   1.305   7.549 -0.9399  0.5108 -0.9172
  158SAPE  C21717645   3.516   1.287   7.497 -0.2091  0.2128  0.2099
  158SAPE  H17R17646   3.512   1.397   7.481 -1.7465  0.2047  0.3273
  158SAPE  H17S17647   3.421   1.246   7.538 -0.0208  0.3814  0.8373
  158SAPE  C21817648   3.547   1.217   7.363 -0.9964 -0.1061  0.1139
  158SAPE  H18R17649   3.580   1.111   7.374  0.3256  0.3571  0.7303
  158SAPE  H18S17650   3.628   1.273   7.312 -1.5197  0.3221 -0.2582
  158SAPE  C21917651   3.430   1.220   7.263  0.0026  0.3271  0.7009
  158SAPE  H19R17652   3.356   1.143   7.294  0.4297  0.6569  2.6782
  158SAPE  H19S17653   3.477   1.188   7.168 -0.8389  1.8886 -0.2879
  158SAPE  C22017654   3.351   1.351   7.257 -0.0722  0.0554  0.1821
  158SAPE  H20R17655   3.315   1.367   7.154  0.2205 -1.3448 -0.1561
  158SAPE  H20S17656   3.426   1.432   7.276 -1.8108  1.5415  1.0094
  158SAPE  H20T17657   3.274   1.363   7.336  1.2855  0.3090  1.5395
  158SAPE   C3317658   3.816   2.377   7.349 -0.8292 -0.5801  0.3678
  158SAPE   H3X17659   3.741   2.388   7.430 -0.4322 -3.2304  1.1979
  158SAPE   H3Y17660   3.856   2.476   7.317  1.4341 -1.3044  0.7328
  158SAPE   C3417661   3.937   2.301   7.411 -0.7240  0.2991 -0.2442
  158SAPE   H4X17662   4.000   2.279   7.322  0.3600 -2.4068  1.0804
  158SAPE   H4Y17663   3.914   2.201   7.454  0.7307 -0.2627 -0.6891
  158SAPE   C3517664   4.006   2.385   7.515  0.0718  0.1455  0.3470
  158SAPE   H5X17665   4.015   2.487   7.472  1.2753 -1.0316 -2.4228
  158SAPE   H5Y17666   4.107   2.348   7.543  0.6534  0.5298 -1.1539
  158SAPE   C3617667   3.925   2.407   7.646 -0.3120  0.2243  0.6468
  158SAPE   H6X17668   3.827   2.455   7.625 -1.0820 -1.1120  1.1112
  158SAPE   H6Y17669   3.984   2.482   7.703 -2.7604  0.3956  3.2130
  158SAPE   C3717670   3.901   2.290   7.742  0.4665  0.3738 -0.2346
  158SAPE   H7X17671   3.842   2.227   7.672  2.2128 -1.2095 -0.3563
  158SAPE   H7Y17672   3.989   2.223   7.755  0.3353  0.2228 -0.1204
  158SAPE   C3817673   3.846   2.325   7.881  0.3043  0.0597 -0.2354
  158SAPE   H8X17674   3.918   2.389   7.937 -1.6513  2.0313  0.1897
  158SAPE   H8Y17675   3.828   2.226   7.927  1.7406 -1.3685 -2.5558
  158SAPE   C3917676   3.710   2.401   7.868 -0.3842  0.2246 -0.4704
  158SAPE   H9X17677   3.647   2.352   7.791  0.1450 -0.1132 -0.6934
  158SAPE   H9Y17678   3.733   2.504   7.832  2.6786 -1.4301 -3.9438
  158SAPE  C31017679   3.633   2.396   7.999 -0.4545 -0.3138  0.2979
  158SAPE  H10X17680   3.692   2.467   8.062  0.9261  0.7842 -2.0707
  158SAPE  H10Y17681   3.637   2.293   8.040  1.1893 -0.5694 -0.4099
  158SAPE  C31117682   3.492   2.443   7.999  0.0146 -0.0551 -0.1197
  158SAPE  H11X17683   3.452   2.435   8.102  0.9657 -1.9336  0.1532
  158SAPE  H11Y17684   3.427   2.381   7.932  0.0685  1.1797 -1.3601
  158SAPE  C31217685   3.463   2.587   7.957 -0.0056 -0.3159  0.2466
  158SAPE  H12X17686   3.483   2.599   7.848 -2.3989  0.8607 -0.1574
  158SAPE  H12Y17687   3.534   2.657   8.007  2.7032 -2.5682 -0.2370
  158SAPE  C31317688   3.317   2.634   7.986 -0.0698  0.3525  0.7436
  158SAPE  H13X17689   3.303   2.738   7.952 -1.6078 -0.3724 -0.9920
  158SAPE  H13Y17690   3.302   2.619   8.095  1.7954  0.3911  1.0422
  158SAPE  C31417691   3.212   2.564   7.902 -0.4096  0.5151 -0.1002
  158SAPE  H14X17692   3.172   2.472   7.952  0.0441  1.9608  3.2285
  158SAPE  H14Y17693   3.254   2.534   7.804 -1.2549  1.7629 -0.8802
  158SAPE  C31517694   3.099   2.660   7.858 -0.1054  0.5151  0.4742
  158SAPE  H15X17695   3.148   2.713   7.773  0.5814  2.3511  1.9553
  158SAPE  H15Y17696   3.067   2.733   7.935 -1.4200  0.2294  0.2138
  158SAPE  C31617697   2.975   2.592   7.795 -0.4934  0.9927  0.0665
  158SAPE  H16X17698   2.912   2.553   7.878 -1.5641  1.6757 -0.4022
  158SAPE  H16Y17699   3.010   2.503   7.737 -0.4234  0.6260  0.6578
  158SAPE  C31717700   2.896   2.682   7.693  0.2192  0.3774 -0.8620
  158SAPE  H17X17701   2.825   2.626   7.628  0.0180  0.5155 -0.7615
  158SAPE  H17Y17702   2.961   2.727   7.616  1.4262 -1.7301 -1.1532
  158SAPE  C31817703   2.827   2.801   7.752 -0.1803 -0.1417 -0.8282
  158SAPE  H18X17704   2.899   2.862   7.811 -0.7250  0.5500 -0.8696
  158SAPE  H18Y17705   2.737   2.773   7.811 -0.0005 -0.2879 -0.6193
  158SAPE  H18Z17706   2.782   2.859   7.669 -1.9112  0.0055  0.1561
  159SAPE     N17707   4.710   4.022   6.386  0.3252  0.6596 -0.3942
  159SAPE   HN117708   4.619   4.071   6.374 -0.8118 -1.5074 -1.0627
  159SAPE   HN217709   4.785   4.086   6.353  2.4275 -1.6589 -0.3446
  159SAPE   HN317710   4.702   3.945   6.318 -1.4765  0.6581 -0.2381
  159SAPE   C1217711   4.740   3.971   6.528  0.3140  0.5121 -0.2721
  159SAPE  H12A17712   4.647   3.932   6.573  0.9581 -1.2549 -0.3933
  159SAPE  H12B17713   4.765   4.059   6.591 -2.4847  0.7138  0.6538
  159SAPE   C1117714   4.852   3.859   6.540  0.3294  0.3973 -0.4507
  159SAPE  H11A17715   4.873   3.829   6.645 -2.1863 -2.8423 -0.7341
  159SAPE  H11B17716   4.945   3.909   6.505  0.4792 -0.4529 -1.3125
  159SAPE     P17717   4.732   3.635   6.512  0.3625 -0.0915 -0.2361
  159SAPE   O1317718   4.600   3.692   6.550  0.4322  0.0815 -0.2740
  159SAPE   O1417719   4.720   3.521   6.414  0.0373 -0.1233 -0.5717
  159SAPE   O1217720   4.820   3.749   6.450  0.1519 -0.0162 -0.1995
  159SAPE   O1117721   4.805   3.599   6.648 -0.1860  0.6460  0.3845
  159SAPE    C117722   4.930   3.532   6.631  0.2239  0.0203  0.2766
  159SAPE    HA17723   4.942   3.453   6.553  3.0305 -1.7397  2.2762
  159SAPE    HB17724   5.007   3.611   6.626 -0.7307  0.8948 -1.0412
  159SAPE    C217725   4.965   3.466   6.772 -0.2101  0.0232  0.2379
  159SAPE    HS17726   5.058   3.406   6.758 -0.1573 -0.2569  1.5881
  159SAPE   O2117727   4.848   3.394   6.823 -0.1495  0.3294  0.8445
  159SAPE   C2117728   4.845   3.276   6.771  1.0167 -0.1199 -0.3701
  159SAPE   O2217729   4.931   3.216   6.708 -0.0947 -0.7544 -0.4416
  159SAPE   C2217730   4.709   3.210   6.809 -0.7064 -0.0932 -0.6954
  159SAPE   H2R17731   4.634   3.269   6.752 -1.7674  0.3749  1.1205
  159SAPE   H2S17732   4.709   3.107   6.766  0.5196  0.4975 -2.1948
  159SAPE    C317733   5.013   3.583   6.874 -0.8544 -0.1565 -0.4526
  159SAPE    HX17734   4.943   3.668   6.884 -3.3315 -2.2958  2.1792
  159SAPE    HY17735   5.107   3.622   6.831 -0.7289 -0.4359 -0.4370
  159SAPE   O3117736   5.054   3.525   7.003  0.2802  0.4617  0.8712
  159SAPE   C3117737   4.953   3.518   7.094  0.9588  0.0988 -0.0178
  159SAPE   O3217738   4.847   3.572   7.085  0.6709 -0.2558  0.4306
  159SAPE   C3217739   4.998   3.436   7.211 -0.1453 -0.4386 -0.4077
  159SAPE   H2X17740   5.063   3.505   7.270  2.5685 -1.5752 -1.9045
  159SAPE   H2Y17741   5.063   3.355   7.172 -0.4529 -1.2897  0.7782
  159SAPE   C2317742   4.685   3.210   6.958  0.2017 -0.3637 -0.1914
  159SAPE   H3R17743   4.578   3.197   6.983 -0.4515 -0.6523 -2.7845
  159SAPE   H3S17744   4.712   3.309   7.001  1.0980 -0.3523 -0.7405
  159SAPE   C2417745   4.762   3.106   7.035 -0.5597  0.2721 -0.3209
  159SAPE   H4R17746   4.745   3.124   7.143  1.7467 -1.3613  0.3975
  159SAPE   H4S17747   4.869   3.121   7.012 -0.1180 -0.1931  1.2870
  159SAPE   C2517748   4.724   2.960   6.998  0.1777  0.3351  0.1684
  159SAPE   H5R17749   4.742   2.924   6.895 -2.4707  1.2560 -0.7210
  159SAPE   C2617750   4.656   2.874   7.075 -0.0764  0.7535 -0.5778
  159SAPE   H6R17751   4.638   2.772   7.037 -0.8176  2.0695 -4.1163
  159SAPE   C2717752   4.601   2.887   7.215  0.0114  0.2283 -0.6830
  159SAPE   H7R17753   4.673   2.944   7.278  1.2991 -2.4675  0.4521
  159SAPE   H7S17754   4.583   2.786   7.257  0.4185  0.0128 -1.0184
  159SAPE   C2817755   4.468   2.962   7.215 -0.7460 -0.5191  0.5758
  159SAPE   H8R17756   4.400   2.956   7.129 -0.1189  1.2617 -0.0954
  159SAPE   C2917757   4.417   3.043   7.311  0.1171 -0.3966 -0.2431
  159SAPE   H9R17758   4.327   3.099   7.283  0.2502  0.8434  1.6262
  159SAPE  C21017759   4.469   3.078   7.449  0.7999 -0.3089 -0.2872
  159SAPE  H10R17760   4.499   3.185   7.452  0.3856 -0.1920 -0.2236
  159SAPE  H10S17761   4.567   3.029   7.463  1.4572  0.9703 -0.2004
  159SAPE  C21117762   4.367   3.028   7.557  0.1680  0.3650  0.7179
  159SAPE  H11R17763   4.272   2.983   7.523 -0.2062 -0.6543  2.9401
  159SAPE  C21217764   4.387   3.032   7.689 -0.2703  0.3449  0.7576
  159SAPE  H12R17765   4.311   3.001   7.761  0.3988  1.3362  1.9253
  159SAPE  C21317766   4.521   3.091   7.735 -0.4941 -0.1135 -0.5944
  159SAPE  H13R17767   4.556   3.179   7.678 -0.8853 -0.3579 -1.2185
  159SAPE  H13S17768   4.608   3.025   7.711 -0.5455 -1.5545  2.6448
  159SAPE  C21417769   4.524   3.128   7.882 -0.4163 -0.7489 -0.4762
  159SAPE  H14R17770   4.475   3.223   7.907 -1.9470 -1.5454 -0.3377
  159SAPE  C21517771   4.581   3.055   7.982 -0.3455 -0.9314 -0.6766
  159SAPE  H15R17772   4.567   3.091   8.085 -2.2557  1.5993 -1.6955
  159SAPE  C21617773   4.655   2.918   7.978 -0.0187 -0.0894 -0.7037
  159SAPE  H16R17774   4.760   2.942   7.952  0.5910  0.4431  1.9769
  159SAPE  H16S17775   4.606   2.858   7.898 -0.7824  0.5880 -0.7534
  159SAPE  C21717776   4.667   2.814   8.094 -0.5677 -0.1017 -0.1607
  159SAPE  H17R17777   4.729   2.728   8.064 -0.3889 -0.6027  1.5403
  159SAPE  H17S17778   4.565   2.775   8.114  0.1711 -1.4952  1.0494
  159SAPE  C21817779   4.739   2.880   8.218  0.2407  0.1429  0.6138
  159SAPE  H18R17780   4.675   2.959   8.261  1.3500  0.5182  1.6399
  159SAPE  H18S17781   4.837   2.923   8.186  2.8027 -3.2240  3.1228
  159SAPE  C21917782   4.758   2.767   8.328 -0.2735 -0.0164 -0.0681
  159SAPE  H19R17783   4.819   2.680   8.294 -1.7788 -1.3851  0.6196
  159SAPE  H19S17784   4.655   2.729   8.341  0.3257 -1.2387  1.3198
  159SAPE  C22017785   4.809   2.827   8.461 -0.4069 -0.1527  0.7361
  159SAPE  H20R17786   4.816   2.743   8.533 -0.1989 -1.4398 -0.7312
  159SAPE  H20S17787   4.727   2.889   8.502  0.3752  1.9167 -0.6904
  159SAPE  H20T17788   4.907   2.880   8.455 -0.9478  0.7016 -1.4766
  159SAPE   C3317789   4.876   3.392   7.309 -1.2785 -0.5684  0.3218
  159SAPE   H3X17790   4.835   3.300   7.263 -0.9696 -0.8227  0.5482
  159SAPE   H3Y17791   4.797   3.468   7.327 -2.1104 -0.9971 -1.3096
  159SAPE   C3417792   4.920   3.352   7.448 -0.5206  0.3223  0.6641
  159SAPE   H4X17793   5.003   3.277   7.454  1.0299  2.0451  2.3345
  159SAPE   H4Y17794   4.840   3.287   7.488 -0.1787 -1.8061 -1.8656
  159SAPE   C3517795   4.947   3.471   7.543 -0.2797 -0.0984 -0.0142
  159SAPE   H5X17796   5.011   3.545   7.490 -0.6458 -0.0213 -0.3539
  159SAPE   H5Y17797   4.999   3.430   7.632  0.2128 -2.1591 -1.1908
  159SAPE   C3617798   4.821   3.540   7.604 -0.4380  0.7967 -0.5056
  159SAPE   H6X17799   4.755   3.560   7.517 -1.0831 -0.0191 -0.2196
  159SAPE   H6Y17800   4.853   3.639   7.642 -0.7667  0.1637  1.4932
  159SAPE   C3717801   4.751   3.469   7.718  0.4787  0.1332  0.3970
  159SAPE   H7X17802   4.751   3.362   7.689  2.6345  0.0215  0.6496
  159SAPE   H7Y17803   4.651   3.516   7.736  0.4138  0.9323 -1.7729
  159SAPE   C3817804   4.829   3.476   7.852  0.1942  0.5589  0.5618
  159SAPE   H8X17805   4.861   3.583   7.858  0.8796  0.4426 -0.6749
  159SAPE   H8Y17806   4.915   3.406   7.848  0.0202  0.2850  1.4203
  159SAPE   C3917807   4.741   3.439   7.975  0.0103  0.2669  0.3155
  159SAPE   H9X17808   4.735   3.329   7.987  4.0856  0.0327  2.1669
  159SAPE   H9Y17809   4.639   3.481   7.966 -0.2530 -0.2125  1.0327
  159SAPE  C31017810   4.801   3.478   8.114 -0.3029 -0.2323 -0.1772
  159SAPE  H10X17811   4.850   3.578   8.123 -0.4491 -0.2058  0.3210
  159SAPE  H10Y17812   4.883   3.405   8.136 -0.6015  0.0847  2.2544
  159SAPE  C31117813   4.714   3.462   8.238 -0.0659  0.5061 -0.9346
  159SAPE  H11X17814   4.781   3.476   8.325  2.1256 -1.7127 -2.1391
  159SAPE  H11Y17815   4.684   3.357   8.255  1.4285  0.0538 -0.9991
  159SAPE  C31217816   4.599   3.559   8.254  0.7628 -0.2823  0.2978
  159SAPE  H12X17817   4.544   3.555   8.158  0.2884 -1.3355  0.6046
  159SAPE  H12Y17818   4.642   3.658   8.281 -0.9601  0.3908  0.6986
  159SAPE  C31317819   4.499   3.512   8.364 -0.2266  0.4138 -0.2036
  159SAPE  H13X17820   4.454   3.415   8.332  1.2814  0.5814 -3.1952
  159SAPE  H13Y17821   4.422   3.592   8.359 -1.1166 -0.4500 -0.9911
  159SAPE  C31417822   4.562   3.515   8.503 -0.4018 -0.3812  0.3618
  159SAPE  H14X17823   4.619   3.610   8.512 -1.4735  0.2523  0.5150
  159SAPE  H14Y17824   4.634   3.432   8.524  0.6299  0.7954  1.6755
  159SAPE  C31517825   4.461   3.514   8.618 -0.3742  0.1279 -0.2664
  159SAPE  H15X17826   4.399   3.423   8.607  3.5222 -3.2678  2.7525
  159SAPE  H15Y17827   4.394   3.602   8.609 -1.6277 -0.9978 -3.3006
  159SAPE  C31617828   4.518   3.514   8.763 -1.1437 -0.8392  0.5871
  159SAPE  H16X17829   4.568   3.611   8.783  2.0228 -2.5676  1.6873
  159SAPE  H16Y17830   4.595   3.435   8.767  1.8007  1.7163 -1.0687
  159SAPE  C31717831   4.414   3.481   8.879 -0.1731 -0.2797 -0.2292
  159SAPE  H17X17832   4.323   3.541   8.858  0.8160  1.1010 -0.7582
  159SAPE  H17Y17833   4.450   3.525   8.975  1.1030  1.0606 -1.2586
  159SAPE  C31817834   4.371   3.334   8.893  0.5435 -0.1847 -0.1234
  159SAPE  H18X17835   4.313   3.296   8.805 -0.8265 -0.6856  0.9529
  159SAPE  H18Y17836   4.293   3.332   8.972  1.0372 -0.6896  0.3479
  159SAPE  H18Z17837   4.447   3.260   8.925 -0.0129 -1.0822 -0.8223
  160SAPE     N17838   4.755   2.041   6.423 -0.0751  0.6149  0.8918
  160SAPE   HN117839   4.856   2.016   6.435  0.0529 -0.2029 -1.4407
  160SAPE   HN217840   4.717   1.955   6.378  0.4974 -0.7380  2.8618
  160SAPE   HN317841   4.763   2.116   6.352  1.3376 -2.6417 -2.8151
  160SAPE   C1217842   4.669   2.046   6.548 -0.8419 -0.6826 -0.4793
  160SAPE  H12A17843   4.646   1.941   6.578 -1.0964 -0.1670  1.2453
  160SAPE  H12B17844   4.573   2.098   6.524 -1.0420 -0.7078  0.2359
  160SAPE   C1117845   4.745   2.105   6.668  0.0186 -0.2849 -0.5557
  160SAPE  H11A17846   4.823   2.029   6.690 -2.5568 -2.5322  1.3749
  160SAPE  H11B17847   4.687   2.104   6.763  0.1602  0.2298 -0.4580
  160SAPE     P17848   4.715   2.367   6.623 -0.3466  0.7321  0.2396
  160SAPE   O1317849   4.811   2.480   6.624 -0.0086 -0.2835  0.4536
  160SAPE   O1417850   4.641   2.364   6.497 -1.3622  0.3141  0.5102
  160SAPE   O1217851   4.801   2.235   6.644  0.2330  0.2360 -0.1190
  160SAPE   O1117852   4.621   2.365   6.740 -0.0142  0.0605  0.2052
  160SAPE    C117853   4.656   2.376   6.877  0.2207  0.4199 -0.1189
  160SAPE    HA17854   4.583   2.318   6.938 -0.6286  0.4077 -1.1184
  160SAPE    HB17855   4.762   2.358   6.904  1.0044  2.5673 -1.5387
  160SAPE    C217856   4.639   2.526   6.925  0.0134  0.5437 -0.3086
  160SAPE    HS17857   4.686   2.601   6.857  0.4024  0.5508 -0.0329
  160SAPE   O2117858   4.689   2.548   7.057  0.0048  0.5433  0.0318
  160SAPE   C2117859   4.817   2.581   7.063 -0.0637  0.0329 -0.2786
  160SAPE   O2217860   4.887   2.597   6.965 -0.2166  0.5229  1.2069
  160SAPE   C2217861   4.872   2.619   7.200  0.2729  0.6497  0.4865
  160SAPE   H2R17862   4.846   2.724   7.223  1.0523  1.7981 -3.1774
  160SAPE   H2S17863   4.820   2.554   7.274 -0.8455 -0.3520 -1.1043
  160SAPE    C317864   4.488   2.551   6.931  0.1289  0.6167  0.1232
  160SAPE    HX17865   4.450   2.543   6.827  1.4533  0.1511 -0.3489
  160SAPE    HY17866   4.485   2.656   6.966  1.2243  0.5134  0.5781
  160SAPE   O3117867   4.415   2.466   7.029 -0.0742  0.4650 -0.2025
  160SAPE   C3117868   4.292   2.507   7.071 -0.4502  0.0565  0.3864
  160SAPE   O3217869   4.235   2.598   7.018 -0.5462  0.1291 -0.3599
  160SAPE   C3217870   4.247   2.422   7.187 -0.5101 -0.0954 -0.4323
  160SAPE   H2X17871   4.296   2.324   7.172 -1.3264 -0.4248 -0.9977
  160SAPE   H2Y17872   4.136   2.425   7.186 -0.5298  2.5103  0.8413
  160SAPE   C2317873   5.030   2.620   7.204  0.2198 -0.0381 -0.3761
  160SAPE   H3R17874   5.056   2.687   7.289  0.5827  1.6227 -1.7422
  160SAPE   H3S17875   5.069   2.649   7.105  0.6242  1.4258  0.1905
  160SAPE   C2417876   5.079   2.475   7.235 -0.3356  0.6962 -0.1590
  160SAPE   H4R17877   5.040   2.435   7.331 -0.8085 -2.1454 -1.4584
  160SAPE   H4S17878   5.184   2.500   7.260  0.2073 -3.1753  2.3698
  160SAPE   C2517879   5.081   2.376   7.122 -0.2609 -0.3708 -0.2178
  160SAPE   H5R17880   4.983   2.378   7.071 -0.1855 -0.6825 -0.3754
  160SAPE   C2617881   5.179   2.293   7.079 -0.2556  0.3788  0.0226
  160SAPE   H6R17882   5.158   2.234   6.989  1.1482 -1.5764  0.8897
  160SAPE   C2717883   5.316   2.288   7.141 -0.5746  0.2006  0.1923
  160SAPE   H7R17884   5.327   2.179   7.161 -1.3796  0.0722 -0.0281
  160SAPE   H7S17885   5.314   2.339   7.240 -1.0310 -0.1883  0.3895
  160SAPE   C2817886   5.424   2.338   7.045 -0.0358  0.4242  0.1156
  160SAPE   H8R17887   5.395   2.370   6.944 -1.2566 -0.8946  0.0149
  160SAPE   C2917888   5.555   2.348   7.068 -0.2071 -0.8975 -0.5936
  160SAPE   H9R17889   5.626   2.386   6.993  1.5718 -0.0811  1.3998
  160SAPE  C21017890   5.623   2.303   7.193 -0.4612  0.5387  0.0244
  160SAPE  H10R17891   5.612   2.192   7.199 -0.6135  0.6211  1.6079
  160SAPE  H10S17892   5.572   2.337   7.286 -1.9008 -0.4641 -0.3620
  160SAPE  C21117893   5.770   2.323   7.188 -0.0066 -0.7926 -0.6802
  160SAPE  H11R17894   5.815   2.337   7.089  0.0557 -0.2536 -0.5781
  160SAPE  C21217895   5.850   2.343   7.295  0.1741  0.2437 -0.1168
  160SAPE  H12R17896   5.957   2.361   7.278  0.1814  1.9148  1.3330
  160SAPE  C21317897   5.814   2.332   7.443  0.1999  0.7042  0.4256
  160SAPE  H13R17898   5.767   2.429   7.469  0.2206  0.2028  2.5063
  160SAPE  H13S17899   5.906   2.318   7.503 -0.6574 -2.4379  1.1865
  160SAPE  C21417900   5.728   2.215   7.494  0.5267  0.1335 -0.3313
  160SAPE  H14R17901   5.740   2.117   7.445 -1.4508 -0.4983  0.3815
  160SAPE  C21517902   5.618   2.231   7.573 -0.5601  0.3481 -0.5801
  160SAPE  H15R17903   5.573   2.137   7.606 -0.5091 -0.4291 -2.6014
  160SAPE  C21617904   5.551   2.346   7.634 -0.7198  0.4882  0.2986
  160SAPE  H16R17905   5.441   2.353   7.620 -0.5952  1.4336 -0.2871
  160SAPE  H16S17906   5.600   2.433   7.586  1.9560 -0.7127  0.6583
  160SAPE  C21717907   5.578   2.346   7.779  0.1876  0.0987 -0.2490
  160SAPE  H17R17908   5.578   2.454   7.804 -1.0579  0.0071  0.2065
  160SAPE  H17S17909   5.680   2.312   7.805 -0.2577 -2.0139 -1.0359
  160SAPE  C21817910   5.467   2.276   7.856 -0.4734 -0.8430 -0.2580
  160SAPE  H18R17911   5.487   2.167   7.861 -1.4421 -0.9796  1.2658
  160SAPE  H18S17912   5.365   2.285   7.812 -0.5407  0.9431  0.2060
  160SAPE  C21917913   5.448   2.334   7.996 -0.2723  0.5620 -0.3372
  160SAPE  H19R17914   5.401   2.434   7.999  0.0438  0.7136 -0.4672
  160SAPE  H19S17915   5.550   2.347   8.038  0.9974  1.9946 -3.5726
  160SAPE  C22017916   5.367   2.239   8.079 -0.8555  0.0835 -0.2369
  160SAPE  H20R17917   5.412   2.138   8.075  0.2393  0.3941  2.2530
  160SAPE  H20S17918   5.268   2.236   8.028 -0.9008 -1.4802 -0.1054
  160SAPE  H20T17919   5.357   2.281   8.181 -0.4334 -0.5778  0.0835
  160SAPE   C3317920   4.299   2.485   7.318  0.2228  0.5208 -0.1094
  160SAPE   H3X17921   4.250   2.440   7.407 -0.8580 -0.2073 -1.0348
  160SAPE   H3Y17922   4.275   2.594   7.319 -0.6902  0.3303 -0.0724
  160SAPE   C3417923   4.453   2.458   7.338 -0.2724  0.3405 -0.2557
  160SAPE   H4X17924   4.514   2.486   7.250  0.7532  1.3714  0.7623
  160SAPE   H4Y17925   4.459   2.347   7.348  3.7233  0.2017 -2.4193
  160SAPE   C3517926   4.507   2.530   7.468 -0.0835  0.0677 -0.2807
  160SAPE   H5X17927   4.543   2.633   7.446 -1.2039  0.8856  1.4854
  160SAPE   H5Y17928   4.596   2.465   7.488 -1.2767 -1.6536 -0.3321
  160SAPE   C3617929   4.421   2.533   7.592 -0.0119 -0.3642  0.2661
  160SAPE   H6X17930   4.363   2.439   7.594 -0.2233 -0.2779  3.5089
  160SAPE   H6Y17931   4.339   2.608   7.592 -1.5783 -2.0104 -0.3614
  160SAPE   C3717932   4.497   2.532   7.727  0.2503 -0.4186 -0.0804
  160SAPE   H7X17933   4.581   2.604   7.716 -1.2595  1.0806 -3.5083
  160SAPE   H7Y17934   4.539   2.430   7.738  0.4341 -0.2931  0.3996
  160SAPE   C3817935   4.415   2.555   7.851  0.8180  0.5913  0.9265
  160SAPE   H8X17936   4.395   2.664   7.847  1.3092  0.6492 -1.1485
  160SAPE   H8Y17937   4.479   2.536   7.940 -0.0829  2.7946  2.1323
  160SAPE   C3917938   4.289   2.457   7.863 -0.7638  0.2366  0.0865
  160SAPE   H9X17939   4.316   2.361   7.814  2.1561  0.6381  0.7348
  160SAPE   H9Y17940   4.203   2.499   7.807 -3.4454 -1.7086  2.4757
  160SAPE  C31017941   4.239   2.443   8.003  0.5022  0.1266 -0.5260
  160SAPE  H10X17942   4.143   2.385   8.001  1.2456 -1.1222 -1.3831
  160SAPE  H10Y17943   4.220   2.536   8.060 -1.8415  0.1911 -1.3038
  160SAPE  C31117944   4.347   2.376   8.097 -0.0454  0.0899 -0.1841
  160SAPE  H11X17945   4.420   2.455   8.125  2.3364 -1.8406 -0.6252
  160SAPE  H11Y17946   4.400   2.306   8.029  0.0305  1.0419 -1.1442
  160SAPE  C31217947   4.290   2.294   8.213 -0.6230  0.9581 -0.2074
  160SAPE  H12X17948   4.190   2.257   8.180 -0.6795  0.3824  0.5787
  160SAPE  H12Y17949   4.280   2.359   8.302 -2.2148 -0.5009  0.7489
  160SAPE  C31317950   4.382   2.179   8.247 -0.2287 -0.1125  0.0182
  160SAPE  H13X17951   4.401   2.116   8.157 -0.4347  0.3897 -0.3785
  160SAPE  H13Y17952   4.331   2.122   8.328 -1.3043  1.5218  0.5391
  160SAPE  C31417953   4.510   2.227   8.319  0.4119 -0.1848 -0.1341
  160SAPE  H14X17954   4.481   2.297   8.400  0.5497  1.5525 -1.5143
  160SAPE  H14Y17955   4.564   2.298   8.253 -2.1792  0.6106 -1.5463
  160SAPE  C31517956   4.595   2.117   8.383  0.0650  0.1699  0.1180
  160SAPE  H15X17957   4.537   2.023   8.377  2.0212 -1.0152 -0.8595
  160SAPE  H15Y17958   4.607   2.133   8.493 -2.1518  0.4082  0.3678
  160SAPE  C31617959   4.732   2.107   8.315 -0.1948  0.1370  0.4283
  160SAPE  H16X17960   4.770   2.211   8.308  1.2117 -0.4180 -0.8399
  160SAPE  H16Y17961   4.715   2.077   8.209 -1.6324  0.6977  0.4889
  160SAPE  C31717962   4.841   2.013   8.379 -0.5511 -1.0665  0.0411
  160SAPE  H17X17963   4.856   2.057   8.480 -0.3887  1.9826 -1.2096
  160SAPE  H17Y17964   4.933   2.024   8.319 -0.6489 -2.6043 -0.4455
  160SAPE  C31817965   4.807   1.867   8.386  0.3493 -0.3908 -0.8557
  160SAPE  H18X17966   4.888   1.813   8.440 -0.3962  0.5743  1.3355
  160SAPE  H18Y17967   4.791   1.825   8.284  0.1824 -0.5868 -0.7492
  160SAPE  H18Z17968   4.707   1.850   8.432  1.8030 -2.7873  1.6815
  161SOPE     N17969   0.926   4.657  10.936 -0.2914  0.1767 -0.4807
  161SOPE   HN117970   0.914   4.563  10.893  2.4105 -0.3117 -0.3272
  161SOPE   HN217971   0.938   4.640  11.038 -0.3639  2.3520 -0.0679
  161SOPE   HN317972   0.842   4.717  10.924  0.1122  0.7328 -0.5731
  161SOPE   C1217973   1.050   4.725  10.873 -0.3060 -0.1225  0.2061
  161SOPE  H12A17974   1.137   4.669  10.914 -0.6827 -0.4633  0.5596
  161SOPE  H12B17975   1.063   4.823  10.923  2.6046 -0.7505  0.8595
  161SOPE   C1117976   1.053   4.736  10.720  0.0262 -0.4986  0.4309
  161SOPE  H11A17977   1.152   4.771  10.684  0.4474 -0.0406  1.9366
  161SOPE  H11B17978   0.980   4.814  10.689 -3.1697 -3.1125  0.8595
  161SOPE     P17979   1.108   4.486  10.650 -0.2104  0.5265  0.1947
  161SOPE   O1317980   1.026   4.368  10.619 -0.6791  0.4258  0.3527
  161SOPE   O1417981   1.197   4.469  10.764 -0.1880  0.0580  0.2762
  161SOPE   O1217982   1.010   4.614  10.661  0.2493 -0.5595 -0.0941
  161SOPE   O1117983   1.185   4.514  10.517  0.2056 -0.2455  0.3311
  161SOPE    C117984   1.139   4.615  10.419  0.1775 -0.0080 -0.9876
  161SOPE    HA17985   1.144   4.717  10.462 -2.2071 -0.5998  0.8931
  161SOPE    HB17986   1.039   4.583  10.384  0.1641 -0.6346 -0.3979
  161SOPE    C217987   1.224   4.622  10.291  0.8002 -0.2691 -0.1085
  161SOPE    HS17988   1.186   4.709  10.231 -0.9289 -1.5328 -0.9362
  161SOPE   O2117989   1.211   4.505  10.212  0.3413 -0.0396  0.1322
  161SOPE   C2117990   1.099   4.486  10.143 -0.1623 -0.4084 -0.3108
  161SOPE   O2217991   1.008   4.567  10.137  0.0913 -0.1913  0.5772
  161SOPE   C2217992   1.099   4.347  10.065  0.1057  0.0509 -0.6974
  161SOPE   H2R17993   1.003   4.300  10.096  1.1760 -1.5314  0.3773
  161SOPE   H2S17994   1.188   4.289  10.097 -0.9749 -2.5348 -2.1106
  161SOPE    C317995   1.376   4.651  10.319 -0.0789 -0.5076  0.3471
  161SOPE    HX17996   1.419   4.571  10.382  2.6537  0.5840  0.0206
  161SOPE    HY17997   1.396   4.746  10.373 -1.9045 -0.5396  1.1332
  161SOPE   O3117998   1.449   4.647  10.195 -0.5045  0.4917 -0.2938
  161SOPE   C3117999   1.455   4.756  10.117 -0.1278 -0.2344 -0.2837
  161SOPE   O3218000   1.397   4.860  10.141  0.0182 -0.0412  0.1756
  161SOPE   C3218001   1.534   4.720   9.992  0.2935 -0.2500  0.0165
  161SOPE   H2X18002   1.501   4.623   9.951 -1.9757 -0.9091  3.0843
  161SOPE   H2Y18003   1.639   4.690  10.017  0.9141 -0.3394 -2.4321
  161SOPE   C2318004   1.121   4.372   9.911  0.5616  0.2958 -0.6605
  161SOPE   H3R18005   1.021   4.416   9.890  0.6837  0.5189 -0.7787
  161SOPE   H3S18006   1.143   4.277   9.858 -0.3888 -0.3377  0.0559
  161SOPE   C2418007   1.228   4.476   9.893  0.3613  0.7991  0.0697
  161SOPE   H4R18008   1.192   4.574   9.930 -1.0048  0.7386 -1.0290
  161SOPE   H4S18009   1.319   4.442   9.947 -0.9776  0.4470  2.2042
  161SOPE   C2518010   1.265   4.511   9.747 -0.3127  0.1487  0.6158
  161SOPE   H5R18011   1.177   4.563   9.704  0.1296  1.1429  0.8923
  161SOPE   H5S18012   1.353   4.579   9.744 -1.8159  2.1654 -1.4820
  161SOPE   C2618013   1.289   4.388   9.653  0.0379 -0.7358  0.1869
  161SOPE   H6R18014   1.362   4.317   9.697  1.9126  0.7794 -0.3648
  161SOPE   H6S18015   1.196   4.328   9.642  0.1952 -0.7628 -1.1365
  161SOPE   C2718016   1.354   4.421   9.520  0.3996 -0.0679 -0.1313
  161SOPE   H7R18017   1.307   4.511   9.476 -0.0460 -0.5677 -0.6851
  161SOPE   H7S18018   1.461   4.443   9.543  0.7147  1.7628 -2.8557
  161SOPE   C2818019   1.365   4.303   9.421 -0.7651 -0.1878 -0.1404
  161SOPE   H8R18020   1.423   4.337   9.332 -2.3138 -0.9564 -1.5162
  161SOPE   H8S18021   1.421   4.218   9.467 -0.9025 -0.4454 -0.4425
  161SOPE   C2918022   1.230   4.271   9.365  0.6527  0.0534  0.1061
  161SOPE   H9118023   1.185   4.171   9.380  0.6501 -0.1857 -1.3702
  161SOPE  C21018024   1.157   4.354   9.287  0.0877 -0.1165 -0.1225
  161SOPE  H10118025   1.071   4.301   9.244  1.4011 -1.8390 -0.7239
  161SOPE  C21118026   1.177   4.487   9.229 -0.1056 -0.7973  0.2546
  161SOPE  H11R18027   1.191   4.569   9.302  1.1622  0.2871 -1.1485
  161SOPE  H11S18028   1.092   4.529   9.172  1.5053  1.4754 -0.6337
  161SOPE  C21218029   1.295   4.494   9.127  0.0515 -0.2182 -0.3756
  161SOPE  H12R18030   1.386   4.491   9.191 -0.4683  1.5056  0.5094
  161SOPE  H12S18031   1.279   4.590   9.072  0.4454 -0.5473 -1.0793
  161SOPE  C21318032   1.300   4.390   9.021  0.1978 -0.0297  0.0374
  161SOPE  H13R18033   1.195   4.381   8.985 -0.1442  3.1020 -0.0238
  161SOPE  H13S18034   1.326   4.295   9.071  0.3239 -0.1529 -0.2557
  161SOPE  C21418035   1.395   4.420   8.912  0.3624 -0.0510  0.0865
  161SOPE  H14R18036   1.496   4.438   8.955  0.5758  0.4972 -0.6286
  161SOPE  H14S18037   1.362   4.505   8.849  0.9091 -0.1446 -0.3398
  161SOPE  C21518038   1.409   4.298   8.812 -0.5620 -0.6326  0.2671
  161SOPE  H15R18039   1.310   4.251   8.796  0.2814 -1.9232 -1.5524
  161SOPE  H15S18040   1.476   4.225   8.864 -1.1655 -0.8663  0.7292
  161SOPE  C21618041   1.474   4.329   8.678  0.0087  0.0854  1.0318
  161SOPE  H16R18042   1.578   4.365   8.692  0.0609  0.0251  0.8110
  161SOPE  H16S18043   1.421   4.414   8.631  1.0046  0.9852  1.4974
  161SOPE  C21718044   1.477   4.200   8.590 -0.7513 -0.6599  1.0441
  161SOPE  H17R18045   1.375   4.167   8.563 -0.6862 -0.3719  0.4367
  161SOPE  H17S18046   1.523   4.117   8.648  0.5798 -1.5824 -1.2091
  161SOPE  C21818047   1.551   4.220   8.461 -0.3303  0.1423 -0.7838
  161SOPE  H18R18048   1.522   4.309   8.400  0.2967  0.5084 -0.5515
  161SOPE  H18S18049   1.556   4.139   8.386  1.1098  0.7673 -1.3960
  161SOPE  H18T18050   1.654   4.234   8.500 -0.7033  0.3485  0.1475
  161SOPE   C3318051   1.522   4.835   9.892 -0.0786  0.0433  0.3248
  161SOPE   H3X18052   1.576   4.928   9.922 -0.4655  0.4636 -0.2492
  161SOPE   H3Y18053   1.415   4.863   9.883 -0.2234 -0.9399 -1.3480
  161SOPE   C3418054   1.597   4.810   9.754 -0.2338 -0.6280 -0.2728
  161SOPE   H4X18055   1.564   4.883   9.677  2.1572  1.5392  0.5779
  161SOPE   H4Y18056   1.565   4.717   9.703  1.2505  0.6503 -3.8749
  161SOPE   C3518057   1.750   4.807   9.771  0.1553 -0.5760  0.0667
  161SOPE   H5X18058   1.774   4.758   9.868  1.8041 -1.3925 -0.7098
  161SOPE   H5Y18059   1.793   4.909   9.775  2.2114 -1.3953 -0.0523
  161SOPE   C3618060   1.827   4.725   9.664 -0.0196  0.2816 -0.1728
  161SOPE   H6X18061   1.774   4.628   9.655 -0.5354  0.4502  0.8777
  161SOPE   H6Y18062   1.929   4.709   9.705 -0.4460 -1.7732  0.1734
  161SOPE   C3718063   1.843   4.795   9.526 -0.3247 -0.2876 -0.9688
  161SOPE   H7X18064   1.923   4.736   9.477 -0.3924  0.1992 -1.6922
  161SOPE   H7Y18065   1.885   4.894   9.552 -3.9384  0.2423  4.3595
  161SOPE   C3818066   1.721   4.806   9.436 -0.1490  0.0402  0.8899
  161SOPE   H8X18067   1.673   4.905   9.454 -0.7383  0.9599 -4.2406
  161SOPE   H8Y18068   1.646   4.725   9.452 -0.7070 -0.1339 -2.1634
  161SOPE   C3918069   1.745   4.799   9.285 -0.0032  0.4972  0.3282
  161SOPE   H9X18070   1.813   4.711   9.273 -0.3534  0.0232  1.6595
  161SOPE   H9Y18071   1.803   4.887   9.248  0.1543 -0.2214 -1.2401
  161SOPE  C31018072   1.617   4.770   9.197  0.0390  0.7622 -0.3105
  161SOPE  H10X18073   1.558   4.864   9.189 -0.6893  0.3293 -0.1596
  161SOPE  H10Y18074   1.545   4.702   9.248  0.5957  2.4511  2.9915
  161SOPE  C31118075   1.659   4.722   9.055  0.1755  0.5171  0.5032
  161SOPE  H11X18076   1.664   4.611   9.045 -2.4564  0.5534 -4.2097
  161SOPE  H11Y18077   1.751   4.774   9.021  0.2759  0.4255  0.6330
  161SOPE  C31218078   1.553   4.758   8.942  0.0227 -0.7065 -0.6821
  161SOPE  H12X18079   1.537   4.868   8.940 -1.6267 -0.8402  1.7716
  161SOPE  H12Y18080   1.454   4.709   8.955 -1.7532  2.5040 -1.0328
  161SOPE  C31318081   1.600   4.711   8.797 -0.1690  0.9215  0.4338
  161SOPE  H13X18082   1.504   4.706   8.741  1.1275 -1.1460 -1.8383
  161SOPE  H13Y18083   1.637   4.606   8.802 -0.8952  0.7070  1.6400
  161SOPE  C31418084   1.706   4.805   8.732  0.2196 -0.3952  0.0022
  161SOPE  H14X18085   1.798   4.768   8.781  1.0985 -1.0929 -2.0663
  161SOPE  H14Y18086   1.679   4.902   8.779  0.5433 -1.1432  1.8196
  161SOPE  C31518087   1.716   4.798   8.579  0.3539  0.1479  0.1830
  161SOPE  H15X18088   1.636   4.856   8.528  1.3004  1.9168  0.6301
  161SOPE  H15Y18089   1.696   4.693   8.548 -0.6794  0.9842 -2.1963
  161SOPE  C31618090   1.843   4.865   8.524  0.1154 -0.4383  0.0089
  161SOPE  H16X18091   1.929   4.801   8.550 -0.1745  0.0206  2.2938
  161SOPE  H16Y18092   1.858   4.965   8.569 -1.0002  0.0007 -0.5486
  161SOPE  C31718093   1.831   4.891   8.376 -0.0607  0.2429  0.0929
  161SOPE  H17X18094   1.751   4.967   8.361 -1.7877 -1.2733  1.1846
  161SOPE  H17Y18095   1.804   4.791   8.335  1.6902 -1.7073  3.3772
  161SOPE  C31818096   1.963   4.936   8.312 -0.1698  0.1635  0.8778
  161SOPE  H18X18097   2.026   4.989   8.386 -1.5139 -0.8271  2.8373
  161SOPE  H18Y18098   1.963   4.990   8.215  2.0997 -0.6067  0.3951
  161SOPE  H18Z18099   2.026   4.846   8.297 -2.2087 -1.4588  1.5434
  162SOPE     N18100   1.770   4.547  10.803 -0.8067 -0.2048  0.0159
  162SOPE   HN118101   1.776   4.639  10.850 -0.7425  0.2702 -0.9185
  162SOPE   HN218102   1.845   4.542  10.732 -1.5141 -4.5298 -0.7478
  162SOPE   HN318103   1.674   4.540  10.763 -0.8355 -2.5238  0.3369
  162SOPE   C1218104   1.796   4.423  10.894  0.1583 -0.2141 -0.0377
  162SOPE  H12A18105   1.727   4.432  10.981  0.5676  3.1116  0.0995
  162SOPE  H12B18106   1.894   4.429  10.947  1.2841  0.9496 -2.1228
  162SOPE   C1118107   1.780   4.300  10.804  0.0105  0.6159 -0.2687
  162SOPE  H11A18108   1.859   4.227  10.834  0.3132  0.5786 -1.1241
  162SOPE  H11B18109   1.813   4.316  10.699 -0.3765 -0.9834 -0.6600
  162SOPE     P18110   1.593   4.161  10.930  0.6635  0.1170 -0.4025
  162SOPE   O1318111   1.537   4.242  11.046  0.1739 -0.3256 -0.4064
  162SOPE   O1418112   1.700   4.066  10.960 -0.2624  0.0375  0.0847
  162SOPE   O1218113   1.645   4.252  10.818 -0.0332  0.6002 -0.1391
  162SOPE   O1118114   1.484   4.069  10.860  0.0725 -0.8360 -0.4696
  162SOPE    C118115   1.350   4.123  10.827 -0.0401 -0.3833  0.0595
  162SOPE    HA18116   1.335   4.228  10.862  1.5141  0.1402 -0.7624
  162SOPE    HB18117   1.272   4.070  10.885  1.1093 -1.8686  0.2855
  162SOPE    C218118   1.322   4.122  10.673  0.3806  0.0269 -0.6205
  162SOPE    HS18119   1.249   4.204  10.657  0.2464  0.2039  0.7752
  162SOPE   O2118120   1.264   3.995  10.633 -0.2817 -0.3775  0.4246
  162SOPE   C2118121   1.149   3.969  10.691  0.2852  0.6220  0.0739
  162SOPE   O2218122   1.083   4.041  10.760 -0.1802 -0.2098  0.0078
  162SOPE   C2218123   1.118   3.811  10.667  0.0486 -0.2292  0.6343
  162SOPE   H2R18124   1.118   3.759  10.765  0.1249 -2.9137 -0.7000
  162SOPE   H2S18125   1.201   3.771  10.605  0.8282 -0.5006  1.8304
  162SOPE    C318126   1.441   4.166  10.594 -0.2152  0.3554  0.6478
  162SOPE    HX18127   1.506   4.076  10.586  1.5440  1.6645 -0.6281
  162SOPE    HY18128   1.491   4.249  10.649  0.3278  0.9375 -0.6627
  162SOPE   O3118129   1.396   4.210  10.460 -0.0988  0.2837 -0.9992
  162SOPE   C3118130   1.492   4.258  10.380 -0.4315  0.6296 -0.4238
  162SOPE   O3218131   1.598   4.301  10.418 -0.3580 -0.3088 -0.1177
  162SOPE   C3218132   1.464   4.232  10.237  0.5739 -0.1222  0.2947
  162SOPE   H2X18133   1.379   4.298  10.210  0.0659 -0.4325  1.1034
  162SOPE   H2Y18134   1.448   4.123  10.220 -1.2643 -0.3481  2.8139
  162SOPE   C2318135   0.980   3.783  10.601 -0.3460  0.1473 -0.1484
  162SOPE   H3R18136   0.891   3.817  10.659 -0.2021  0.5054 -0.1350
  162SOPE   H3S18137   0.969   3.674  10.582 -0.1625 -0.3859  2.3974
  162SOPE   C2418138   0.964   3.868  10.473  0.0527 -0.4163  0.3351
  162SOPE   H4R18139   0.973   3.976  10.496  1.9748 -0.2609 -0.9734
  162SOPE   H4S18140   1.049   3.852  10.404  0.5044  2.2823  0.1743
  162SOPE   C2518141   0.831   3.838  10.403 -1.2001 -0.1803 -0.3281
  162SOPE   H5R18142   0.749   3.887  10.460  0.0988  2.0597 -0.2510
  162SOPE   H5S18143   0.834   3.885  10.302 -1.3076 -2.8675 -1.6917
  162SOPE   C2618144   0.785   3.689  10.374  0.1746  0.0001 -0.3052
  162SOPE   H6R18145   0.873   3.621  10.371  1.1915  1.2947 -1.2093
  162SOPE   H6S18146   0.731   3.660  10.466  2.5975 -0.1013  1.1646
  162SOPE   C2718147   0.698   3.659  10.252  0.1623  0.4479  0.8261
  162SOPE   H7R18148   0.672   3.551  10.260  1.0687  0.1776  0.2613
  162SOPE   H7S18149   0.600   3.711  10.258 -0.7872 -1.3882  1.9989
  162SOPE   C2818150   0.770   3.665  10.108  0.4929  0.6395  0.0656
  162SOPE   H8R18151   0.826   3.761  10.098  1.5269 -0.0329 -0.7841
  162SOPE   H8S18152   0.847   3.585  10.100  1.0682  1.3141 -1.4968
  162SOPE   C2918153   0.668   3.664   9.995  0.1673 -0.5650 -0.2476
  162SOPE   H9118154   0.570   3.710  10.017 -0.3579  0.6386 -4.3682
  162SOPE  C21018155   0.691   3.598   9.882  0.4209  0.5373 -0.3418
  162SOPE  H10118156   0.614   3.594   9.804  1.4231  0.6925 -1.3537
  162SOPE  C21118157   0.814   3.523   9.847  0.1871 -0.2346  0.3158
  162SOPE  H11R18158   0.786   3.419   9.821  2.3225 -0.8116  0.1828
  162SOPE  H11S18159   0.892   3.516   9.926 -1.4915  0.3736  2.1030
  162SOPE  C21218160   0.884   3.576   9.720  0.4110 -0.0411 -0.0946
  162SOPE  H12R18161   0.985   3.528   9.715 -0.8561 -3.3197  2.2883
  162SOPE  H12S18162   0.903   3.682   9.746  0.5393 -0.6907  2.7782
  162SOPE  C21318163   0.802   3.551   9.590 -0.2851  0.2282 -1.0108
  162SOPE  H13R18164   0.707   3.607   9.605  0.1315  0.2262  2.4424
  162SOPE  H13S18165   0.788   3.441   9.580 -1.3556  0.0432  1.6488
  162SOPE  C21418166   0.877   3.598   9.476  0.4442 -0.1819  0.0037
  162SOPE  H14R18167   0.973   3.542   9.465  0.2727 -0.2044 -1.7783
  162SOPE  H14S18168   0.893   3.706   9.497 -2.2221  0.3522 -0.2904
  162SOPE  C21518169   0.789   3.576   9.346 -0.6893  0.6278 -0.2914
  162SOPE  H15R18170   0.693   3.632   9.343  0.2743  2.3427 -0.7431
  162SOPE  H15S18171   0.766   3.468   9.351 -2.0241  0.9461  1.9290
  162SOPE  C21618172   0.862   3.627   9.217  0.4425 -0.5366 -0.4954
  162SOPE  H16R18173   0.958   3.571   9.211 -0.7822 -2.6769 -1.0509
  162SOPE  H16S18174   0.870   3.736   9.232 -1.7801 -0.5267  1.1749
  162SOPE  C21718175   0.769   3.610   9.094  0.2732 -0.3134  0.0494
  162SOPE  H17R18176   0.680   3.671   9.120  0.7949  1.5887 -2.3090
  162SOPE  H17S18177   0.735   3.504   9.097  1.4714 -0.7885 -1.4945
  162SOPE  C21818178   0.832   3.642   8.963 -0.8691 -0.4336 -0.3197
  162SOPE  H18R18179   0.909   3.563   8.946  0.0046  0.1080  0.9349
  162SOPE  H18S18180   0.888   3.738   8.968  0.6072 -1.3310  2.2727
  162SOPE  H18T18181   0.759   3.656   8.881 -0.4294 -0.5973 -0.7458
  162SOPE   C3318182   1.589   4.267  10.151  0.6309  1.2835 -0.3396
  162SOPE   H3X18183   1.686   4.251  10.202  1.5260  1.2343 -2.0006
  162SOPE   H3Y18184   1.598   4.377  10.135  4.2109  0.8238 -2.7845
  162SOPE   C3418185   1.581   4.183  10.023 -0.3418  0.6843  0.3772
  162SOPE   H4X18186   1.477   4.182   9.984 -0.5974 -1.2197  0.9845
  162SOPE   H4Y18187   1.588   4.078  10.058 -2.0660  0.0173 -1.0854
  162SOPE   C3518188   1.694   4.209   9.916  0.7878 -0.2399 -0.0552
  162SOPE   H5X18189   1.795   4.227   9.961  1.2261  1.7599 -1.7016
  162SOPE   H5Y18190   1.658   4.294   9.855  1.1400  0.8702  1.2307
  162SOPE   C3618191   1.717   4.092   9.818  0.6033 -0.2671 -0.2585
  162SOPE   H6X18192   1.633   4.020   9.825 -0.1679  0.4904 -1.2819
  162SOPE   H6Y18193   1.813   4.041   9.838  1.2624  1.3221  0.8548
  162SOPE   C3718194   1.729   4.134   9.667  0.1061  0.1601  0.1313
  162SOPE   H7X18195   1.639   4.197   9.648 -1.2765 -1.9280 -0.5960
  162SOPE   H7Y18196   1.700   4.045   9.607 -1.5120  1.6938 -1.5058
  162SOPE   C3818197   1.858   4.205   9.624 -0.6536 -0.5347  0.0194
  162SOPE   H8X18198   1.934   4.134   9.586 -0.9112 -1.1701  0.6756
  162SOPE   H8Y18199   1.901   4.265   9.708  0.4858 -0.4651 -0.5890
  162SOPE   C3918200   1.828   4.313   9.511  0.6496  0.3095  0.3092
  162SOPE   H9X18201   1.926   4.348   9.470 -0.0246 -0.0039 -1.6790
  162SOPE   H9Y18202   1.772   4.400   9.552  1.8258  0.2296  2.1771
  162SOPE  C31018203   1.746   4.245   9.395  0.3621  0.1029  0.3518
  162SOPE  H10X18204   1.638   4.228   9.415 -0.2585  0.2069 -2.5210
  162SOPE  H10Y18205   1.796   4.150   9.368  2.3725  0.8694  1.1556
  162SOPE  C31118206   1.742   4.355   9.284  0.0562  0.1966 -0.2539
  162SOPE  H11X18207   1.845   4.383   9.252  0.6246 -0.7165  0.6977
  162SOPE  H11Y18208   1.693   4.449   9.317  1.4501  1.4058 -1.4732
  162SOPE  C31218209   1.677   4.307   9.157 -0.5721  0.2156  0.0895
  162SOPE  H12X18210   1.665   4.388   9.083  0.5415  0.5457  0.2477
  162SOPE  H12Y18211   1.574   4.266   9.167 -0.6781  0.3688 -0.3637
  162SOPE  C31318212   1.770   4.204   9.086  0.6433  0.0195 -0.0990
  162SOPE  H13X18213   1.696   4.176   9.008 -1.4544  0.8451  1.4692
  162SOPE  H13Y18214   1.788   4.108   9.139 -0.0775  0.7702  1.5951
  162SOPE  C31418215   1.900   4.249   9.023 -0.5763  0.3688 -0.3071
  162SOPE  H14X18216   1.950   4.152   9.003 -2.1182 -0.7249  0.8785
  162SOPE  H14Y18217   1.958   4.306   9.099  1.1467 -1.4177 -0.1918
  162SOPE  C31518218   1.886   4.328   8.899  0.3694 -1.2605 -0.1658
  162SOPE  H15X18219   1.817   4.413   8.918  0.1147 -1.5408  0.1611
  162SOPE  H15Y18220   1.851   4.265   8.815  3.5018 -3.5778  0.0754
  162SOPE  C31618221   2.022   4.372   8.827 -0.4191 -0.1418  0.0037
  162SOPE  H16X18222   2.072   4.283   8.785 -0.4726  0.9711 -2.6309
  162SOPE  H16Y18223   2.077   4.417   8.912  0.1633 -1.0190  0.0994
  162SOPE  C31718224   2.009   4.483   8.721  0.5034 -0.4642  0.4945
  162SOPE  H17X18225   1.929   4.552   8.756  0.4606  0.3150 -1.0322
  162SOPE  H17Y18226   1.972   4.435   8.628  1.8814 -0.5146 -0.0493
  162SOPE  C31818227   2.140   4.567   8.692  0.0610 -0.1679 -0.0791
  162SOPE  H18X18228   2.205   4.489   8.647 -1.0979 -1.5489  0.5780
  162SOPE  H18Y18229   2.189   4.617   8.778 -1.4353 -0.2842  0.8716
  162SOPE  H18Z18230   2.120   4.643   8.613 -0.0778  1.5466  1.5264
  163SOPE     N18231   6.644   0.193  10.923 -0.5363  0.3757 -0.0870
  163SOPE   HN118232   6.672   0.136  11.004  0.0602  0.5447 -0.1698
  163SOPE   HN218233   6.714   0.167  10.851 -0.4701  0.8359 -0.1931
  163SOPE   HN318234   6.652   0.294  10.947  0.0651  0.0274  1.2065
  163SOPE   C1218235   6.501   0.157  10.887 -0.2024 -0.0363  0.4512
  163SOPE  H12A18236   6.464   0.226  10.808 -1.5273 -0.0623  1.0312
  163SOPE  H12B18237   6.436   0.165  10.976  0.2438 -0.8543  0.8669
  163SOPE   C1118238   6.480   0.015  10.837  0.7398  0.0336  0.0489
  163SOPE  H11A18239   6.519   0.025  10.734 -1.7805 -0.7557 -1.0597
  163SOPE  H11B18240   6.376  -0.021  10.824  1.0351 -0.6704 -0.4672
  163SOPE     P18241   6.580  -0.231  10.855  0.0184 -0.2144  0.0831
  163SOPE   O1318242   6.494  -0.329  10.928 -0.1552  0.0049 -0.5332
  163SOPE   O1418243   6.724  -0.246  10.854 -0.4230 -0.0826 -0.4502
  163SOPE   O1218244   6.560  -0.084  10.906 -0.3159  0.2068 -0.3957
  163SOPE   O1118245   6.529  -0.228  10.704 -0.1617 -0.1391 -0.0276
  163SOPE    C118246   6.622  -0.264  10.598 -0.1446 -0.1123 -0.7763
  163SOPE    HA18247   6.558  -0.305  10.517 -2.4596  3.1914 -0.8489
  163SOPE    HB18248   6.697  -0.341  10.626 -0.7820 -0.3307  0.4291
  163SOPE    C218249   6.692  -0.142  10.540 -0.2503 -0.3509 -0.0601
  163SOPE    HS18250   6.735  -0.085  10.624  0.0304  1.2248 -1.2260
  163SOPE   O2118251   6.592  -0.063  10.468 -0.3307 -0.4853 -0.1354
  163SOPE   C2118252   6.635   0.058  10.440 -0.1346  0.2430 -0.4924
  163SOPE   O2218253   6.739   0.107  10.475 -0.3388  0.3004 -0.4827
  163SOPE   C2218254   6.530   0.147  10.374  0.3140 -0.0956  0.4042
  163SOPE   H2R18255   6.498   0.227  10.444  0.3393  0.6184 -0.3788
  163SOPE   H2S18256   6.434   0.092  10.361  1.4452 -2.0297 -0.0038
  163SOPE    C318257   6.806  -0.184  10.436 -0.8089 -0.2375 -0.1667
  163SOPE    HX18258   6.878  -0.242  10.497 -1.3815 -0.8341 -0.0537
  163SOPE    HY18259   6.854  -0.091  10.397 -2.4091  1.0647  0.8550
  163SOPE   O3118260   6.758  -0.278  10.340  0.0645  0.3077  0.5565
  163SOPE   C3118261   6.725  -0.238  10.215  0.3122  0.3186  0.7544
  163SOPE   O3218262   6.739  -0.123  10.174  0.6708 -0.2568  0.9341
  163SOPE   C3218263   6.669  -0.357  10.124 -0.4402  0.6073 -0.4573
  163SOPE   H2X18264   6.603  -0.405  10.200  1.4983  0.8617  1.5137
  163SOPE   H2Y18265   6.749  -0.429  10.096  0.3415  1.1346  0.3580
  163SOPE   C2318266   6.584   0.215  10.247  0.0940  0.2274  0.8179
  163SOPE   H3R18267   6.617   0.143  10.169  0.7501  0.3485  0.9817
  163SOPE   H3S18268   6.673   0.276  10.271 -0.5322  0.9662  1.3094
  163SOPE   C2418269   6.480   0.307  10.172  0.0583  0.3400 -0.4101
  163SOPE   H4R18270   6.389   0.243  10.168 -0.4470  0.7120  2.8004
  163SOPE   H4S18271   6.459   0.391  10.241 -1.8374 -0.5902  0.2178
  163SOPE   C2518272   6.524   0.357  10.034 -0.6383 -0.9014  0.6037
  163SOPE   H5R18273   6.609   0.428  10.025 -1.9229  0.4248 -2.2089
  163SOPE   H5S18274   6.556   0.274   9.966  1.4598 -0.7721  1.3510
  163SOPE   C2618275   6.411   0.424   9.958  0.9639 -0.2212 -0.0339
  163SOPE   H6R18276   6.337   0.352   9.916  0.9269  1.0975 -2.4074
  163SOPE   H6S18277   6.348   0.482  10.029  1.8903  1.0948 -0.2720
  163SOPE   C2718278   6.455   0.506   9.839  0.0796 -0.4305 -0.2923
  163SOPE   H7R18279   6.492   0.603   9.880  0.0961 -0.7268  0.4029
  163SOPE   H7S18280   6.535   0.448   9.789  0.5702  1.5175 -1.9154
  163SOPE   C2818281   6.337   0.546   9.748 -0.8974 -0.2149 -0.8816
  163SOPE   H8R18282   6.282   0.453   9.722 -2.7022 -0.2544  2.4980
  163SOPE   H8S18283   6.264   0.606   9.805  0.1856  1.6371 -1.3553
  163SOPE   C2918284   6.391   0.636   9.640  0.4022  0.1455  0.4248
  163SOPE   H9118285   6.389   0.738   9.680 -0.3602 -0.6310  2.5472
  163SOPE  C21018286   6.434   0.611   9.517  0.4841  0.1520  0.5399
  163SOPE  H10118287   6.474   0.700   9.468  2.7055 -0.3007  1.3887
  163SOPE  C21118288   6.425   0.480   9.432 -0.1506  0.2821  0.1590
  163SOPE  H11R18289   6.344   0.413   9.467 -1.2953  2.3348  1.6729
  163SOPE  H11S18290   6.519   0.420   9.430 -1.9769 -2.8019 -1.8058
  163SOPE  C21218291   6.393   0.509   9.279  0.0691  1.2531  0.2197
  163SOPE  H12R18292   6.409   0.411   9.230 -0.7244 -0.7648  3.7125
  163SOPE  H12S18293   6.464   0.579   9.231  1.4928 -1.4314 -1.8638
  163SOPE  C21318294   6.256   0.559   9.251 -0.2955 -0.7471  0.5109
  163SOPE  H13R18295   6.221   0.646   9.311  1.2809  0.8435 -0.7834
  163SOPE  H13S18296   6.190   0.475   9.282  0.2630 -0.8168  1.5602
  163SOPE  C21418297   6.232   0.580   9.099  0.2405 -0.0591 -0.3997
  163SOPE  H14R18298   6.253   0.477   9.062 -0.5178 -0.5638  0.5267
  163SOPE  H14S18299   6.313   0.648   9.065 -0.2203  0.0795 -1.2514
  163SOPE  C21518300   6.094   0.615   9.058 -0.5874  0.0324  0.0990
  163SOPE  H15R18301   6.063   0.714   9.098 -0.8549 -0.5424  1.3839
  163SOPE  H15S18302   6.025   0.549   9.115 -0.3213  1.0804  1.7174
  163SOPE  C21618303   6.090   0.626   8.905  0.6958  1.0613  0.6682
  163SOPE  H16R18304   6.093   0.520   8.872  0.6496  1.5768 -1.1112
  163SOPE  H16S18305   6.175   0.678   8.857 -0.8968  2.2338 -1.0396
  163SOPE  C21718306   5.968   0.696   8.844  0.1672 -0.4505 -0.7009
  163SOPE  H17R18307   5.972   0.805   8.868  2.5342 -0.4843 -0.7081
  163SOPE  H17S18308   5.870   0.659   8.879  0.0138  1.3194  0.9594
  163SOPE  C21818309   5.981   0.714   8.695  0.5355 -0.2553 -0.0172
  163SOPE  H18R18310   6.063   0.782   8.661  1.6949 -1.7831 -0.3630
  163SOPE  H18S18311   5.890   0.763   8.656 -1.0602 -1.4040  2.0750
  163SOPE  H18T18312   5.989   0.618   8.641  3.7419 -0.4338  0.5649
  163SOPE   C3318313   6.603  -0.296  10.004  0.4065 -1.0790 -0.1135
  163SOPE   H3X18314   6.676  -0.228   9.953 -1.2249 -0.1126 -1.2692
  163SOPE   H3Y18315   6.518  -0.229  10.027 -0.9848 -2.5119 -0.9274
  163SOPE   C3418316   6.556  -0.407   9.905  0.4780 -0.7035  0.1767
  163SOPE   H4X18317   6.455  -0.445   9.929  1.0902 -2.8990 -0.5021
  163SOPE   H4Y18318   6.639  -0.480   9.909 -0.2146 -1.4747  0.7548
  163SOPE   C3518319   6.550  -0.361   9.755 -0.5409  0.3947  0.2260
  163SOPE   H5X18320   6.654  -0.339   9.722 -0.8307  1.9749  0.2801
  163SOPE   H5Y18321   6.489  -0.269   9.760 -0.4518  0.4788 -0.2158
  163SOPE   C3618322   6.479  -0.447   9.651 -0.5718  0.4489 -0.0606
  163SOPE   H6X18323   6.399  -0.509   9.694 -1.3214 -1.1915 -3.5133
  163SOPE   H6Y18324   6.548  -0.519   9.602 -0.5906  1.6204 -1.9080
  163SOPE   C3718325   6.416  -0.358   9.539 -0.0134  0.3771  0.6345
  163SOPE   H7X18326   6.503  -0.303   9.497 -1.1338  1.6139 -0.1382
  163SOPE   H7Y18327   6.349  -0.280   9.583  1.6216  1.4914  1.2539
  163SOPE   C3818328   6.347  -0.424   9.420 -0.1779  0.2673  0.1211
  163SOPE   H8X18329   6.256  -0.473   9.460 -1.1254  2.2172  0.5039
  163SOPE   H8Y18330   6.420  -0.499   9.383  0.3677  1.7320 -1.9427
  163SOPE   C3918331   6.304  -0.340   9.295  0.1243  0.0648 -0.3613
  163SOPE   H9X18332   6.393  -0.301   9.242 -0.2599  3.3158  1.1616
  163SOPE   H9Y18333   6.240  -0.252   9.321  1.3432  0.2669  2.2352
  163SOPE  C31018334   6.225  -0.427   9.195 -0.0588 -0.0732  0.2276
  163SOPE  H10X18335   6.120  -0.436   9.230 -0.3525  1.1183 -0.2960
  163SOPE  H10Y18336   6.282  -0.522   9.195  1.5837  0.7989  2.9826
  163SOPE  C31118337   6.236  -0.366   9.049  0.8291 -0.3072  0.1583
  163SOPE  H11X18338   6.339  -0.352   9.010  0.5457  1.2857 -0.0636
  163SOPE  H11Y18339   6.205  -0.260   9.056 -1.3357 -0.7237 -1.7639
  163SOPE  C31218340   6.147  -0.434   8.945  0.5499 -0.0935 -0.0334
  163SOPE  H12X18341   6.040  -0.432   8.973  0.4523 -2.2828 -0.0966
  163SOPE  H12Y18342   6.186  -0.537   8.933 -0.9171 -0.5535 -1.1595
  163SOPE  C31318343   6.161  -0.353   8.815  0.2069  0.6950  0.3160
  163SOPE  H13X18344   6.267  -0.360   8.782 -0.1459  0.1598 -0.7542
  163SOPE  H13Y18345   6.136  -0.245   8.828  2.1728  1.3966 -1.1831
  163SOPE  C31418346   6.077  -0.431   8.711  0.0135 -0.6601 -0.0373
  163SOPE  H14X18347   5.976  -0.465   8.743  0.5356 -0.7968  1.5784
  163SOPE  H14Y18348   6.130  -0.529   8.710  1.8009  0.2676  0.0306
  163SOPE  C31518349   6.091  -0.357   8.572 -0.4595 -0.0409  0.3748
  163SOPE  H15X18350   6.200  -0.356   8.555 -0.5547  0.3961 -0.2456
  163SOPE  H15Y18351   6.069  -0.248   8.579  2.5885  0.9123 -2.5259
  163SOPE  C31618352   6.023  -0.434   8.459  0.1913 -0.5825  0.4935
  163SOPE  H16X18353   5.913  -0.443   8.476 -0.2110 -1.7031 -2.2623
  163SOPE  H16Y18354   6.056  -0.540   8.451  3.1392  0.3808 -2.1398
  163SOPE  C31718355   6.050  -0.365   8.320 -0.2276  0.5878 -0.0199
  163SOPE  H17X18356   6.157  -0.382   8.294 -0.3055  0.7998 -0.4886
  163SOPE  H17Y18357   6.040  -0.254   8.331  3.0610  0.9842 -0.0155
  163SOPE  C31818358   5.966  -0.420   8.207 -0.3195 -1.0003  0.2149
  163SOPE  H18X18359   6.004  -0.384   8.108  0.4102  0.1089  0.8746
  163SOPE  H18Y18360   5.862  -0.385   8.219 -0.2324 -0.0699 -1.3513
  163SOPE  H18Z18361   5.970  -0.529   8.191  1.6860 -0.8072 -1.1097
  164SOPE     N18362   3.525   1.591  10.748  0.0217  0.4817 -0.2998
  164SOPE   HN118363   3.495   1.639  10.661 -0.3951 -2.2192 -1.7339
  164SOPE   HN218364   3.608   1.531  10.732 -0.4262 -0.3642  0.4409
  164SOPE   HN318365   3.452   1.528  10.787 -0.2324  1.7222  1.3917
  164SOPE   C1218366   3.552   1.673  10.874 -0.6586 -0.0425  0.4178
  164SOPE  H12A18367   3.558   1.601  10.959  0.3535  0.9168  1.1932
  164SOPE  H12B18368   3.457   1.724  10.900 -0.9109 -1.2226  1.9487
  164SOPE   C1118369   3.684   1.751  10.881  0.3432  0.7344 -1.1051
  164SOPE  H11A18370   3.679   1.795  10.983 -2.4026 -1.5966 -0.0783
  164SOPE  H11B18371   3.669   1.838  10.814  0.6217  0.4513 -1.5414
  164SOPE     P18372   3.917   1.747  10.785  0.3061  0.2363  0.3285
  164SOPE   O1318373   4.015   1.646  10.733 -0.1331  0.3429 -0.5860
  164SOPE   O1418374   3.973   1.848  10.872  0.0442  0.0953  0.0461
  164SOPE   O1218375   3.795   1.670  10.854 -0.8816 -1.0947 -0.3362
  164SOPE   O1118376   3.849   1.808  10.653 -0.3081 -0.1278  0.0152
  164SOPE    C118377   3.798   1.724  10.547 -0.1440 -0.0529 -0.6538
  164SOPE    HA18378   3.704   1.776  10.520  1.2778  2.6791 -0.7101
  164SOPE    HB18379   3.768   1.625  10.587 -1.2940  1.0604  1.3826
  164SOPE    C218380   3.895   1.698  10.423 -0.4782 -0.0480 -1.0931
  164SOPE    HS18381   3.993   1.667  10.465 -0.6170 -0.7822 -1.2916
  164SOPE   O2118382   3.903   1.826  10.365  0.4991 -0.5173 -0.0227
  164SOPE   C2118383   4.020   1.879  10.322 -0.0047  0.7661  0.3414
  164SOPE   O2218384   4.126   1.830  10.337 -0.8357 -0.1142  0.1628
  164SOPE   C2218385   4.007   2.008  10.249 -0.2124 -1.2572  0.2510
  164SOPE   H2R18386   4.051   2.085  10.315 -0.8702 -1.1120  0.5264
  164SOPE   H2S18387   3.901   2.035  10.231 -0.0475 -1.1721 -0.6639
  164SOPE    C318388   3.840   1.593  10.326 -0.3952  0.2002  0.3228
  164SOPE    HX18389   3.737   1.629  10.304 -0.3704 -0.4483 -0.8918
  164SOPE    HY18390   3.837   1.493  10.375 -2.9683  0.3587  0.6278
  164SOPE   O3118391   3.927   1.591  10.209 -0.0331 -0.8365 -0.0812
  164SOPE   C3118392   3.882   1.493  10.126  0.2949 -0.1384  0.1343
  164SOPE   O3218393   3.792   1.411  10.158 -0.0604 -0.4674 -0.0549
  164SOPE   C3218394   3.956   1.491   9.997 -0.0727  0.5978 -0.3041
  164SOPE   H2X18395   4.063   1.476  10.020 -0.5007 -1.1495  0.7459
  164SOPE   H2Y18396   3.938   1.593   9.956 -2.5776  1.0454  1.6679
  164SOPE   C2318397   4.076   1.996  10.116  0.4282 -0.1558 -0.4155
  164SOPE   H3R18398   4.053   1.897  10.072 -0.0986  0.2251 -1.0133
  164SOPE   H3S18399   4.183   2.020  10.136 -0.5280  1.6201  3.6155
  164SOPE   C2418400   4.023   2.106  10.023  0.1366 -0.2078  0.6598
  164SOPE   H4R18401   3.917   2.081  10.002  0.7959 -1.3166 -1.6887
  164SOPE   H4S18402   4.043   2.205  10.070  0.0617 -1.4622  3.5525
  164SOPE   C2518403   4.088   2.104   9.886 -0.0782 -0.3931 -0.4781
  164SOPE   H5R18404   4.194   2.136   9.900 -0.4854  0.0448  2.0891
  164SOPE   H5S18405   4.089   1.996   9.860  0.1803 -0.2528 -1.0789
  164SOPE   C2618406   4.026   2.194   9.778  0.8435 -0.2560 -0.7424
  164SOPE   H6R18407   3.936   2.144   9.737 -1.0607  2.6789 -0.4657
  164SOPE   H6S18408   3.991   2.286   9.829  2.8504  0.2894 -0.2267
  164SOPE   C2718409   4.127   2.242   9.671 -0.0799  0.6573  0.2790
  164SOPE   H7R18410   4.193   2.308   9.731 -1.3598 -1.0119  3.8357
  164SOPE   H7S18411   4.190   2.153   9.651 -1.5271 -0.4522  0.5270
  164SOPE   C2818412   4.071   2.314   9.544 -1.0279 -0.2958  0.0690
  164SOPE   H8R18413   3.998   2.390   9.581  0.3626  0.5677  1.1171
  164SOPE   H8S18414   4.159   2.367   9.503 -0.3871 -1.0475  0.4616
  164SOPE   C2918415   4.005   2.225   9.444  0.2415  0.4411 -0.2752
  164SOPE   H9118416   3.913   2.173   9.476  1.3149 -1.2401  0.2665
  164SOPE  C21018417   4.051   2.192   9.322 -0.0778  0.6029 -0.5645
  164SOPE  H10118418   3.994   2.117   9.264 -1.0703  1.6873 -1.0293
  164SOPE  C21118419   4.181   2.237   9.253  0.6001 -0.5871 -0.1798
  164SOPE  H11R18420   4.248   2.295   9.319  1.1887 -0.9840 -0.4181
  164SOPE  H11S18421   4.151   2.313   9.177 -0.1267 -0.7194 -0.0310
  164SOPE  C21218422   4.265   2.121   9.200 -0.1232 -0.6391  0.3873
  164SOPE  H12R18423   4.269   2.045   9.281  4.2568 -0.3658  0.6378
  164SOPE  H12S18424   4.366   2.162   9.179 -0.8309  0.6578 -0.5984
  164SOPE  C21318425   4.207   2.068   9.073 -0.6483  0.1689  0.6359
  164SOPE  H13R18426   4.153   2.143   9.011 -1.2600 -0.5789  0.2378
  164SOPE  H13S18427   4.128   1.995   9.100 -2.1029  1.6339  0.5013
  164SOPE  C21418428   4.313   1.993   8.995 -0.1325 -0.5411 -0.1644
  164SOPE  H14R18429   4.265   1.914   8.933 -1.8922  0.8742 -0.6799
  164SOPE  H14S18430   4.385   1.938   9.060 -0.5424  1.5829  2.2441
  164SOPE  C21518431   4.388   2.087   8.898  0.2204 -0.8326 -0.7989
  164SOPE  H15R18432   4.468   2.137   8.955  0.6791 -1.2280 -1.0857
  164SOPE  H15S18433   4.315   2.161   8.860  0.1241  0.1121  1.1452
  164SOPE  C21618434   4.434   2.028   8.763  0.6889  0.7127 -0.1507
  164SOPE  H16R18435   4.470   2.110   8.698  0.1944  0.8801 -0.2217
  164SOPE  H16S18436   4.339   1.986   8.722  0.3701 -0.1790  1.4495
  164SOPE  C21718437   4.537   1.917   8.783 -1.0974  0.7245 -0.1103
  164SOPE  H17R18438   4.524   1.840   8.704  0.1167 -0.4709  0.8123
  164SOPE  H17S18439   4.513   1.866   8.878 -1.7582 -1.2001 -1.2667
  164SOPE  C21818440   4.680   1.967   8.794  0.0630  0.5779  0.7092
  164SOPE  H18R18441   4.691   2.023   8.890  4.4197  2.4267 -0.6107
  164SOPE  H18S18442   4.706   2.027   8.704 -2.6852  1.7046  0.5405
  164SOPE  H18T18443   4.747   1.879   8.799  0.0997  0.5621  0.0212
  164SOPE   C3318444   3.917   1.374   9.910  0.1934  0.1895 -0.5666
  164SOPE   H3X18445   3.896   1.281   9.966 -1.4084  0.9174  0.0911
  164SOPE   H3Y18446   4.000   1.355   9.838  2.3599 -0.4488  1.9345
  164SOPE   C3418447   3.796   1.402   9.819  0.2940 -0.4207 -0.0206
  164SOPE   H4X18448   3.814   1.487   9.750  0.2288 -1.4279 -1.3154
  164SOPE   H4Y18449   3.707   1.439   9.875  0.3076  0.0590 -0.3091
  164SOPE   C3518450   3.740   1.297   9.733  0.7260 -0.0773  0.0008
  164SOPE   H5X18451   3.705   1.227   9.812 -0.7400 -2.6344 -2.6842
  164SOPE   H5Y18452   3.822   1.254   9.672 -0.0482 -1.4325 -0.1295
  164SOPE   C3618453   3.628   1.330   9.639 -0.0616 -0.2728 -0.2437
  164SOPE   H6X18454   3.538   1.337   9.704  0.5921 -0.3741  0.6877
  164SOPE   H6Y18455   3.600   1.245   9.574  1.9498  0.0574 -1.6185
  164SOPE   C3718456   3.657   1.446   9.547 -0.0518 -0.1537  0.5117
  164SOPE   H7X18457   3.757   1.445   9.498 -0.9844 -1.4232 -1.5381
  164SOPE   H7Y18458   3.650   1.537   9.610 -0.8496 -0.6431  1.1463
  164SOPE   C3818459   3.552   1.460   9.433 -0.0179 -0.7887 -0.3035
  164SOPE   H8X18460   3.457   1.490   9.482  0.8051  2.5050 -0.4823
  164SOPE   H8Y18461   3.546   1.364   9.377  3.9025 -0.9077 -0.8091
  164SOPE   C3918462   3.576   1.571   9.324  0.9803  0.3358 -0.2478
  164SOPE   H9X18463   3.685   1.588   9.310  0.8124  2.2462  0.5388
  164SOPE   H9Y18464   3.555   1.675   9.357  0.2820  0.0004  0.4100
  164SOPE  C31018465   3.504   1.559   9.183  0.2795  0.3757 -0.1230
  164SOPE  H10X18466   3.394   1.573   9.196  0.3109 -0.0824  0.7414
  164SOPE  H10Y18467   3.514   1.460   9.134  1.7457  0.9839 -1.1392
  164SOPE  C31118468   3.555   1.672   9.102 -0.0492 -0.9942  0.1923
  164SOPE  H11X18469   3.666   1.669   9.089  0.0883 -2.4417  1.4359
  164SOPE  H11Y18470   3.526   1.767   9.150  0.5141 -1.7518  2.1520
  164SOPE  C31218471   3.512   1.653   8.957 -0.6871 -0.2692  0.3431
  164SOPE  H12X18472   3.403   1.673   8.952 -0.5224  0.5925 -0.0778
  164SOPE  H12Y18473   3.525   1.546   8.930 -2.1095 -0.5749  0.7657
  164SOPE  C31318474   3.580   1.741   8.856  0.5236 -0.9573 -0.2507
  164SOPE  H13X18475   3.690   1.739   8.874  1.1637 -0.6487 -3.5593
  164SOPE  H13Y18476   3.543   1.841   8.888 -0.3452 -1.7266  1.2487
  164SOPE  C31418477   3.554   1.704   8.710 -0.6445  0.0887  0.0355
  164SOPE  H14X18478   3.449   1.676   8.685 -0.1615 -1.3536 -0.4651
  164SOPE  H14Y18479   3.601   1.605   8.693 -0.9248  0.3674 -2.8037
  164SOPE  C31518480   3.606   1.812   8.611  0.6400  0.5631  0.6875
  164SOPE  H15X18481   3.713   1.828   8.636  0.3998  0.6980  1.6805
  164SOPE  H15Y18482   3.545   1.904   8.621  1.6689  1.2770  0.5012
  164SOPE  C31618483   3.624   1.755   8.468  0.1387 -0.0880 -0.4058
  164SOPE  H16X18484   3.708   1.682   8.464 -0.5742 -0.9090 -0.7672
  164SOPE  H16Y18485   3.648   1.834   8.395 -0.6095 -0.7527 -1.3933
  164SOPE  C31718486   3.502   1.692   8.406 -0.2020  0.5112 -0.7712
  164SOPE  H17X18487   3.490   1.603   8.473 -1.6357 -1.2284 -3.1822
  164SOPE  H17Y18488   3.542   1.656   8.310 -0.0919  1.1059 -0.9517
  164SOPE  C31818489   3.376   1.773   8.401  0.2301  0.3422  0.1707
  164SOPE  H18X18490   3.397   1.867   8.344 -2.0876  0.2609 -0.9164
  164SOPE  H18Y18491   3.329   1.792   8.499 -2.0359 -0.3887 -0.7087
  164SOPE  H18Z18492   3.299   1.727   8.336  1.8749 -2.3917  0.0091
  165SOPE     N18493   1.033   1.239  11.053  0.3499  0.0430 -0.2391
  165SOPE   HN118494   0.990   1.334  11.061 -0.2290 -0.2698  0.5254
  165SOPE   HN218495   0.986   1.192  10.974  0.3026 -0.0564 -0.1511
  165SOPE   HN318496   1.008   1.188  11.141 -0.5475  2.2504  0.8683
  165SOPE   C1218497   1.178   1.240  11.025 -0.1928 -0.1900 -0.5232
  165SOPE  H12A18498   1.194   1.233  10.915  0.6190 -2.3439 -0.3090
  165SOPE  H12B18499   1.226   1.151  11.071  0.2172 -1.1365 -2.6464
  165SOPE   C1118500   1.248   1.357  11.086  0.1043 -0.6123  0.5838
  165SOPE  H11A18501   1.356   1.357  11.062  0.1914  3.5870  0.0974
  165SOPE  H11B18502   1.239   1.351  11.197  0.8246  0.8265  0.7396
  165SOPE     P18503   1.284   1.605  11.019 -0.0581 -0.1746 -0.1206
  165SOPE   O1318504   1.337   1.652  11.150  0.3288 -1.1439  0.2456
  165SOPE   O1418505   1.220   1.705  10.938  0.1714 -0.5758 -0.3837
  165SOPE   O1218506   1.194   1.483  11.038  0.0562 -0.1881  0.5113
  165SOPE   O1118507   1.404   1.548  10.933  0.2806 -0.2347 -0.0058
  165SOPE    C118508   1.522   1.614  10.899 -1.1079 -0.6487 -0.1484
  165SOPE    HA18509   1.590   1.551  10.837 -0.1836  1.5335 -1.4544
  165SOPE    HB18510   1.580   1.628  10.993  0.8906 -1.1903 -1.2224
  165SOPE    C218511   1.506   1.744  10.813 -0.0623 -0.0073 -0.3577
  165SOPE    HS18512   1.457   1.824  10.872 -2.8047 -0.8803 -1.3242
  165SOPE   O2118513   1.425   1.693  10.706 -0.4476 -0.1006  0.0199
  165SOPE   C2118514   1.337   1.783  10.656  0.0359  0.0636  0.2743
  165SOPE   O2218515   1.316   1.895  10.707  0.5517 -0.6874 -0.3352
  165SOPE   C2218516   1.296   1.742  10.520  0.3793  0.1861 -0.4426
  165SOPE   H2R18517   1.240   1.824  10.469  0.0410 -1.1789 -2.3894
  165SOPE   H2S18518   1.233   1.652  10.534  0.0926  0.2795 -1.0912
  165SOPE    C318519   1.641   1.784  10.757 -0.0861 -0.1539  0.8866
  165SOPE    HX18520   1.673   1.696  10.696 -1.3979 -0.1418  0.1488
  165SOPE    HY18521   1.715   1.807  10.836  0.3095 -0.7290  0.6952
  165SOPE   O3118522   1.621   1.900  10.674 -0.0813  0.0733  0.2099
  165SOPE   C3118523   1.718   1.963  10.624  0.5001 -0.1400  0.0599
  165SOPE   O3218524   1.834   1.943  10.640 -0.1986 -0.2678  0.3059
  165SOPE   C3218525   1.656   2.084  10.546 -0.3087 -0.1031 -0.0708
  165SOPE   H2X18526   1.671   2.180  10.600  3.0399  0.0558 -1.0747
  165SOPE   H2Y18527   1.547   2.073  10.531 -0.0382  0.3035 -2.8959
  165SOPE   C2318528   1.424   1.699  10.438  1.0742  0.7606 -0.1859
  165SOPE   H3R18529   1.481   1.614  10.481  0.9635 -0.6740 -2.6552
  165SOPE   H3S18530   1.484   1.793  10.444  0.3512  1.1895  0.4741
  165SOPE   C2418531   1.372   1.664  10.294 -0.5504  0.4495 -0.1252
  165SOPE   H4R18532   1.300   1.581  10.311 -0.6580  0.5662 -0.0042
  165SOPE   H4S18533   1.325   1.747  10.238 -2.6787 -1.8412 -1.9527
  165SOPE   C2518534   1.482   1.583  10.214  0.0111 -0.2512  0.2539
  165SOPE   H5R18535   1.560   1.658  10.191 -0.5510  0.7795  1.5842
  165SOPE   H5S18536   1.536   1.503  10.269  2.4862  0.3703 -1.1277
  165SOPE   C2618537   1.422   1.529  10.081 -1.1514  0.1546 -0.0055
  165SOPE   H6R18538   1.351   1.451  10.115 -0.1809 -0.4657  0.6578
  165SOPE   H6S18539   1.380   1.618  10.030  2.5095  0.8262 -2.2526
  165SOPE   C2718540   1.532   1.469   9.992 -0.0572 -0.3580 -0.1272
  165SOPE   H7R18541   1.596   1.405  10.057 -0.7997  0.5060  1.5104
  165SOPE   H7S18542   1.497   1.398   9.914  0.8166 -1.7907  0.7242
  165SOPE   C2818543   1.613   1.573   9.915 -0.6658  0.0746  0.0807
  165SOPE   H8R18544   1.546   1.647   9.866  1.1040  1.5709 -0.1768
  165SOPE   H8S18545   1.675   1.624   9.992 -0.2821 -2.1191  1.3050
  165SOPE   C2918546   1.716   1.514   9.821 -0.6653 -0.1294  0.9160
  165SOPE   H9118547   1.813   1.500   9.871  0.5216 -1.0580 -1.5012
  165SOPE  C21018548   1.710   1.502   9.687  0.4385 -0.5097 -0.0936
  165SOPE  H10118549   1.782   1.439   9.632 -2.1850 -3.4109 -0.4635
  165SOPE  C21118550   1.598   1.541   9.598  0.0616  0.5677 -0.7895
  165SOPE  H11R18551   1.529   1.608   9.654 -1.2051 -0.0176 -1.6054
  165SOPE  H11S18552   1.535   1.455   9.568 -1.4016  1.7566 -1.2797
  165SOPE  C21218553   1.653   1.610   9.476  0.2155 -0.2808  0.2906
  165SOPE  H12R18554   1.724   1.684   9.518 -1.3087  1.7922 -0.6425
  165SOPE  H12S18555   1.573   1.673   9.432  1.5385  1.1012 -0.2194
  165SOPE  C21318556   1.716   1.516   9.369 -0.1926 -0.2817  0.5139
  165SOPE  H13R18557   1.661   1.425   9.336  1.8060 -0.9019 -1.3393
  165SOPE  H13S18558   1.809   1.471   9.411  0.1477 -0.7919 -0.7346
  165SOPE  C21418559   1.768   1.584   9.249  0.2627 -0.3350 -0.4441
  165SOPE  H14R18560   1.826   1.678   9.262  2.0018 -1.2502 -1.2368
  165SOPE  H14S18561   1.678   1.621   9.195  0.2159  0.6664  0.2948
  165SOPE  C21518562   1.848   1.480   9.171  0.3711  0.2489 -0.2421
  165SOPE  H15R18563   1.793   1.384   9.171  2.4401 -1.0057  1.0634
  165SOPE  H15S18564   1.948   1.465   9.217  0.1463 -1.8417 -0.3448
  165SOPE  C21618565   1.870   1.529   9.027  0.2664  0.0483  0.5322
  165SOPE  H16R18566   1.909   1.633   9.022  1.2562 -0.2506  1.4287
  165SOPE  H16S18567   1.776   1.528   8.968  1.7876 -0.5216 -2.0360
  165SOPE  C21718568   1.989   1.462   8.949  0.1697  0.1629  0.0788
  165SOPE  H17R18569   2.074   1.470   9.019 -0.8374  3.1403  1.1136
  165SOPE  H17S18570   2.006   1.528   8.861  1.0520 -0.3610 -0.1511
  165SOPE  C21818571   1.960   1.319   8.908  0.0002  0.2902  0.6613
  165SOPE  H18R18572   1.861   1.316   8.858 -0.1168 -0.2240  0.9169
  165SOPE  H18S18573   1.948   1.255   8.999  0.7274 -1.2170 -0.2716
  165SOPE  H18T18574   2.042   1.286   8.841  0.3882  0.3779  1.0837
  165SOPE   C3318575   1.713   2.109  10.400  1.1175 -0.2699  0.6963
  165SOPE   H3X18576   1.800   2.177  10.394 -1.1818  2.8596 -0.1422
  165SOPE   H3Y18577   1.634   2.168  10.348  0.3090 -0.6618  1.4493
  165SOPE   C3418578   1.749   1.984  10.323  0.5110  0.4171 -1.0866
  165SOPE   H4X18579   1.664   1.912  10.324  1.2049 -0.4319  0.2593
  165SOPE   H4Y18580   1.828   1.929  10.379 -0.2992  0.4648  0.1301
  165SOPE   C3518581   1.800   2.005  10.180  0.4724  0.2400 -0.1149
  165SOPE   H5X18582   1.883   2.079  10.177  1.0334 -0.3900 -0.3764
  165SOPE   H5Y18583   1.712   2.047  10.128 -0.9926 -2.1695  0.2475
  165SOPE   C3618584   1.864   1.877  10.108 -0.3754  0.6888 -0.6895
  165SOPE   H6X18585   1.801   1.789  10.132 -0.7426  1.0086 -0.4741
  165SOPE   H6Y18586   1.963   1.849  10.150 -1.0408 -0.0383  0.4273
  165SOPE   C3718587   1.887   1.901   9.958  0.1508  0.4682  1.4376
  165SOPE   H7X18588   1.923   1.804   9.918 -0.6112  0.2503  1.2752
  165SOPE   H7Y18589   1.961   1.982   9.937 -0.3901  0.4705 -0.7286
  165SOPE   C3818590   1.766   1.936   9.865 -0.1517  0.1665  0.8406
  165SOPE   H8X18591   1.730   2.039   9.885  0.1689 -0.0758  2.7848
  165SOPE   H8Y18592   1.677   1.873   9.883 -0.4024 -0.0262 -0.8296
  165SOPE   C3918593   1.810   1.926   9.715  0.6480  0.4336 -0.0254
  165SOPE   H9X18594   1.859   1.828   9.698 -0.4315 -0.2740  0.8248
  165SOPE   H9Y18595   1.890   2.001   9.694 -0.5553  1.6835 -0.2972
  165SOPE  C31018596   1.694   1.951   9.622  0.6391  0.2924  0.6368
  165SOPE  H10X18597   1.653   2.052   9.642 -0.4488  0.1697 -0.7756
  165SOPE  H10Y18598   1.624   1.865   9.631  2.2519 -1.0655  0.6599
  165SOPE  C31118599   1.740   1.954   9.479  0.3138 -0.1876 -0.2254
  165SOPE  H11X18600   1.790   1.860   9.447  1.4633  0.9637 -2.0080
  165SOPE  H11Y18601   1.801   2.046   9.466 -0.8821  0.4963 -1.2578
  165SOPE  C31218602   1.628   1.957   9.372 -0.2590 -0.7240  0.0281
  165SOPE  H12X18603   1.567   2.047   9.390 -0.8573 -0.8770 -1.1575
  165SOPE  H12Y18604   1.569   1.863   9.366  0.2709 -1.0741  0.1350
  165SOPE  C31318605   1.692   1.966   9.229 -0.9350 -0.1275  0.1307
  165SOPE  H13X18606   1.753   1.875   9.214 -0.6346  0.2154 -0.8081
  165SOPE  H13Y18607   1.754   2.056   9.210  1.4002 -1.9967 -1.6485
  165SOPE  C31418608   1.586   1.963   9.114  0.3730 -0.0478 -0.2873
  165SOPE  H14X18609   1.534   1.866   9.101  0.7903 -0.4736  1.0378
  165SOPE  H14Y18610   1.639   1.963   9.016  0.2154 -1.5096 -0.3881
  165SOPE  C31518611   1.484   2.079   9.126 -0.4926 -0.7185 -0.3781
  165SOPE  H15X18612   1.526   2.168   9.179 -1.5801  0.0824 -0.8090
  165SOPE  H15Y18613   1.391   2.052   9.182  0.3466 -0.7900  1.0434
  165SOPE  C31618614   1.452   2.135   8.987  0.3963 -0.7793 -0.0975
  165SOPE  H16X18615   1.433   2.056   8.910  2.1941 -0.4866 -0.8859
  165SOPE  H16Y18616   1.546   2.170   8.940  0.4262 -3.1176 -2.0311
  165SOPE  C31718617   1.362   2.262   8.984 -0.8608  0.2864 -0.1205
  165SOPE  H17X18618   1.361   2.297   8.878  1.8742 -2.7193 -1.3007
  165SOPE  H17Y18619   1.416   2.338   9.044 -0.5027 -1.8009  2.3411
  165SOPE  C31818620   1.221   2.251   9.047 -0.3836 -0.2365  0.3549
  165SOPE  H18X18621   1.171   2.350   9.036  2.6958  1.3798 -0.0421
  165SOPE  H18Y18622   1.227   2.236   9.157  0.4939 -0.8153  0.2425
  165SOPE  H18Z18623   1.155   2.172   9.005  0.7892 -0.6614 -0.7479
  166SOPE     N18624   4.810   2.082  10.849 -0.3893  0.0328 -0.1531
  166SOPE   HN118625   4.899   2.125  10.881 -1.6719  3.4958 -0.7628
  166SOPE   HN218626   4.795   2.120  10.753  2.2751 -0.7611 -0.9826
  166SOPE   HN318627   4.735   2.116  10.912  0.2046 -1.4703  1.4544
  166SOPE   C1218628   4.830   1.929  10.856 -0.1999 -0.1451  0.3127
  166SOPE  H12A18629   4.822   1.897  10.750 -0.8797  1.4080 -0.1299
  166SOPE  H12B18630   4.745   1.893  10.918 -0.0634 -0.1207  0.5120
  166SOPE   C1118631   4.953   1.888  10.932 -0.2801 -0.1492  0.3299
  166SOPE  H11A18632   4.958   1.778  10.941 -0.2315 -0.1095  0.8039
  166SOPE  H11B18633   4.936   1.928  11.034 -0.8300 -0.4047  0.3390
  166SOPE     P18634   5.205   1.877  10.883  0.2949  0.1343 -0.3182
  166SOPE   O1318635   5.193   1.747  10.821  0.1895  0.2136 -0.3157
  166SOPE   O1418636   5.267   1.885  11.017  0.5813 -0.0505  0.1157
  166SOPE   O1218637   5.066   1.957  10.872  0.3739  0.1048  0.4618
  166SOPE   O1118638   5.307   1.961  10.792  0.1548  0.3217 -0.3033
  166SOPE    C118639   5.282   2.099  10.758 -0.2755 -0.0133 -0.6401
  166SOPE    HA18640   5.367   2.166  10.783 -0.7500  0.2743  0.2723
  166SOPE    HB18641   5.195   2.127  10.821 -0.1312 -1.1934  0.1064
  166SOPE    C218642   5.235   2.117  10.614  0.1773  0.3115 -0.0821
  166SOPE    HS18643   5.168   2.029  10.601  0.2809  0.2880 -0.4504
  166SOPE   O2118644   5.345   2.110  10.523 -0.1019 -0.6751  0.6474
  166SOPE   C2118645   5.382   1.993  10.483 -0.2872  0.0352 -0.9180
  166SOPE   O2218646   5.310   1.892  10.494  0.1672 -0.1623 -0.5345
  166SOPE   C2218647   5.524   2.005  10.425  0.2614 -0.6062 -0.2176
  166SOPE   H2R18648   5.604   1.987  10.501  0.2139  0.5597  0.1376
  166SOPE   H2S18649   5.535   2.110  10.390 -2.4112 -0.8513 -2.0887
  166SOPE    C318650   5.162   2.253  10.595 -0.0836  0.2006  0.6157
  166SOPE    HX18651   5.232   2.338  10.613  2.0947 -1.1147 -1.1539
  166SOPE    HY18652   5.081   2.267  10.670 -0.9082  2.6507 -0.6148
  166SOPE   O3118653   5.099   2.262  10.463 -0.2765 -0.4002 -0.7252
  166SOPE   C3118654   5.156   2.326  10.365 -0.9888  0.1253  0.0251
  166SOPE   O3218655   5.268   2.382  10.371  1.0574  0.2343 -0.4793
  166SOPE   C3218656   5.075   2.340  10.235  0.0373  0.0777 -0.1658
  166SOPE   H2X18657   4.969   2.346  10.265  0.0665  0.0116 -0.0494
  166SOPE   H2Y18658   5.093   2.249  10.173  1.1048  0.4345 -0.4123
  166SOPE   C2318659   5.561   1.921  10.299 -0.4450  0.5443  0.5531
  166SOPE   H3R18660   5.573   1.813  10.324  1.4637  0.2942 -1.2312
  166SOPE   H3S18661   5.661   1.950  10.260 -1.3943  1.0562 -1.6234
  166SOPE   C2418662   5.465   1.929  10.181 -0.8178 -0.3750  0.2948
  166SOPE   H4R18663   5.504   1.854  10.108 -2.4727 -0.6234 -0.3755
  166SOPE   H4S18664   5.361   1.907  10.210 -0.7929 -1.9949 -0.7373
  166SOPE   C2518665   5.458   2.069  10.125  0.0196  0.2462  0.0986
  166SOPE   H5R18666   5.419   2.141  10.200  1.4901  1.1925 -0.0102
  166SOPE   H5S18667   5.558   2.104  10.090 -0.7436  2.4366 -0.0753
  166SOPE   C2618668   5.373   2.072  10.001  0.2017 -0.5394  0.0595
  166SOPE   H6R18669   5.423   2.017   9.918  1.6854 -1.3695  1.4460
  166SOPE   H6S18670   5.281   2.012  10.019  0.7415 -2.1040 -1.9659
  166SOPE   C2718671   5.352   2.217   9.955  0.2358  0.0164 -0.4863
  166SOPE   H7R18672   5.311   2.276  10.039  1.0978 -1.2839  0.8847
  166SOPE   H7S18673   5.455   2.253   9.933  0.2253  0.2262 -0.1910
  166SOPE   C2818674   5.267   2.230   9.824  0.2903 -0.2370 -0.7559
  166SOPE   H8R18675   5.168   2.185   9.844 -0.1613 -0.2270 -2.8040
  166SOPE   H8S18676   5.255   2.340   9.809  1.2358 -0.5545 -4.9855
  166SOPE   C2918677   5.323   2.174   9.696  0.3151  0.0626  0.3012
  166SOPE   H9118678   5.420   2.216   9.669 -0.2110  0.3865 -1.1717
  166SOPE  C21018679   5.272   2.082   9.618  0.1725 -0.0115  0.2277
  166SOPE  H10118680   5.319   2.055   9.522 -0.2378  1.9936 -0.5901
  166SOPE  C21118681   5.138   1.998   9.633 -0.4700 -0.2465 -0.3414
  166SOPE  H11R18682   5.058   2.025   9.560 -0.0724 -0.1943 -0.7619
  166SOPE  H11S18683   5.099   2.019   9.735  0.8941  0.7141  0.0100
  166SOPE  C21218684   5.156   1.843   9.628  0.9418  0.0051  0.2256
  166SOPE  H12R18685   5.232   1.808   9.701 -0.7847 -1.8673  1.2055
  166SOPE  H12S18686   5.199   1.817   9.529  1.0884 -3.0787  0.9912
  166SOPE  C21318687   5.024   1.754   9.642 -0.1228  0.4775 -0.1704
  166SOPE  H13R18688   5.055   1.648   9.630 -0.9887  0.2766 -0.6680
  166SOPE  H13S18689   4.961   1.789   9.559  1.2276  1.2294 -0.9173
  166SOPE  C21418690   4.950   1.773   9.774 -0.0465  0.3868 -0.1858
  166SOPE  H14R18691   4.868   1.698   9.776 -1.6198  2.0743  0.4556
  166SOPE  H14S18692   4.904   1.873   9.785  1.5622  1.1338  0.0047
  166SOPE  C21518693   5.037   1.741   9.908  0.0227 -0.6828 -0.6629
  166SOPE  H15R18694   5.110   1.824   9.916  1.6012 -2.0400 -0.2433
  166SOPE  H15S18695   5.093   1.644   9.911  1.0318 -0.0887  0.5394
  166SOPE  C21618696   4.943   1.743  10.030  0.1080 -0.0330 -0.1040
  166SOPE  H16R18697   4.905   1.643  10.062  0.4580 -0.5037 -1.0873
  166SOPE  H16S18698   4.864   1.820  10.021  0.9788  1.0318  1.0054
  166SOPE  C21718699   5.027   1.809  10.144  0.8905  0.0649 -0.1683
  166SOPE  H17R18700   5.062   1.908  10.109 -0.9943  1.2722  1.1733
  166SOPE  H17S18701   5.112   1.738  10.162  0.9942  0.6911  2.2275
  166SOPE  C21818702   4.942   1.845  10.274 -1.0895  0.1417 -0.7154
  166SOPE  H18R18703   5.012   1.888  10.349 -0.9504  1.0229 -1.3349
  166SOPE  H18S18704   4.884   1.758  10.311 -2.5026  1.8788  1.4277
  166SOPE  H18T18705   4.867   1.925  10.253  0.3283  1.6597 -0.2127
  166SOPE   C3318706   5.107   2.463  10.149 -0.2312  0.2596 -0.1254
  166SOPE   H3X18707   5.215   2.462  10.121 -0.8465  1.1101 -2.8853
  166SOPE   H3Y18708   5.088   2.558  10.203 -1.6880 -2.1593  4.0666
  166SOPE   C3418709   5.028   2.460  10.022 -0.0625 -0.1831  0.0135
  166SOPE   H4X18710   4.920   2.479  10.041 -0.4969 -2.0590 -0.3488
  166SOPE   H4Y18711   5.033   2.361   9.973 -1.5032 -0.7842  1.0396
  166SOPE   C3518712   5.068   2.569   9.917  0.3880  0.3377 -0.1929
  166SOPE   H5X18713   5.010   2.541   9.827 -1.5080  0.8916  0.7960
  166SOPE   H5Y18714   5.176   2.564   9.890  0.6625  0.4222  0.8329
  166SOPE   C3618715   5.023   2.711   9.961  0.5008 -0.4144 -0.0377
  166SOPE   H6X18716   5.106   2.743  10.027  0.4137 -0.2476 -0.0096
  166SOPE   H6Y18717   4.936   2.693  10.027 -0.7234  0.1349 -1.4409
  166SOPE   C3718718   4.994   2.811   9.843  0.3290  0.5216 -0.0114
  166SOPE   H7X18719   4.921   2.765   9.772  0.0761 -2.4612  1.9718
  166SOPE   H7Y18720   5.096   2.829   9.804  0.3386 -0.1457 -0.3102
  166SOPE   C3818721   4.930   2.948   9.894  0.3379  0.5327  0.2978
  166SOPE   H8X18722   5.001   2.991   9.967  0.1478 -1.5071  1.7601
  166SOPE   H8Y18723   4.841   2.924   9.955  0.7668 -1.9146  0.0868
  166SOPE   C3918724   4.910   3.043   9.773 -0.4855 -0.0628  0.4439
  166SOPE   H9X18725   4.849   3.132   9.796  1.2446  2.2258 -2.9078
  166SOPE   H9Y18726   4.860   2.991   9.688  0.2328 -0.1994  0.0913
  166SOPE  C31018727   5.040   3.115   9.731  0.0684 -0.2952  0.1389
  166SOPE  H10X18728   5.121   3.042   9.713 -0.1750 -0.9362  1.5160
  166SOPE  H10Y18729   5.071   3.186   9.811 -1.3535  2.3216 -1.4773
  166SOPE  C31118730   5.007   3.213   9.608 -0.4560  0.1597  0.1870
  166SOPE  H11X18731   4.923   3.282   9.633 -0.1318  0.8836 -0.6693
  166SOPE  H11Y18732   4.973   3.151   9.522  1.3433  0.3398 -0.7011
  166SOPE  C31218733   5.126   3.299   9.554  0.5041 -0.1028 -0.0818
  166SOPE  H12X18734   5.206   3.226   9.526  1.2869 -0.0440  1.8642
  166SOPE  H12Y18735   5.166   3.357   9.639 -0.0620 -0.7624  0.6540
  166SOPE  C31318736   5.084   3.379   9.426  0.4566  0.5613 -0.6766
  166SOPE  H13X18737   5.000   3.322   9.381  0.0219  0.8907 -0.2803
  166SOPE  H13Y18738   5.172   3.375   9.357  1.0187  0.3646  0.0358
  166SOPE  C31418739   5.046   3.524   9.461 -0.8288 -0.4999  0.2367
  166SOPE  H14X18740   5.141   3.581   9.472 -2.2595  2.0485  0.0413
  166SOPE  H14Y18741   4.988   3.531   9.555 -1.5615 -0.3815 -0.2121
  166SOPE  C31518742   4.960   3.602   9.352  0.2441  0.2547 -0.0022
  166SOPE  H15X18743   4.930   3.700   9.396  2.2986  0.9434 -0.0501
  166SOPE  H15Y18744   4.860   3.555   9.337 -0.1566  1.7594 -2.6385
  166SOPE  C31618745   5.026   3.617   9.219 -0.4314  0.1874 -0.4421
  166SOPE  H16X18746   5.054   3.517   9.181  3.0244  0.8006  0.2027
  166SOPE  H16Y18747   5.129   3.656   9.221 -1.3972  3.1515 -2.0151
  166SOPE  C31718748   4.941   3.699   9.122  0.8197  0.0125  0.3901
  166SOPE  H17X18749   4.896   3.794   9.160 -1.9918 -1.5405  1.1975
  166SOPE  H17Y18750   4.849   3.653   9.082  1.5977 -1.2350 -0.0144
  166SOPE  C31818751   5.009   3.720   8.986 -0.3609  0.5281  0.4212
  166SOPE  H18X18752   5.070   3.629   8.967  1.9551  2.4012 -1.7115
  166SOPE  H18Y18753   5.086   3.799   8.973  0.5338 -0.5335 -1.0199
  166SOPE  H18Z18754   4.943   3.740   8.899 -0.0580  1.6158  0.4241
  167SOPE     N18755   3.853   5.432   6.291  0.0989 -0.6837 -0.0753
  167SOPE   HN118756   3.778   5.370   6.253 -0.7061 -1.7822  3.0394
  167SOPE   HN218757   3.946   5.403   6.255  0.1719  0.0162 -0.4658
  167SOPE   HN318758   3.857   5.403   6.390 -2.1991 -0.6093  0.0890
  167SOPE   C1218759   3.826   5.579   6.293  0.0522 -0.3610  0.2280
  167SOPE  H12A18760   3.729   5.591   6.345 -0.4382 -1.2691 -0.4591
  167SOPE  H12B18761   3.817   5.613   6.188  2.1516 -0.8368 -0.1630
  167SOPE   C1118762   3.930   5.672   6.361 -0.1208 -0.3830  0.0597
  167SOPE  H11A18763   3.940   5.645   6.468  1.9994  0.1700  0.0445
  167SOPE  H11B18764   3.899   5.778   6.349  0.8791 -0.0626  0.1496
  167SOPE     P18765   4.167   5.754   6.304 -0.2488  0.2907  0.0552
  167SOPE   O1318766   4.122   5.866   6.394  0.5077  0.4099  0.6677
  167SOPE   O1418767   4.197   5.780   6.160 -0.4722 -0.0366 -0.1301
  167SOPE   O1218768   4.055   5.643   6.303 -0.9984  0.4643 -0.1013
  167SOPE   O1118769   4.279   5.671   6.379  0.4580 -0.2535  0.0455
  167SOPE    C118770   4.260   5.542   6.435 -0.2179 -0.0469  0.0247
  167SOPE    HA18771   4.313   5.464   6.376  1.3629 -1.2880  2.8907
  167SOPE    HB18772   4.155   5.506   6.439 -0.9072  1.9611  0.7432
  167SOPE    C218773   4.323   5.533   6.575 -0.2978  0.1110 -0.3612
  167SOPE    HS18774   4.263   5.452   6.621 -0.6262  1.1915  1.2356
  167SOPE   O2118775   4.292   5.648   6.663 -0.2853 -0.7638 -0.1577
  167SOPE   C2118776   4.173   5.673   6.702  0.4591  1.0299  0.0395
  167SOPE   O2218777   4.073   5.605   6.675 -0.7272 -0.7605 -0.1772
  167SOPE   C2218778   4.173   5.796   6.789 -0.2497 -0.5758 -0.1913
  167SOPE   H2R18779   4.069   5.834   6.797 -0.5640 -1.5767  0.7133
  167SOPE   H2S18780   4.241   5.875   6.750 -1.8879 -0.7846 -3.8715
  167SOPE    C318781   4.480   5.510   6.577 -0.0853 -0.0997 -0.5257
  167SOPE    HX18782   4.523   5.589   6.511  2.3081 -0.8458  0.0449
  167SOPE    HY18783   4.503   5.411   6.533 -3.0343 -1.1273  0.0087
  167SOPE   O3118784   4.549   5.524   6.710 -0.4682  0.4666  0.0841
  167SOPE   C3118785   4.568   5.423   6.782  0.5005  0.4355  0.0861
  167SOPE   O3218786   4.523   5.310   6.767  0.0772 -0.3085 -0.5237
  167SOPE   C3218787   4.648   5.459   6.903  0.3761 -0.4838  0.1252
  167SOPE   H2X18788   4.654   5.569   6.915  0.1729 -0.4224 -0.3407
  167SOPE   H2Y18789   4.754   5.433   6.884  1.3453  1.2005  2.7008
  167SOPE   C2318790   4.217   5.772   6.939 -0.5792  0.6006  0.5960
  167SOPE   H3R18791   4.217   5.872   6.986  1.9504 -0.2710  2.6899
  167SOPE   H3S18792   4.318   5.725   6.942  0.7659  3.3249  1.2028
  167SOPE   C2418793   4.127   5.676   7.024 -0.2094 -0.0746 -0.4110
  167SOPE   H4R18794   4.018   5.700   7.023 -0.3798  0.0371  3.5820
  167SOPE   H4S18795   4.131   5.570   6.992 -1.5662  0.3105 -1.9915
  167SOPE   C2518796   4.161   5.676   7.179 -0.6736  0.0273 -0.6976
  167SOPE   H5R18797   4.158   5.779   7.222  3.3251  0.0917 -0.0999
  167SOPE   H5S18798   4.088   5.613   7.233 -1.0986  0.8806 -0.2522
  167SOPE   C2618799   4.306   5.637   7.201 -0.9439 -0.2901 -0.7377
  167SOPE   H6R18800   4.327   5.537   7.157  0.0246 -0.8531  0.9235
  167SOPE   H6S18801   4.371   5.715   7.154 -0.0459 -1.6456 -1.8171
  167SOPE   C2718802   4.350   5.629   7.349  0.3455  0.1380  0.3534
  167SOPE   H7R18803   4.305   5.540   7.399 -2.1213  1.5442  0.7836
  167SOPE   H7S18804   4.460   5.620   7.344  0.6132  1.4987  2.4464
  167SOPE   C2818805   4.304   5.754   7.430  0.1327 -0.5999  0.1212
  167SOPE   H8R18806   4.303   5.847   7.368 -0.2466  0.2061  1.3110
  167SOPE   H8S18807   4.200   5.736   7.463  0.6631 -3.1777  0.5268
  167SOPE   C2918808   4.388   5.781   7.555 -0.3177  0.5351 -0.5544
  167SOPE   H9118809   4.473   5.845   7.527  0.8123 -0.0379  1.4234
  167SOPE  C21018810   4.360   5.748   7.684 -0.4128  0.2834 -0.4526
  167SOPE  H10118811   4.438   5.772   7.759 -1.8406  1.7638  0.6236
  167SOPE  C21118812   4.233   5.685   7.750  0.2297 -0.2212  0.1350
  167SOPE  H11R18813   4.162   5.659   7.668  1.3688  1.4549 -1.4707
  167SOPE  H11S18814   4.187   5.751   7.827  2.6163  0.6978  0.8622
  167SOPE  C21218815   4.280   5.556   7.815 -0.5648  0.0217 -0.9926
  167SOPE  H12R18816   4.328   5.489   7.740 -0.4614 -0.7652 -0.2366
  167SOPE  H12S18817   4.194   5.496   7.851  1.7721 -2.0387  1.5744
  167SOPE  C21318818   4.363   5.578   7.946  0.0695  0.5808 -0.5672
  167SOPE  H13R18819   4.286   5.608   8.020  0.4427 -2.2665  1.1234
  167SOPE  H13S18820   4.425   5.668   7.926 -1.3431  1.8513  0.5558
  167SOPE  C21418821   4.431   5.450   7.994 -0.2114  0.0401  0.4846
  167SOPE  H14R18822   4.480   5.409   7.903 -0.4574  2.9393 -1.0583
  167SOPE  H14S18823   4.356   5.377   8.031  0.2582 -0.5780  0.2357
  167SOPE  C21518824   4.535   5.470   8.105  0.3019  0.1938  0.4604
  167SOPE  H15R18825   4.636   5.492   8.065  0.5926  2.8975  2.4060
  167SOPE  H15S18826   4.541   5.369   8.152 -1.4853 -0.7913 -1.2824
  167SOPE  C21618827   4.504   5.577   8.210  0.6832  0.2763 -0.0245
  167SOPE  H16R18828   4.396   5.571   8.236  0.5576  0.4055 -0.4994
  167SOPE  H16S18829   4.530   5.676   8.167  0.7489  0.5031  0.5390
  167SOPE  C21718830   4.585   5.566   8.335  0.3639  0.3419 -0.3950
  167SOPE  H17R18831   4.692   5.591   8.315  0.5606  1.0375  1.3624
  167SOPE  H17S18832   4.584   5.460   8.367 -0.1010  0.8329  1.3222
  167SOPE  C21818833   4.529   5.654   8.447 -0.5263  0.6651  0.3245
  167SOPE  H18R18834   4.604   5.643   8.528 -0.0751 -2.4545 -0.3807
  167SOPE  H18S18835   4.424   5.622   8.466 -1.1229  1.3255 -1.6424
  167SOPE  H18T18836   4.534   5.762   8.420  2.9709  1.3108  2.8055
  167SOPE   C3318837   4.595   5.389   7.028  0.0932  0.6041  0.0856
  167SOPE   H3X18838   4.591   5.279   7.011 -1.3238  0.8249 -1.2117
  167SOPE   H3Y18839   4.489   5.418   7.044 -0.6425 -1.0944 -1.3884
  167SOPE   C3418840   4.670   5.423   7.161 -0.2365  0.3636  0.2772
  167SOPE   H4X18841   4.668   5.533   7.177  1.9531  0.6685 -1.1340
  167SOPE   H4Y18842   4.780   5.407   7.158  0.0245  1.0893  3.0603
  167SOPE   C3518843   4.596   5.346   7.276 -0.1810  0.1605 -0.0146
  167SOPE   H5X18844   4.625   5.239   7.266  0.5727  0.3221  0.4025
  167SOPE   H5Y18845   4.484   5.347   7.273 -0.2532 -0.6672  1.5696
  167SOPE   C3618846   4.649   5.386   7.421 -0.0081 -0.0218 -0.5336
  167SOPE   H6X18847   4.615   5.312   7.497 -1.1538 -0.4769 -1.4588
  167SOPE   H6Y18848   4.594   5.479   7.448  0.5214 -0.4993  2.5723
  167SOPE   C3718849   4.801   5.417   7.446  0.5369  0.0650  0.4996
  167SOPE   H7X18850   4.835   5.507   7.391 -0.0387 -0.3552 -0.5857
  167SOPE   H7Y18851   4.852   5.323   7.416  0.1687 -0.3899  1.2693
  167SOPE   C3818852   4.840   5.440   7.597 -0.0967  0.2673  0.2213
  167SOPE   H8X18853   4.783   5.525   7.642  0.3864  1.5866 -1.5477
  167SOPE   H8Y18854   4.946   5.473   7.599 -0.0008  0.0970 -1.0024
  167SOPE   C3918855   4.836   5.309   7.677  0.0557 -0.0073 -0.2358
  167SOPE   H9X18856   4.926   5.248   7.653  1.6057  1.4304  1.6102
  167SOPE   H9Y18857   4.751   5.245   7.644  1.9636 -2.2368 -1.1266
  167SOPE  C31018858   4.835   5.339   7.829 -0.2802  0.0157 -0.7449
  167SOPE  H10X18859   4.787   5.437   7.851 -1.5864 -0.4108 -1.6157
  167SOPE  H10Y18860   4.944   5.346   7.852 -0.2831 -3.0430  0.6367
  167SOPE  C31118861   4.782   5.228   7.912  0.0660  0.5489 -0.0090
  167SOPE  H11X18862   4.830   5.133   7.883 -0.3283 -0.9957  3.8073
  167SOPE  H11Y18863   4.672   5.218   7.897  0.1410 -0.6084  0.1193
  167SOPE  C31218864   4.806   5.233   8.066  0.7574  0.2072  0.0453
  167SOPE  H12X18865   4.772   5.330   8.107  0.7887  0.7549 -1.1605
  167SOPE  H12Y18866   4.916   5.240   8.079  0.8676  0.2974 -0.8728
  167SOPE  C31318867   4.752   5.115   8.148 -0.1108  0.6980  0.7126
  167SOPE  H13X18868   4.786   5.017   8.107 -0.5819  0.9983 -0.4349
  167SOPE  H13Y18869   4.642   5.124   8.151 -0.0510  1.7921  0.0399
  167SOPE  C31418870   4.794   5.114   8.297 -0.9938  0.3533  0.2780
  167SOPE  H14X18871   4.898   5.079   8.312 -0.9075  0.4071 -0.1875
  167SOPE  H14Y18872   4.726   5.043   8.348  0.3743 -0.4585  1.0368
  167SOPE  C31518873   4.783   5.249   8.366  0.4488 -0.1013 -0.2418
  167SOPE  H15X18874   4.685   5.290   8.332 -0.1290 -2.4206 -1.5910
  167SOPE  H15Y18875   4.863   5.314   8.324 -0.2978  0.7141 -0.4383
  167SOPE  C31618876   4.801   5.251   8.516 -0.6742 -0.3632 -0.4134
  167SOPE  H16X18877   4.906   5.218   8.531 -0.2874  1.0884  0.2598
  167SOPE  H16Y18878   4.732   5.175   8.557 -1.3254 -0.9499 -2.4758
  167SOPE  C31718879   4.785   5.384   8.593 -0.2479  0.4965 -0.2922
  167SOPE  H17X18880   4.766   5.348   8.696  0.7223  0.6791 -0.0413
  167SOPE  H17Y18881   4.696   5.437   8.554 -2.4092 -1.2521  1.9673
  167SOPE  C31818882   4.903   5.471   8.588 -0.3746  0.6147  0.4414
  167SOPE  H18X18883   4.994   5.411   8.609 -0.7149 -0.6143 -1.4053
  167SOPE  H18Y18884   4.887   5.557   8.657  0.2555  0.2132  1.1041
  167SOPE  H18Z18885   4.916   5.508   8.484 -1.3841  1.6776  0.6717
  168SOPE     N18886   0.866   1.870   6.174 -0.0880 -0.0514 -0.6077
  168SOPE   HN118887   0.896   1.782   6.129  2.4531  0.3615  0.1051
  168SOPE   HN218888   0.778   1.915   6.142 -0.5408  1.5385  2.4617
  168SOPE   HN318889   0.942   1.940   6.178  1.7188 -1.8762 -1.3517
  168SOPE   C1218890   0.851   1.827   6.314  0.2320  0.2026 -0.1831
  168SOPE  H12A18891   0.952   1.815   6.361  0.7727 -1.5802 -1.6885
  168SOPE  H12B18892   0.797   1.730   6.311  0.4220 -0.0496  2.2379
  168SOPE   C1118893   0.764   1.936   6.394 -0.3623 -0.4505 -0.5601
  168SOPE  H11A18894   0.754   1.919   6.503 -0.3097  0.8851 -0.3354
  168SOPE  H11B18895   0.661   1.932   6.352 -0.2911  1.2951 -0.9679
  168SOPE     P18896   0.737   2.196   6.370 -0.5563 -0.1779 -0.1814
  168SOPE   O1318897   0.594   2.161   6.380 -0.2078  0.0607  0.0257
  168SOPE   O1418898   0.785   2.257   6.243  1.1097  0.0193 -0.1220
  168SOPE   O1218899   0.824   2.067   6.385 -0.3112 -0.0236 -0.4966
  168SOPE   O1118900   0.772   2.285   6.498  0.2027  0.2125 -0.3236
  168SOPE    C118901   0.781   2.221   6.629 -0.1508 -1.1171 -0.0311
  168SOPE    HA18902   0.778   2.111   6.617 -2.1467 -1.2068  0.8429
  168SOPE    HB18903   0.696   2.252   6.693 -2.1049 -1.5922 -2.2350
  168SOPE    C218904   0.905   2.283   6.698  0.9194 -0.5559  0.3831
  168SOPE    HS18905   0.890   2.392   6.685 -0.4566 -1.0074 -2.4695
  168SOPE   O2118906   1.012   2.232   6.622  0.4427  0.0134 -0.6686
  168SOPE   C2118907   1.074   2.316   6.535  0.4642 -0.9921 -0.9760
  168SOPE   O2218908   1.042   2.434   6.511 -0.2056  0.5130  0.2792
  168SOPE   C2218909   1.203   2.255   6.497  0.3300 -0.4912  0.7432
  168SOPE   H2R18910   1.236   2.318   6.412 -1.3008 -1.6892 -0.8640
  168SOPE   H2S18911   1.188   2.159   6.443  0.8135  0.5767 -1.3903
  168SOPE    C318912   0.920   2.241   6.852 -0.2732  0.1121  0.3697
  168SOPE    HX18913   1.023   2.279   6.868 -0.6610  1.4954 -0.2346
  168SOPE    HY18914   0.919   2.130   6.855 -1.5007  0.0600 -0.8991
  168SOPE   O3118915   0.826   2.301   6.936  0.7902 -0.0978 -0.4621
  168SOPE   C3118916   0.720   2.227   6.971  0.2666 -0.1958  0.4573
  168SOPE   O3218917   0.713   2.105   6.954 -0.2915 -0.3934 -0.2317
  168SOPE   C3218918   0.616   2.315   7.051 -0.0320 -0.2570  0.1959
  168SOPE   H2X18919   0.524   2.253   7.049  0.1845 -0.5730 -1.8164
  168SOPE   H2Y18920   0.599   2.408   6.992 -2.0891 -0.8826 -0.2710
  168SOPE   C2318921   1.293   2.265   6.620 -0.3711  0.2954  0.3719
  168SOPE   H3R18922   1.243   2.210   6.703 -0.5639 -0.6406 -0.3482
  168SOPE   H3S18923   1.321   2.366   6.657  1.2281 -0.2687  0.7854
  168SOPE   C2418924   1.428   2.195   6.580  0.2619 -0.2978 -0.5414
  168SOPE   H4R18925   1.419   2.093   6.535 -1.6477 -0.4695  0.1434
  168SOPE   H4S18926   1.482   2.256   6.503 -0.2612 -1.9682 -2.3187
  168SOPE   C2518927   1.522   2.186   6.707  0.1245 -0.0983 -0.1258
  168SOPE   H5R18928   1.494   2.255   6.789  1.1846 -1.0644  1.0868
  168SOPE   H5S18929   1.525   2.082   6.745  0.8367 -0.6585 -1.6395
  168SOPE   C2618930   1.670   2.214   6.666 -0.0106  0.3891 -0.2157
  168SOPE   H6R18931   1.679   2.138   6.586 -2.9517  0.3116 -0.5782
  168SOPE   H6S18932   1.698   2.318   6.638  2.3227  0.9778  3.5429
  168SOPE   C2718933   1.768   2.177   6.784 -0.3271 -0.0698 -0.5129
  168SOPE   H7R18934   1.743   2.071   6.806  1.0547 -0.0987  1.1344
  168SOPE   H7S18935   1.874   2.177   6.750 -0.2815  0.8190 -0.3958
  168SOPE   C2818936   1.747   2.255   6.917 -0.0253 -0.3400  0.0329
  168SOPE   H8R18937   1.640   2.237   6.941  0.4835 -1.6100  1.5805
  168SOPE   H8S18938   1.809   2.204   6.995  1.6802  1.8844  0.2604
  168SOPE   C2918939   1.779   2.400   6.925  0.0916  0.0124 -0.3248
  168SOPE   H9118940   1.721   2.466   6.859  0.5526 -0.1900 -0.9493
  168SOPE  C21018941   1.869   2.456   7.009 -0.4295  0.5328 -0.4667
  168SOPE  H10118942   1.875   2.566   7.011  1.4493  0.4482  0.6357
  168SOPE  C21118943   1.956   2.383   7.102  0.4828 -0.4670 -0.0004
  168SOPE  H11R18944   2.059   2.417   7.078 -0.2406  2.3605  0.5411
  168SOPE  H11S18945   1.957   2.274   7.080  1.3597 -0.3609 -0.5196
  168SOPE  C21218946   1.922   2.405   7.251  0.9413 -0.1043  0.3073
  168SOPE  H12R18947   1.906   2.515   7.264  0.0661 -0.0786 -0.8520
  168SOPE  H12S18948   2.013   2.371   7.304  0.4177 -4.2041 -1.1189
  168SOPE  C21318949   1.799   2.335   7.297 -0.1449  0.1172 -0.6448
  168SOPE  H13R18950   1.821   2.226   7.292  1.8138  0.3687  1.0426
  168SOPE  H13S18951   1.720   2.361   7.224  0.2598 -0.2482 -1.2220
  168SOPE  C21418952   1.765   2.373   7.450  0.0041 -0.3062 -0.2872
  168SOPE  H14R18953   1.663   2.337   7.476  0.3203 -1.7497 -0.9157
  168SOPE  H14S18954   1.765   2.484   7.450  2.1579 -0.2608 -0.1369
  168SOPE  C21518955   1.868   2.338   7.561 -0.7354 -0.5286 -0.5870
  168SOPE  H15R18956   1.968   2.370   7.524 -1.4129  1.9152 -0.4694
  168SOPE  H15S18957   1.862   2.230   7.585  2.8524 -0.5339  0.9342
  168SOPE  C21618958   1.838   2.423   7.684  0.0845  0.0852 -0.1838
  168SOPE  H16R18959   1.746   2.376   7.723  0.3404  0.0946  0.4559
  168SOPE  H16S18960   1.828   2.530   7.656  0.4876 -0.3700 -2.1787
  168SOPE  C21718961   1.944   2.424   7.797  0.2976  0.0489 -0.6836
  168SOPE  H17R18962   2.035   2.472   7.757 -1.2327  3.3388 -0.5172
  168SOPE  H17S18963   1.978   2.321   7.822  0.0869  0.7014  2.8147
  168SOPE  C21818964   1.896   2.490   7.934 -0.0451  0.4334  0.5846
  168SOPE  H18R18965   1.979   2.500   8.006  2.5368 -1.1037 -1.9595
  168SOPE  H18S18966   1.803   2.447   7.977  0.7314 -0.2139  1.6724
  168SOPE  H18T18967   1.883   2.598   7.910  0.8129  0.5345  0.5469
  168SOPE   C3318968   0.656   2.357   7.199 -0.2341  0.5691 -1.2654
  168SOPE   H3X18969   0.589   2.441   7.228 -1.4046 -0.9971  0.8400
  168SOPE   H3Y18970   0.760   2.394   7.191 -0.6065  1.5170 -2.0556
  168SOPE   C3418971   0.636   2.247   7.308 -0.1988 -0.2791 -0.3349
  168SOPE   H4X18972   0.716   2.170   7.310  0.0682  0.0089  0.1010
  168SOPE   H4Y18973   0.532   2.209   7.292 -1.2145  2.9031 -2.1461
  168SOPE   C3518974   0.635   2.311   7.449  0.5108  0.3561 -0.2297
  168SOPE   H5X18975   0.569   2.400   7.440 -2.0594 -1.3654  0.3276
  168SOPE   H5Y18976   0.736   2.342   7.483  0.7060 -2.0535  1.6933
  168SOPE   C3618977   0.579   2.225   7.564  0.3214  0.1135  0.3695
  168SOPE   H6X18978   0.470   2.212   7.552  0.5454 -1.8452  0.1562
  168SOPE   H6Y18979   0.606   2.278   7.658  1.0061  1.3396 -0.4878
  168SOPE   C3718980   0.650   2.089   7.558 -0.0099  0.1801  0.0241
  168SOPE   H7X18981   0.757   2.118   7.543  0.3186  0.0703  1.9410
  168SOPE   H7Y18982   0.608   2.025   7.477  1.2533 -2.0573  1.0491
  168SOPE   C3818983   0.636   2.007   7.684  0.7023  0.1291 -0.8773
  168SOPE   H8X18984   0.677   1.903   7.680 -0.9578 -0.5968 -0.0240
  168SOPE   H8Y18985   0.529   2.001   7.714  0.8067 -1.0373 -0.6937
  168SOPE   C3918986   0.719   2.060   7.803 -0.5290  0.0996  0.5603
  168SOPE   H9X18987   0.704   1.979   7.877 -0.6154 -0.3812  0.0233
  168SOPE   H9Y18988   0.667   2.152   7.838 -1.3058  0.0276 -0.3411
  168SOPE  C31018989   0.867   2.076   7.773 -0.5381  0.1856  0.2396
  168SOPE  H10X18990   0.874   2.140   7.682 -1.9514  0.2944  0.1778
  168SOPE  H10Y18991   0.912   1.978   7.747  1.3939  1.4138 -1.2869
  168SOPE  C31118992   0.944   2.164   7.877  0.4381 -1.0785  0.5104
  168SOPE  H11X18993   1.053   2.152   7.857  0.5369  0.7707 -0.1645
  168SOPE  H11Y18994   0.919   2.137   7.982 -0.4942  1.2649  0.9444
  168SOPE  C31218995   0.902   2.306   7.869  0.4114 -0.2156  0.4909
  168SOPE  H12X18996   0.795   2.315   7.897 -0.5394 -0.5142 -2.5820
  168SOPE  H12Y18997   0.886   2.341   7.765 -1.7468 -0.6909  0.6241
  168SOPE  C31318998   0.974   2.409   7.962  0.2249  0.0875 -0.6067
  168SOPE  H13X18999   0.926   2.509   7.950 -0.9380  0.0266  2.5877
  168SOPE  H13Y19000   1.079   2.422   7.929  0.6107 -0.6246  0.2965
  168SOPE  C31419001   0.967   2.383   8.109  0.3698  0.4180 -0.1944
  168SOPE  H14X19002   0.991   2.275   8.119 -0.8569  0.2659  1.4012
  168SOPE  H14Y19003   0.862   2.396   8.143  0.5152 -0.3107  0.5527
  168SOPE  C31519004   1.075   2.459   8.181 -0.0114 -0.2682  0.2791
  168SOPE  H15X19005   1.073   2.562   8.139 -0.5876  0.1784  1.3390
  168SOPE  H15Y19006   1.172   2.408   8.162  1.4075  1.3431  2.6368
  168SOPE  C31619007   1.037   2.473   8.330 -0.1370  0.0923 -0.3973
  168SOPE  H16X19008   0.929   2.498   8.329 -0.0617  0.5499  1.2116
  168SOPE  H16Y19009   1.094   2.559   8.371 -1.6336  0.5120  0.9117
  168SOPE  C31719010   1.085   2.348   8.410 -0.2417 -0.6154 -0.1307
  168SOPE  H17X19011   1.178   2.298   8.375 -0.6203 -1.8303  0.5260
  168SOPE  H17Y19012   1.002   2.276   8.393 -0.9481  0.4773 -1.4844
  168SOPE  C31819013   1.101   2.374   8.557  0.1073 -0.2154  0.4926
  168SOPE  H18X19014   1.128   2.286   8.620 -1.0589 -0.5960  0.4798
  168SOPE  H18Y19015   1.002   2.397   8.601  0.2538  0.1979  0.6069
  168SOPE  H18Z19016   1.172   2.458   8.574  1.2075 -1.3207  1.5513
  169SOPE     N19017   4.361   3.814   6.500 -0.7424 -0.3005 -0.5855
  169SOPE   HN119018   4.382   3.900   6.446 -0.6221  0.0464  0.0028
  169SOPE   HN219019   4.450   3.766   6.523 -1.6577 -2.6426 -1.5910
  169SOPE   HN319020   4.313   3.754   6.430  0.5500 -0.1905 -1.6172
  169SOPE   C1219021   4.282   3.841   6.629 -0.0649  0.4498 -1.1159
  169SOPE  H12A19022   4.189   3.891   6.597 -0.7024  0.4218  0.5698
  169SOPE  H12B19023   4.335   3.912   6.697 -0.9432  1.3090 -1.3163
  169SOPE   C1119024   4.264   3.707   6.700 -0.0581 -0.4369 -0.0534
  169SOPE  H11A19025   4.207   3.740   6.789 -0.6282 -0.0162 -0.5620
  169SOPE  H11B19026   4.367   3.670   6.719  0.8057  2.6716  1.9322
  169SOPE     P19027   4.035   3.629   6.598  0.0122 -0.2725  0.2184
  169SOPE   O1319028   4.001   3.538   6.484 -0.1448  0.5359  0.1700
  169SOPE   O1419029   4.002   3.772   6.586  0.1919  0.0555  0.1378
  169SOPE   O1219030   4.190   3.610   6.624 -0.5777  0.3391 -0.0086
  169SOPE   O1119031   3.981   3.586   6.742 -0.3778  0.4369  0.2566
  169SOPE    C119032   3.951   3.443   6.769  0.5334  0.3768  0.0631
  169SOPE    HA19033   4.046   3.386   6.773 -0.5999 -1.7563 -1.4706
  169SOPE    HB19034   3.907   3.394   6.679 -0.6132  1.2629  0.1239
  169SOPE    C219035   3.858   3.413   6.887 -0.2248  0.0876 -0.2886
  169SOPE    HS19036   3.751   3.424   6.860  0.1710 -2.0055 -3.1498
  169SOPE   O2119037   3.910   3.495   6.996  0.0039 -0.3797  0.4816
  169SOPE   C2119038   3.862   3.619   7.014  0.0885 -0.5933  0.5943
  169SOPE   O2219039   3.782   3.680   6.944  0.1800  0.2147 -0.3436
  169SOPE   C2219040   3.918   3.682   7.140 -0.4715  0.2985  0.0037
  169SOPE   H2R19041   3.897   3.787   7.110 -1.6518 -0.2894 -1.3533
  169SOPE   H2S19042   4.026   3.665   7.160  0.1248  0.1734 -2.9384
  169SOPE    C319043   3.868   3.262   6.934 -0.1748 -0.2510  0.9007
  169SOPE    HX19044   3.972   3.228   6.917 -0.5528 -0.7086 -0.6338
  169SOPE    HY19045   3.816   3.197   6.860  0.4563 -0.0496  0.2718
  169SOPE   O3119046   3.842   3.234   7.076 -0.3188  0.1844 -0.0220
  169SOPE   C3119047   3.717   3.249   7.103 -0.2153 -0.2991 -0.6396
  169SOPE   O3219048   3.622   3.278   7.029  1.0924  0.1834 -0.6164
  169SOPE   C3219049   3.700   3.224   7.253 -0.5812  1.1333  0.0541
  169SOPE   H2X19050   3.779   3.268   7.317 -0.9731 -1.4822  2.5854
  169SOPE   H2Y19051   3.702   3.115   7.277 -1.1999  1.1620  0.2755
  169SOPE   C2319052   3.833   3.654   7.265 -0.8158 -0.4027 -0.4705
  169SOPE   H3R19053   3.850   3.549   7.296 -2.6867 -0.7873 -0.6431
  169SOPE   H3S19054   3.725   3.657   7.240 -1.3456 -1.6228  1.5031
  169SOPE   C2419055   3.862   3.746   7.384 -0.2250  0.3331 -0.1451
  169SOPE   H4R19056   3.967   3.717   7.407 -0.6989 -1.4977 -0.0985
  169SOPE   H4S19057   3.856   3.856   7.370  0.7387  0.3001 -0.9059
  169SOPE   C2519058   3.764   3.723   7.493 -0.0350 -0.0500  0.1487
  169SOPE   H5R19059   3.660   3.746   7.459 -0.3803 -0.6354  0.7660
  169SOPE   H5S19060   3.756   3.618   7.531 -1.0823 -0.0099  0.0728
  169SOPE   C2619061   3.806   3.809   7.622  0.0657 -0.3368 -0.0978
  169SOPE   H6R19062   3.909   3.787   7.658  0.7854  3.2870  0.4834
  169SOPE   H6S19063   3.805   3.918   7.600  1.7756 -0.1119  0.7144
  169SOPE   C2719064   3.711   3.786   7.743  0.8130 -0.6559  0.4553
  169SOPE   H7R19065   3.609   3.820   7.716 -0.0922 -0.3647  3.8308
  169SOPE   H7S19066   3.697   3.677   7.762 -0.3334 -0.7639 -0.8369
  169SOPE   C2819067   3.768   3.876   7.857 -0.2266 -0.3455  0.2684
  169SOPE   H8R19068   3.868   3.839   7.890 -0.4923 -1.5029 -0.1630
  169SOPE   H8S19069   3.789   3.977   7.816  0.4971  0.2720  2.0614
  169SOPE   C2919070   3.663   3.882   7.960  0.6537 -0.2386 -0.1450
  169SOPE   H9119071   3.569   3.934   7.935  1.0705  0.0019 -1.2518
  169SOPE  C21019072   3.666   3.819   8.082 -0.1086 -0.6984  0.0361
  169SOPE  H10119073   3.586   3.832   8.155  0.3906  0.0901  0.4502
  169SOPE  C21119074   3.774   3.734   8.140 -0.2994  0.1084 -0.1238
  169SOPE  H11R19075   3.866   3.757   8.081  0.2768 -2.6048 -0.4019
  169SOPE  H11S19076   3.754   3.626   8.124 -0.6498 -0.0089  1.0115
  169SOPE  C21219077   3.790   3.762   8.289  0.5344 -0.7776 -0.9407
  169SOPE  H12R19078   3.767   3.869   8.309 -0.1426 -1.1096  0.1044
  169SOPE  H12S19079   3.892   3.745   8.331  0.7038  1.8468 -0.1442
  169SOPE  C21319080   3.688   3.681   8.374  0.5758 -0.0622 -0.3664
  169SOPE  H13R19081   3.716   3.573   8.375 -0.8304 -0.4579  1.1699
  169SOPE  H13S19082   3.588   3.692   8.326  0.3215 -0.0874  0.1467
  169SOPE  C21419083   3.672   3.722   8.521  0.3954  0.1948 -0.4404
  169SOPE  H14R19084   3.574   3.682   8.553 -0.3359  2.8821  0.9955
  169SOPE  H14S19085   3.679   3.832   8.530  1.8614  0.0167  0.9709
  169SOPE  C21519086   3.787   3.657   8.605  0.0193 -0.1583 -0.2394
  169SOPE  H15R19087   3.873   3.636   8.538  1.1632 -1.4593  1.5462
  169SOPE  H15S19088   3.756   3.555   8.639  1.6807 -1.0124 -1.1829
  169SOPE  C21619089   3.847   3.751   8.704  1.2124  0.5374 -0.6477
  169SOPE  H16R19090   3.771   3.804   8.765 -1.4489 -1.4734 -1.9589
  169SOPE  H16S19091   3.899   3.825   8.639  2.2656 -0.2732 -0.7433
  169SOPE  C21719092   3.957   3.691   8.794  0.4634  0.0076  0.8105
  169SOPE  H17R19093   3.907   3.614   8.857  2.2763  0.1639  2.5318
  169SOPE  H17S19094   3.996   3.782   8.844  1.0281  0.9217 -1.2054
  169SOPE  C21819095   4.078   3.629   8.723 -0.1928  0.1761  0.0206
  169SOPE  H18R19096   4.131   3.714   8.675  0.3302 -0.5050 -0.6381
  169SOPE  H18S19097   4.039   3.563   8.642  2.2047  0.1025 -1.1604
  169SOPE  H18T19098   4.133   3.572   8.801  0.1321  1.5057  0.7752
  169SOPE   C3319099   3.575   3.297   7.310 -0.5727 -0.2548 -0.3824
  169SOPE   H3X19100   3.480   3.249   7.278 -0.9704  1.4619 -1.9838
  169SOPE   H3Y19101   3.567   3.399   7.265  1.8428  0.5721  0.9007
  169SOPE   C3419102   3.582   3.330   7.463  0.8336  0.1729  0.0633
  169SOPE   H4X19103   3.677   3.379   7.492 -0.2120  2.1446  0.3387
  169SOPE   H4Y19104   3.575   3.237   7.524 -0.0192 -0.8790 -1.5530
  169SOPE   C3519105   3.475   3.432   7.509  0.3265 -0.5324  0.1894
  169SOPE   H5X19106   3.372   3.392   7.500  0.3969 -0.8776  0.9116
  169SOPE   H5Y19107   3.486   3.511   7.431 -2.1624  0.1260  0.4088
  169SOPE   C3619108   3.493   3.509   7.639 -0.0846 -0.4015  0.0653
  169SOPE   H6X19109   3.394   3.555   7.661  0.1485  0.2593 -0.2250
  169SOPE   H6Y19110   3.568   3.590   7.623 -0.8322  0.0603 -1.2665
  169SOPE   C3719111   3.524   3.406   7.750  0.2166 -0.5523 -0.1390
  169SOPE   H7X19112   3.604   3.330   7.737 -0.9214 -1.6842 -0.8536
  169SOPE   H7Y19113   3.433   3.342   7.748  0.3517 -0.8299  1.6845
  169SOPE   C3819114   3.532   3.465   7.893 -0.1790  1.0929  0.0712
  169SOPE   H8X19115   3.625   3.525   7.903  1.0761 -0.7996  0.2988
  169SOPE   H8Y19116   3.438   3.525   7.898 -2.1583 -1.8090 -0.0094
  169SOPE   C3919117   3.530   3.354   8.004 -0.3079 -0.2342 -0.2006
  169SOPE   H9X19118   3.626   3.298   8.006  0.3147  0.6804 -2.0751
  169SOPE   H9Y19119   3.458   3.275   7.975  1.0218 -0.6534 -2.5683
  169SOPE  C31019120   3.510   3.400   8.150  0.1752  0.6191  0.1771
  169SOPE  H10X19121   3.418   3.463   8.156 -1.7516 -2.0379  0.3267
  169SOPE  H10Y19122   3.598   3.462   8.176  1.4306 -0.9084 -0.3185
  169SOPE  C31119123   3.501   3.283   8.245 -0.1875 -0.0730 -0.2874
  169SOPE  H11X19124   3.596   3.225   8.238  0.2217  0.3155  1.4892
  169SOPE  H11Y19125   3.416   3.223   8.206  0.1770  0.4262 -1.8851
  169SOPE  C31219126   3.480   3.319   8.391  0.3976 -0.3496  0.0901
  169SOPE  H12X19127   3.388   3.380   8.401 -0.2367 -1.3248  0.3773
  169SOPE  H12Y19128   3.565   3.385   8.418  0.2667 -0.1586  0.0379
  169SOPE  C31319129   3.469   3.203   8.496 -0.5398  0.5024 -0.2951
  169SOPE  H13X19130   3.556   3.135   8.483 -0.3366  0.5995  0.5071
  169SOPE  H13Y19131   3.375   3.150   8.470 -0.0829 -0.8020  0.6405
  169SOPE  C31419132   3.476   3.248   8.646 -0.0314 -0.5637 -0.4693
  169SOPE  H14X19133   3.499   3.157   8.705 -1.0562  0.2269  1.2332
  169SOPE  H14Y19134   3.384   3.298   8.685  0.1830  0.8867 -1.7190
  169SOPE  C31519135   3.582   3.352   8.673  1.0335  0.6109  0.0782
  169SOPE  H15X19136   3.555   3.447   8.622 -0.6561 -0.7821 -1.7440
  169SOPE  H15Y19137   3.682   3.323   8.635  2.6934  1.3258  3.4989
  169SOPE  C31619138   3.599   3.371   8.828  0.2817 -0.2193  0.1367
  169SOPE  H16X19139   3.500   3.394   8.873  0.0389 -1.3744  0.2186
  169SOPE  H16Y19140   3.667   3.455   8.854  0.2890  0.9132 -3.0372
  169SOPE  C31719141   3.661   3.253   8.898 -0.2166 -0.1905 -0.6398
  169SOPE  H17X19142   3.769   3.243   8.872  0.5429  1.2265  1.6208
  169SOPE  H17Y19143   3.598   3.163   8.885  0.9372 -1.4683  1.9912
  169SOPE  C31819144   3.667   3.282   9.050  0.1379 -0.3058 -0.3942
  169SOPE  H18X19145   3.572   3.323   9.090  1.2509 -0.2210  2.4227
  169SOPE  H18Y19146   3.742   3.360   9.073 -0.5685  0.3543 -0.2649
  169SOPE  H18Z19147   3.706   3.193   9.105 -1.1901  0.2071  1.5064
  170SOPE     N19148   3.936   2.550   6.222 -0.0590 -0.0622 -0.0884
  170SOPE   HN119149   3.845   2.597   6.199  1.3914  2.3649 -1.3247
  170SOPE   HN219150   3.965   2.508   6.132 -0.9802 -0.7847 -0.0685
  170SOPE   HN319151   3.906   2.478   6.290 -3.3280  0.5882 -0.6619
  170SOPE   C1219152   4.043   2.644   6.287  0.5588  1.1290  0.6931
  170SOPE  H12A19153   4.069   2.721   6.211  1.4129 -0.8721 -1.1647
  170SOPE  H12B19154   4.128   2.577   6.310 -1.6665 -2.3017 -0.2278
  170SOPE   C1119155   3.987   2.708   6.409  0.8919 -0.0796  0.1223
  170SOPE  H11A19156   4.066   2.770   6.456  0.0544  1.7776 -0.8550
  170SOPE  H11B19157   3.956   2.640   6.491 -1.1533  2.2238  1.3559
  170SOPE     P19158   3.827   2.913   6.439  0.2963  0.0470  0.1425
  170SOPE   O1319159   3.695   2.949   6.377  0.1577 -0.3484  0.1027
  170SOPE   O1419160   3.933   3.018   6.442  0.0523  0.3611  0.5234
  170SOPE   O1219161   3.887   2.787   6.368 -0.0867 -0.1923  0.0884
  170SOPE   O1119162   3.816   2.865   6.590 -0.6867  0.0655  0.4163
  170SOPE    C119163   3.703   2.915   6.668 -0.0310 -0.9599  1.5067
  170SOPE    HA19164   3.629   2.974   6.610  2.2996  0.5103 -0.1615
  170SOPE    HB19165   3.736   2.984   6.749  2.3450 -1.6343  1.1986
  170SOPE    C219166   3.625   2.796   6.734  0.8616 -0.4667  0.5503
  170SOPE    HS19167   3.536   2.845   6.780  1.3012  2.8868 -1.7943
  170SOPE   O2119168   3.709   2.732   6.830  0.6370  0.0240 -0.0997
  170SOPE   C2119169   3.721   2.802   6.947 -0.2484  1.1040 -0.5877
  170SOPE   O2219170   3.669   2.906   6.975  0.0423 -0.4275  0.1167
  170SOPE   C2219171   3.824   2.727   7.029 -0.3331 -0.2681 -0.0597
  170SOPE   H2R19172   3.908   2.695   6.963  0.0260  0.0796  0.2247
  170SOPE   H2S19173   3.774   2.643   7.082 -0.7450 -0.3305 -0.5348
  170SOPE    C319174   3.580   2.695   6.629  0.1751 -0.2198 -0.7305
  170SOPE    HX19175   3.669   2.644   6.588  1.7469 -0.3739  2.5094
  170SOPE    HY19176   3.542   2.761   6.549  0.9927  1.1375 -0.0297
  170SOPE   O3119177   3.494   2.588   6.687  0.1867  0.1101 -0.7147
  170SOPE   C3119178   3.372   2.607   6.645  0.6272  0.5894  0.0588
  170SOPE   O3219179   3.327   2.713   6.599 -0.1576 -0.7693  0.5163
  170SOPE   C3219180   3.284   2.488   6.692  0.1033  0.2943  0.2570
  170SOPE   H2X19181   3.345   2.396   6.699  2.1414  1.4302 -1.2937
  170SOPE   H2Y19182   3.201   2.473   6.620  1.0205  1.2086 -1.0376
  170SOPE   C2319183   3.897   2.810   7.144  0.2133  0.3679 -0.0135
  170SOPE   H3R19184   3.825   2.840   7.223 -0.4873 -2.6210  0.6209
  170SOPE   H3S19185   3.939   2.903   7.099  0.5573 -0.6597 -1.9395
  170SOPE   C2419186   4.015   2.736   7.215  0.9518  0.6271 -0.0649
  170SOPE   H4R19187   3.989   2.651   7.282 -0.4860  1.4140  0.4129
  170SOPE   H4S19188   4.081   2.699   7.133 -0.2617 -0.3410 -0.6266
  170SOPE   C2519189   4.099   2.841   7.292  0.1370 -0.0691 -0.4747
  170SOPE   H5R19190   4.202   2.808   7.316  1.0470  3.3315  0.7750
  170SOPE   H5S19191   4.112   2.930   7.227  2.1291 -0.2436 -0.3849
  170SOPE   C2619192   4.037   2.894   7.422 -0.0510 -0.2964  0.5018
  170SOPE   H6R19193   4.097   2.977   7.467  1.9533 -1.1922 -0.4061
  170SOPE   H6S19194   3.934   2.930   7.405  0.3363  0.0964 -1.0983
  170SOPE   C2719195   4.029   2.785   7.532 -0.0491  0.4760 -0.1034
  170SOPE   H7R19196   3.950   2.713   7.503  0.0199  0.1059  0.6158
  170SOPE   H7S19197   4.122   2.725   7.530  1.0793  2.1498 -0.0743
  170SOPE   C2819198   4.001   2.847   7.670  0.5639  0.0013  0.0653
  170SOPE   H8R19199   4.070   2.932   7.691 -0.6274  1.5599 -1.9176
  170SOPE   H8S19200   3.896   2.884   7.667  0.0125 -1.5262 -1.8584
  170SOPE   C2919201   4.010   2.740   7.776 -0.7229  0.3064 -1.0429
  170SOPE   H9119202   3.945   2.653   7.758  0.6242 -1.1240  0.5578
  170SOPE  C21019203   4.078   2.747   7.894 -0.1150 -0.4859 -0.1336
  170SOPE  H10119204   4.083   2.661   7.963 -2.3400  0.2332  1.0054
  170SOPE  C21119205   4.148   2.865   7.956 -0.0939  0.0118  0.8699
  170SOPE  H11R19206   4.123   2.964   7.913 -0.3923  0.1146  1.2807
  170SOPE  H11S19207   4.257   2.848   7.938  0.4246  0.7788  3.0226
  170SOPE  C21219208   4.156   2.881   8.110 -0.4764 -0.8432 -0.5450
  170SOPE  H12R19209   4.207   2.794   8.157  1.7911  0.3624 -0.6203
  170SOPE  H12S19210   4.056   2.888   8.156 -0.3785  0.2111 -0.4717
  170SOPE  C21319211   4.246   3.000   8.159  0.1777  0.9650  0.5164
  170SOPE  H13R19212   4.195   3.097   8.141 -0.7038  0.3093 -0.6155
  170SOPE  H13S19213   4.344   2.983   8.110  0.1629 -0.1216  0.8397
  170SOPE  C21419214   4.282   2.989   8.303  0.1444  0.0309 -1.6494
  170SOPE  H14R19215   4.347   2.900   8.318 -0.0394 -0.4397 -3.4831
  170SOPE  H14S19216   4.195   2.971   8.370  2.2128 -1.0660  0.9298
  170SOPE  C21519217   4.367   3.100   8.374  0.0850 -0.2532  0.5116
  170SOPE  H15R19218   4.300   3.179   8.415  1.5258  1.3533 -0.0607
  170SOPE  H15S19219   4.448   3.133   8.305  0.2524  0.4317  1.0229
  170SOPE  C21619220   4.443   3.038   8.498 -0.0894  0.4459  0.3099
  170SOPE  H16R19221   4.503   2.948   8.474 -0.7393 -0.8013  2.9914
  170SOPE  H16S19222   4.368   3.007   8.574 -1.1281  2.1627  0.0513
  170SOPE  C21719223   4.530   3.135   8.574  0.0396 -0.6451  0.8055
  170SOPE  H17R19224   4.522   3.132   8.685  4.3430 -1.0910  1.2777
  170SOPE  H17S19225   4.489   3.237   8.558 -0.4208 -1.0357 -0.6042
  170SOPE  C21819226   4.677   3.137   8.536 -0.1051  0.4082 -0.6494
  170SOPE  H18R19227   4.689   3.077   8.442 -0.9796 -0.4182 -0.2526
  170SOPE  H18S19228   4.738   3.078   8.607  0.9127  0.3688 -1.5260
  170SOPE  H18T19229   4.716   3.240   8.524 -0.1906  0.3862 -1.1658
  170SOPE   C3319230   3.228   2.520   6.839 -0.5233  0.2287 -0.3972
  170SOPE   H3X19231   3.142   2.451   6.853 -0.7843  0.2301 -1.9035
  170SOPE   H3Y19232   3.199   2.627   6.847  2.0859  0.9639  0.2392
  170SOPE   C3419233   3.330   2.495   6.954  0.2552  0.3878 -0.2212
  170SOPE   H4X19234   3.404   2.578   6.963 -0.9275  1.2980  1.6848
  170SOPE   H4Y19235   3.376   2.396   6.934  0.0129 -0.3440  2.4802
  170SOPE   C3519236   3.280   2.481   7.092 -0.3193 -0.0893 -0.2781
  170SOPE   H5X19237   3.211   2.396   7.112 -0.0075 -0.3630 -0.3619
  170SOPE   H5Y19238   3.228   2.577   7.116 -1.9134 -1.4489  2.2409
  170SOPE   C3619239   3.389   2.460   7.204  0.7873 -0.0998 -0.4829
  170SOPE   H6X19240   3.445   2.555   7.214 -0.8387  0.9919 -1.4286
  170SOPE   H6Y19241   3.449   2.374   7.167  0.9054  1.4106 -4.2090
  170SOPE   C3719242   3.325   2.436   7.343 -0.1894 -0.4488  0.1447
  170SOPE   H7X19243   3.242   2.362   7.341 -0.5174 -0.0728 -0.8159
  170SOPE   H7Y19244   3.277   2.534   7.367  0.7703  0.4652 -1.4725
  170SOPE   C3819245   3.421   2.389   7.461  0.6354 -0.3473 -0.1995
  170SOPE   H8X19246   3.374   2.415   7.558 -0.3727 -3.0209  0.1128
  170SOPE   H8Y19247   3.512   2.453   7.461  1.7528 -1.7896  2.1900
  170SOPE   C3919248   3.456   2.235   7.447 -0.3867 -0.3455 -0.7019
  170SOPE   H9X19249   3.522   2.210   7.361  1.5425 -1.2391  0.9551
  170SOPE   H9Y19250   3.364   2.176   7.433 -0.0447 -1.5115  1.5159
  170SOPE  C31019251   3.526   2.178   7.571 -0.3323  0.9693 -0.3880
  170SOPE  H10X19252   3.608   2.247   7.599  0.5129  0.0504 -0.5301
  170SOPE  H10Y19253   3.574   2.088   7.528 -0.2429  0.7648  0.1368
  170SOPE  C31119254   3.441   2.137   7.692 -0.1520 -0.1422 -0.2022
  170SOPE  H11X19255   3.404   2.233   7.733  1.1361  0.7869 -1.1495
  170SOPE  H11Y19256   3.501   2.100   7.778  1.6973  0.2696 -1.2796
  170SOPE  C31219257   3.321   2.042   7.667 -0.5619 -1.4724 -0.0514
  170SOPE  H12X19258   3.372   1.948   7.639  0.5642 -0.9651  0.2456
  170SOPE  H12Y19259   3.262   2.081   7.582 -0.5916 -0.8546  0.2409
  170SOPE  C31319260   3.218   2.048   7.777 -0.9299  0.2039  0.2227
  170SOPE  H13X19261   3.127   1.985   7.764  0.3825 -1.8279  0.5429
  170SOPE  H13Y19262   3.180   2.150   7.801 -2.3392 -0.4138  0.7066
  170SOPE  C31419263   3.268   1.989   7.915 -0.2495 -0.4484  0.1921
  170SOPE  H14X19264   3.186   1.990   7.989  0.1964 -0.2786  0.6888
  170SOPE  H14Y19265   3.353   2.049   7.955  0.4067 -3.4770  3.8659
  170SOPE  C31519266   3.309   1.847   7.903 -0.3869 -0.3375 -0.0001
  170SOPE  H15X19267   3.368   1.826   7.811 -0.6126  1.5010 -0.6050
  170SOPE  H15Y19268   3.216   1.793   7.875 -0.0869 -0.9312  0.1377
  170SOPE  C31619269   3.368   1.784   8.029  0.2823  0.2629 -0.1926
  170SOPE  H16X19270   3.337   1.678   8.022 -0.6870  0.4712  0.7472
  170SOPE  H16Y19271   3.304   1.815   8.114 -0.1214 -1.7871  0.2955
  170SOPE  C31719272   3.514   1.800   8.047 -1.2844  0.3489  0.0936
  170SOPE  H17X19273   3.561   1.791   7.947 -0.7749  2.7654  0.0595
  170SOPE  H17Y19274   3.537   1.719   8.120 -1.4739 -0.2690 -0.5176
  170SOPE  C31819275   3.558   1.937   8.102 -0.6438  0.0692 -0.0573
  170SOPE  H18X19276   3.666   1.945   8.126 -0.5976 -0.7469  0.0250
  170SOPE  H18Y19277   3.519   1.962   8.203 -1.9590  1.4426 -0.8552
  170SOPE  H18Z19278   3.519   2.023   8.042  0.9741 -0.5657 -2.1655
  171SOPE     N19279   5.420   1.323   6.570  0.1815 -0.2699  0.4463
  171SOPE   HN119280   5.380   1.294   6.478 -2.4399 -1.5299  1.8901
  171SOPE   HN219281   5.340   1.340   6.634  1.8017  2.0993  1.9933
  171SOPE   HN319282   5.468   1.414   6.557  2.5244 -1.2837  1.4015
  171SOPE   C1219283   5.516   1.225   6.627  0.2815 -0.2389 -0.5595
  171SOPE  H12A19284   5.495   1.130   6.573  1.1759 -1.0241  0.4285
  171SOPE  H12B19285   5.474   1.203   6.728 -0.3311 -0.2185 -0.8051
  171SOPE   C1119286   5.666   1.267   6.633  0.4930 -0.3873 -0.2449
  171SOPE  H11A19287   5.714   1.238   6.537 -0.6021 -0.1997 -0.8712
  171SOPE  H11B19288   5.720   1.216   6.715 -0.6558  1.1701  1.5629
  171SOPE     P19289   5.780   1.501   6.585 -0.0531  0.5189 -0.0320
  171SOPE   O1319290   5.743   1.641   6.607 -0.0272 -0.0755 -0.0817
  171SOPE   O1419291   5.806   1.444   6.448 -0.2980 -0.5113 -0.0125
  171SOPE   O1219292   5.669   1.414   6.650  0.0071 -0.4607  0.2562
  171SOPE   O1119293   5.901   1.447   6.679  0.3878 -0.2736 -0.4889
  171SOPE    C119294   5.913   1.475   6.821  0.5269 -0.5360  0.2795
  171SOPE    HA19295   5.834   1.543   6.860  1.2295  0.3026  0.2788
  171SOPE    HB19296   6.014   1.516   6.842  1.0199 -1.1588 -0.8324
  171SOPE    C219297   5.899   1.343   6.898  0.6755  0.7351  0.4245
  171SOPE    HS19298   5.796   1.300   6.888  0.5591  0.9470  0.7117
  171SOPE   O2119299   5.931   1.373   7.038  0.0569 -0.5511  0.4249
  171SOPE   C2119300   5.833   1.422   7.113 -0.1960 -0.2570  0.5892
  171SOPE   O2219301   5.728   1.460   7.072  0.2852  0.5349  0.6118
  171SOPE   C2219302   5.870   1.418   7.266  0.1051 -0.2236 -0.8060
  171SOPE   H2R19303   5.932   1.501   7.305 -1.9477  0.3654  1.4138
  171SOPE   H2S19304   5.926   1.325   7.288 -0.6875 -0.7259 -0.8988
  171SOPE    C319305   5.984   1.224   6.843  0.9590 -0.1647  0.2706
  171SOPE    HX19306   6.090   1.256   6.845  0.5782  1.2045  0.0915
  171SOPE    HY19307   5.951   1.224   6.737  0.2590  0.2710  0.4795
  171SOPE   O3119308   5.952   1.097   6.905 -0.6682  0.1429  0.9341
  171SOPE   C3119309   6.028   1.001   6.860  0.3573 -0.3589  0.1677
  171SOPE   O3219310   6.110   1.006   6.773 -0.0299 -0.0699  0.2626
  171SOPE   C3219311   6.015   0.876   6.947  0.5077 -0.4119 -0.3997
  171SOPE   H2X19312   6.098   0.806   6.924 -0.2022 -1.2010 -0.6096
  171SOPE   H2Y19313   5.915   0.840   6.914  0.8817 -0.6906 -1.2482
  171SOPE   C2319314   5.740   1.418   7.349  0.2062  0.3712  0.0917
  171SOPE   H3R19315   5.687   1.324   7.322  3.3183 -2.0072  1.5793
  171SOPE   H3S19316   5.672   1.500   7.320  0.4352  0.9593  1.1406
  171SOPE   C2419317   5.763   1.402   7.492 -0.1170 -0.2486 -0.5598
  171SOPE   H4R19318   5.807   1.309   7.532 -2.6523 -0.3151  2.5017
  171SOPE   H4S19319   5.828   1.484   7.530 -2.1981  0.9185  0.6988
  171SOPE   C2519320   5.638   1.407   7.574  0.3087 -0.0053 -0.0435
  171SOPE   H5R19321   5.579   1.491   7.532  2.9208  1.6545 -0.5820
  171SOPE   H5S19322   5.579   1.317   7.547  1.8132 -1.1530  0.3407
  171SOPE   C2619323   5.662   1.434   7.720 -0.3163 -0.0633 -0.8346
  171SOPE   H6R19324   5.699   1.537   7.740  0.9957 -0.9815  2.0163
  171SOPE   H6S19325   5.560   1.452   7.761 -0.5500 -2.1483 -0.4143
  171SOPE   C2719326   5.738   1.334   7.805  0.0957 -0.2029  0.6806
  171SOPE   H7R19327   5.701   1.229   7.795 -2.0912  0.4726  1.2096
  171SOPE   H7S19328   5.842   1.344   7.766 -0.2400  2.3086  0.2687
  171SOPE   C2819329   5.739   1.364   7.952  0.0015  0.2001 -0.2137
  171SOPE   H8R19330   5.823   1.311   8.002 -2.0202 -1.3567  1.7552
  171SOPE   H8S19331   5.773   1.470   7.952  2.4560 -0.5230 -0.5464
  171SOPE   C2919332   5.613   1.336   8.027  0.5156 -0.3480 -0.3022
  171SOPE   H9119333   5.564   1.246   7.988  0.9616 -1.3263  1.2567
  171SOPE  C21019334   5.557   1.397   8.133 -0.2514  0.1777  0.0473
  171SOPE  H10119335   5.462   1.351   8.165 -1.1851  1.9475 -0.0563
  171SOPE  C21119336   5.626   1.512   8.202 -0.3984 -1.1407  0.4013
  171SOPE  H11R19337   5.549   1.580   8.243  1.1406  0.6285  0.4627
  171SOPE  H11S19338   5.685   1.567   8.126  0.0463  0.2453  1.7196
  171SOPE  C21219339   5.710   1.464   8.312 -0.2303  0.1422 -0.3334
  171SOPE  H12R19340   5.800   1.408   8.278 -1.6866 -2.0306 -0.8134
  171SOPE  H12S19341   5.652   1.390   8.371 -2.9000  2.1398 -0.2895
  171SOPE  C21319342   5.739   1.581   8.408 -0.2571  0.2518  0.0181
  171SOPE  H13R19343   5.786   1.533   8.496 -0.7880 -1.2707 -0.5008
  171SOPE  H13S19344   5.644   1.630   8.438 -1.1242 -0.5324 -1.3187
  171SOPE  C21419345   5.838   1.682   8.356 -0.0460  0.1328  0.5678
  171SOPE  H14R19346   5.797   1.736   8.268  0.5514  0.2091  0.3313
  171SOPE  H14S19347   5.930   1.627   8.328  0.6601  1.5631 -0.0184
  171SOPE  C21519348   5.882   1.783   8.461  0.2470  0.1358  0.2719
  171SOPE  H15R19349   5.907   1.733   8.557 -0.7272 -0.7235  0.1020
  171SOPE  H15S19350   5.791   1.845   8.475 -0.7548 -0.8233 -1.6117
  171SOPE  C21619351   6.010   1.864   8.417  0.5993 -0.1607 -0.3085
  171SOPE  H16R19352   5.994   1.892   8.311 -1.9568 -0.5081 -0.0893
  171SOPE  H16S19353   6.102   1.802   8.427  0.2955 -0.4000  1.3083
  171SOPE  C21719354   6.029   1.983   8.509 -0.1108 -0.3158  0.2178
  171SOPE  H17R19355   6.039   1.955   8.616  0.3769 -3.5226 -0.5549
  171SOPE  H17S19356   5.931   2.031   8.493 -1.0036 -2.2004 -0.2723
  171SOPE  C21819357   6.146   2.076   8.472 -0.6239 -0.1164 -0.5415
  171SOPE  H18R19358   6.173   2.128   8.566  0.6058 -0.8452 -0.4715
  171SOPE  H18S19359   6.116   2.147   8.392 -0.2525 -2.5758 -3.0232
  171SOPE  H18T19360   6.232   2.013   8.441 -0.1031 -0.2039  0.9841
  171SOPE   C3319361   6.012   0.898   7.101  0.0110  0.1252  0.1916
  171SOPE   H3X19362   5.976   0.802   7.142  0.6446 -1.4831 -2.7140
  171SOPE   H3Y19363   5.943   0.983   7.120  0.9676  0.3478  3.0334
  171SOPE   C3419364   6.148   0.948   7.141  0.1049  0.4009 -0.2222
  171SOPE   H4X19365   6.161   1.054   7.110 -1.7794  0.9530  0.7661
  171SOPE   H4Y19366   6.221   0.877   7.095 -1.5814  0.5756 -3.4809
  171SOPE   C3519367   6.181   0.958   7.288  0.6463 -1.2130  0.1541
  171SOPE   H5X19368   6.292   0.952   7.289  0.7343  0.0515 -0.0593
  171SOPE   H5Y19369   6.143   0.865   7.335  1.1944 -1.2249  0.5833
  171SOPE   C3619370   6.133   1.090   7.355 -0.7701  0.4710  0.3953
  171SOPE   H6X19371   6.024   1.099   7.370 -1.3683 -2.4848 -1.4145
  171SOPE   H6Y19372   6.172   1.171   7.290  0.5557 -0.5494 -0.1305
  171SOPE   C3719373   6.188   1.107   7.496 -0.6565  1.1339 -0.6388
  171SOPE   H7X19374   6.296   1.080   7.499 -0.8885  0.2348 -0.0428
  171SOPE   H7Y19375   6.143   1.025   7.556  1.8402  0.1378  0.0361
  171SOPE   C3819376   6.158   1.243   7.550 -0.3683  0.4263  0.2043
  171SOPE   H8X19377   6.051   1.269   7.538 -0.7789 -1.7642 -1.3627
  171SOPE   H8Y19378   6.221   1.309   7.488 -1.0738  0.3521 -0.6047
  171SOPE   C3919379   6.205   1.268   7.689 -0.0032 -0.1352  0.2369
  171SOPE   H9X19380   6.171   1.367   7.727 -0.5651  1.1066 -3.1146
  171SOPE   H9Y19381   6.316   1.262   7.699  0.1368  1.9698  0.3554
  171SOPE  C31019382   6.141   1.161   7.773 -0.4536 -0.3009  0.7880
  171SOPE  H10X19383   6.213   1.077   7.783  0.2673  0.1877 -0.0621
  171SOPE  H10Y19384   6.046   1.127   7.727 -0.7699 -0.5508  1.6129
  171SOPE  C31119385   6.109   1.215   7.909  0.6684  1.2083 -0.3037
  171SOPE  H11X19386   6.067   1.135   7.974 -0.7811 -1.0354 -3.6751
  171SOPE  H11Y19387   6.029   1.290   7.898  0.1832  0.9671  1.3520
  171SOPE  C31219388   6.227   1.270   7.993 -0.3988 -0.3869  0.6301
  171SOPE  H12X19389   6.281   1.354   7.944  1.0945 -1.1917  0.8287
  171SOPE  H12Y19390   6.291   1.185   8.025 -0.7440 -0.1701  1.9307
  171SOPE  C31319391   6.184   1.328   8.130 -0.4852  0.1508  0.0609
  171SOPE  H13X19392   6.101   1.398   8.108 -1.6728 -1.5987 -1.2957
  171SOPE  H13Y19393   6.269   1.390   8.167 -1.5876  2.3388 -0.9099
  171SOPE  C31419394   6.156   1.218   8.233 -0.4890  0.6635 -0.5749
  171SOPE  H14X19395   6.247   1.202   8.295  0.2820  2.5630 -1.1366
  171SOPE  H14Y19396   6.141   1.122   8.179 -1.1637  0.3932  0.0806
  171SOPE  C31519397   6.047   1.245   8.330  1.3252  0.5878 -0.6496
  171SOPE  H15X19398   5.954   1.247   8.269 -0.1773 -0.0828  1.4747
  171SOPE  H15Y19399   6.052   1.348   8.371 -0.6844  0.5906 -0.3117
  171SOPE  C31619400   6.044   1.145   8.450  0.1572 -0.1599 -0.3827
  171SOPE  H16X19401   6.143   1.162   8.496 -0.4275 -0.6002  1.0907
  171SOPE  H16Y19402   6.048   1.043   8.406 -0.8154 -0.1956 -0.4056
  171SOPE  C31719403   5.915   1.171   8.533 -0.1808  0.0098 -0.7044
  171SOPE  H17X19404   5.830   1.144   8.466 -0.2228 -0.2849 -0.5340
  171SOPE  H17Y19405   5.905   1.278   8.558  1.6837 -0.1375  0.9105
  171SOPE  C31819406   5.883   1.099   8.666  0.5107  0.0223  0.4774
  171SOPE  H18X19407   5.776   1.123   8.681  0.7053  0.6355  0.9091
  171SOPE  H18Y19408   5.943   1.137   8.752  0.4130  0.7958  0.2115
  171SOPE  H18Z19409   5.898   0.989   8.669  0.3307 -0.0047  0.4115
  172SOPE     N19410   6.759   2.977   6.453  0.2184 -0.4205 -0.4912
  172SOPE   HN119411   6.759   2.956   6.555 -0.2158  0.9588 -0.1932
  172SOPE   HN219412   6.853   3.017   6.436 -0.6107  2.4430  1.1230
  172SOPE   HN319413   6.690   3.052   6.434  0.8158  0.2073 -0.1913
  172SOPE   C1219414   6.742   2.854   6.374  0.1844  0.0954  0.4423
  172SOPE  H12A19415   6.833   2.791   6.390  0.0132 -0.7570 -1.5817
  172SOPE  H12B19416   6.745   2.890   6.269 -0.4051  0.3638  0.5145
  172SOPE   C1119417   6.607   2.780   6.399 -0.5137 -0.0642  0.7905
  172SOPE  H11A19418   6.585   2.716   6.311  1.1834 -1.1515  1.1147
  172SOPE  H11B19419   6.529   2.859   6.405 -1.6717 -1.0394 -0.6829
  172SOPE     P19420   6.640   2.558   6.534  0.3667  0.1672 -0.0307
  172SOPE   O1319421   6.770   2.522   6.460  0.1494 -0.1449  0.2107
  172SOPE   O1419422   6.518   2.480   6.494  0.0986 -0.0101 -0.2947
  172SOPE   O1219423   6.610   2.715   6.523 -0.2366  0.2029 -0.4640
  172SOPE   O1119424   6.676   2.527   6.682  0.2186 -0.3226 -0.9610
  172SOPE    C119425   6.671   2.629   6.786  0.6590  1.1102  0.3411
  172SOPE    HA19426   6.565   2.656   6.802  0.0584 -0.1840 -1.1917
  172SOPE    HB19427   6.732   2.719   6.760  1.2854  0.9519  1.2026
  172SOPE    C219428   6.731   2.587   6.925  0.4856  0.6148 -0.1152
  172SOPE    HS19429   6.684   2.494   6.963 -3.4502  3.1025  1.7290
  172SOPE   O2119430   6.714   2.692   7.023  0.9220  0.1082 -0.0132
  172SOPE   C2119431   6.591   2.721   7.067 -0.3030  0.5618 -0.3130
  172SOPE   O2219432   6.494   2.659   7.029  0.9821 -0.1900 -0.0104
  172SOPE   C2219433   6.600   2.822   7.177  0.1415  0.2461 -0.3682
  172SOPE   H2R19434   6.554   2.922   7.160 -0.0826  0.1557 -0.2985
  172SOPE   H2S19435   6.708   2.845   7.188  0.7728 -2.8876  1.1301
  172SOPE    C319436   6.887   2.560   6.917  0.6969 -0.8389  0.1827
  172SOPE    HX19437   6.947   2.649   6.886 -1.2336  1.0988  1.6843
  172SOPE    HY19438   6.905   2.481   6.841  0.1082  0.1594 -1.0252
  172SOPE   O3119439   6.932   2.514   7.045 -0.2179 -0.2118  0.0924
  172SOPE   C3119440   7.052   2.456   7.049  0.0840  0.3310  0.4806
  172SOPE   O3219441   7.110   2.407   6.952 -0.5857 -0.5699  1.0120
  172SOPE   C3219442   7.101   2.433   7.190 -0.4890 -0.3776  0.5071
  172SOPE   H2X19443   7.126   2.538   7.217 -0.4088  0.5309 -2.6166
  172SOPE   H2Y19444   7.198   2.380   7.202 -0.0257  0.5115  0.8120
  172SOPE   C2319445   6.554   2.756   7.310  0.3610  0.1016 -0.1563
  172SOPE   H3R19446   6.623   2.669   7.316  0.7392  0.3410 -0.8566
  172SOPE   H3S19447   6.448   2.726   7.298  0.5127  0.1650 -1.9234
  172SOPE   C2419448   6.571   2.837   7.434 -0.1633  0.3724  0.7819
  172SOPE   H4R19449   6.676   2.873   7.437 -0.2085  0.9317 -1.8752
  172SOPE   H4S19450   6.512   2.931   7.433  0.6245  0.8817 -0.8387
  172SOPE   C2519451   6.540   2.751   7.560 -0.7046 -0.2413 -0.0659
  172SOPE   H5R19452   6.433   2.721   7.562 -0.2403 -2.0089  0.5312
  172SOPE   H5S19453   6.604   2.660   7.563  0.9991  0.8825 -0.4541
  172SOPE   C2619454   6.552   2.829   7.693  0.1509  0.8565 -0.2380
  172SOPE   H6R19455   6.656   2.867   7.696  0.5856 -0.2795 -0.4607
  172SOPE   H6S19456   6.487   2.919   7.688 -1.9286 -0.6442 -2.5081
  172SOPE   C2719457   6.520   2.740   7.814  0.0986 -0.0063  0.0429
  172SOPE   H7R19458   6.418   2.695   7.808  0.5544 -0.8780 -1.7280
  172SOPE   H7S19459   6.587   2.652   7.812  2.9892  2.0632  0.3685
  172SOPE   C2819460   6.536   2.799   7.953  0.3925  0.4013 -0.1412
  172SOPE   H8R19461   6.538   2.710   8.021  0.5978  0.8767  0.4829
  172SOPE   H8S19462   6.629   2.858   7.959 -0.1798  1.1405  3.2762
  172SOPE   C2919463   6.423   2.896   7.988  0.7067 -0.7302 -0.8485
  172SOPE   H9119464   6.390   2.954   7.900  1.5074  2.0699  0.5973
  172SOPE  C21019465   6.350   2.904   8.106 -0.3992  0.5687 -0.5203
  172SOPE  H10119466   6.277   2.986   8.111 -0.6823  0.2761  0.1266
  172SOPE  C21119467   6.380   2.827   8.234  0.6235 -0.3599  0.1750
  172SOPE  H11R19468   6.474   2.767   8.235  1.8759  1.4665 -1.0293
  172SOPE  H11S19469   6.302   2.751   8.254  0.7420 -0.1385  1.5886
  172SOPE  C21219470   6.391   2.916   8.360  0.0545 -0.3777  0.4170
  172SOPE  H12R19471   6.293   2.964   8.378  0.3987  0.2918  0.5378
  172SOPE  H12S19472   6.462   3.000   8.347  1.0606 -1.1153  0.9535
  172SOPE  C21319473   6.448   2.848   8.486 -0.6720  0.6815 -0.5567
  172SOPE  H13R19474   6.557   2.836   8.468 -0.7569  0.7240 -1.1205
  172SOPE  H13S19475   6.394   2.752   8.498 -0.8147  0.5643 -1.9773
  172SOPE  C21419476   6.422   2.910   8.622 -1.1675 -0.5204 -0.1768
  172SOPE  H14R19477   6.312   2.905   8.638 -1.2615 -3.3600 -1.1944
  172SOPE  H14S19478   6.458   3.015   8.613  1.4640 -1.3730 -0.5929
  172SOPE  C21519479   6.497   2.845   8.748  0.1205 -0.5849  0.6013
  172SOPE  H15R19480   6.488   2.912   8.836  0.4305  2.6094 -1.6172
  172SOPE  H15S19481   6.608   2.845   8.738  0.2072  0.1889  1.4054
  172SOPE  C21619482   6.451   2.705   8.782 -0.7165 -0.5302 -0.1637
  172SOPE  H16R19483   6.468   2.638   8.695  0.7455 -2.8336  1.7803
  172SOPE  H16S19484   6.345   2.697   8.811 -0.4458 -1.2814  0.6557
  172SOPE  C21719485   6.528   2.648   8.900 -0.0270  0.1374  0.1938
  172SOPE  H17R19486   6.635   2.678   8.894  0.1225 -0.5757 -0.7840
  172SOPE  H17S19487   6.519   2.538   8.895  0.2872  0.1696 -1.9150
  172SOPE  C21819488   6.473   2.684   9.042  0.3577 -1.1533 -0.8544
  172SOPE  H18R19489   6.492   2.788   9.075  0.0286 -1.5060  0.4879
  172SOPE  H18S19490   6.522   2.623   9.121  0.1862 -1.9532 -1.3512
  172SOPE  H18T19491   6.368   2.661   9.068 -0.1338  2.3137  0.8597
  172SOPE   C3319492   7.004   2.368   7.290  0.1414 -0.5630  0.5337
  172SOPE   H3X19493   6.977   2.270   7.247 -0.3566 -0.3243  0.2925
  172SOPE   H3Y19494   6.913   2.431   7.296  0.6379  0.5754 -2.3705
  172SOPE   C3419495   7.059   2.338   7.432  0.2946 -0.9232 -0.4950
  172SOPE   H4X19496   7.125   2.422   7.463  0.6956 -1.9362  1.6157
  172SOPE   H4Y19497   7.122   2.247   7.424 -0.0172 -1.3078  1.0469
  172SOPE   C3519498   6.947   2.309   7.531  0.9432 -0.1525  0.6175
  172SOPE   H5X19499   6.886   2.223   7.496 -0.2187  0.5124  0.9853
  172SOPE   H5Y19500   6.872   2.390   7.542  2.3936  1.0861  1.8820
  172SOPE   C3619501   7.000   2.275   7.675  0.1039 -0.0905  0.7152
  172SOPE   H6X19502   7.078   2.195   7.673 -1.1356 -1.3876  2.0711
  172SOPE   H6Y19503   6.911   2.230   7.724  0.8919  0.5394  2.7874
  172SOPE   C3719504   7.033   2.398   7.755 -0.4646 -0.1529  0.2408
  172SOPE   H7X19505   7.076   2.476   7.687  0.9974  0.6580  2.0181
  172SOPE   H7Y19506   7.117   2.368   7.822  1.4524  2.4533 -0.7821
  172SOPE   C3819507   6.921   2.465   7.824  0.4160  0.3299  0.6793
  172SOPE   H8X19508   6.872   2.383   7.880  0.0218 -0.5188 -0.8357
  172SOPE   H8Y19509   6.856   2.505   7.743 -0.1996 -0.5934  0.7091
  172SOPE   C3919510   6.964   2.570   7.926  0.3698  0.1893 -0.2063
  172SOPE   H9X19511   7.042   2.630   7.874 -0.5538  0.6652 -1.0612
  172SOPE   H9Y19512   7.008   2.519   8.015 -2.3208 -0.3249  0.9282
  172SOPE  C31019513   6.839   2.643   7.977 -0.4770 -0.1626 -0.1548
  172SOPE  H10X19514   6.749   2.578   7.983  0.3916 -1.2854  1.4892
  172SOPE  H10Y19515   6.818   2.726   7.906  1.5466  0.1601 -0.4304
  172SOPE  C31119516   6.851   2.709   8.114  0.1880 -0.0806  0.1536
  172SOPE  H11X19517   6.908   2.636   8.176  1.0296 -1.0871 -1.7256
  172SOPE  H11Y19518   6.752   2.722   8.162  1.2615  0.8317  2.2948
  172SOPE  C31219519   6.925   2.845   8.114 -0.4228 -1.3585 -0.5247
  172SOPE  H12X19520   6.863   2.933   8.085  1.7011 -0.4796 -2.7712
  172SOPE  H12Y19521   7.007   2.846   8.040  0.3968 -0.3869  0.3659
  172SOPE  C31319522   6.977   2.867   8.254 -0.1628 -0.1350 -0.4355
  172SOPE  H13X19523   7.040   2.959   8.253  1.4168 -1.1950 -1.4718
  172SOPE  H13Y19524   7.042   2.784   8.290 -1.4191 -1.5607 -1.3543
  172SOPE  C31419525   6.875   2.875   8.368  0.6583 -0.5114 -0.4865
  172SOPE  H14X19526   6.820   2.781   8.391  1.0646 -0.1835  2.1692
  172SOPE  H14Y19527   6.797   2.950   8.341  2.2949  1.4411 -0.0456
  172SOPE  C31519528   6.926   2.939   8.501 -0.3053 -0.4751 -0.1217
  172SOPE  H15X19529   6.846   2.943   8.578 -0.1432  1.1555  0.0069
  172SOPE  H15Y19530   6.955   3.043   8.475  2.2057 -1.1505 -0.2622
  172SOPE  C31619531   7.045   2.857   8.558  0.1547  0.2001  0.3177
  172SOPE  H16X19532   7.112   2.813   8.481  3.0441 -0.6463  3.0792
  172SOPE  H16Y19533   6.997   2.765   8.599  0.2447 -0.0012 -0.0302
  172SOPE  C31719534   7.124   2.938   8.666 -0.4020 -0.2879  0.4403
  172SOPE  H17X19535   7.065   2.954   8.760 -1.6800 -1.7271 -0.0669
  172SOPE  H17Y19536   7.159   3.036   8.627  1.5955 -1.0100  0.3162
  172SOPE  C31819537   7.252   2.875   8.726  0.0771 -0.2840 -0.0142
  172SOPE  H18X19538   7.315   2.843   8.640 -1.5648 -0.8735 -1.0476
  172SOPE  H18Y19539   7.225   2.780   8.776  0.2500 -0.7071 -0.7044
  172SOPE  H18Z19540   7.293   2.948   8.799 -1.4809  0.3378  0.2765
  173SAPI   C1219541   4.141   0.112  11.106  0.0165 -0.4084 -1.1429
  173SAPI    H219542   4.240   0.092  11.060  0.9655  2.5654 -0.6255
  173SAPI    O219543   4.134   0.025  11.218  0.4958 -0.0568  0.2158
  173SAPI   HO219544   4.085  -0.053  11.189  2.2897 -1.1461 -0.0453
  173SAPI   C1319545   4.148   0.256  11.139 -0.0430  0.6329 -0.6710
  173SAPI    H319546   4.184   0.312  11.050  0.4160 -1.2089 -1.6958
  173SAPI    O319547   4.251   0.280  11.229 -0.4710  0.0955  0.1326
  173SAPI   HO319548   4.212   0.261  11.314 -0.3502  0.8606  0.3691
  173SAPI   C1419549   4.009   0.304  11.188 -0.6592  0.8433  0.0435
  173SAPI    H419550   3.986   0.259  11.287  0.5898 -0.7454 -0.3405
  173SAPI    O419551   4.015   0.435  11.215  0.3924 -1.3289 -0.5246
  173SAPI   HO419552   3.982   0.439  11.305 -0.2084 -0.0688 -0.7785
  173SAPI   C1519553   3.910   0.285  11.074 -0.0405 -0.4204 -0.7854
  173SAPI    H519554   3.945   0.342  10.986 -0.8844 -0.4977 -1.1789
  173SAPI    O519555   3.787   0.356  11.103 -0.4776 -0.4700  0.3011
  173SAPI   HO519556   3.820   0.431  11.154 -0.6551 -0.8909  1.0589
  173SAPI   C1619557   3.902   0.138  11.039  0.0357  0.7855 -0.4230
  173SAPI    H619558   3.870   0.089  11.134  2.3902 -0.2025 -0.0821
  173SAPI    O619559   3.805   0.110  10.938 -0.3213 -0.0622 -0.1483
  173SAPI   HO619560   3.830   0.030  10.890  2.5692 -0.6089  1.9753
  173SAPI   C1119561   4.039   0.085  10.998 -0.0423 -0.7982 -0.5315
  173SAPI    H119562   4.073   0.139  10.907 -0.3242 -0.3251 -0.3571
  173SAPI     P19563   4.039  -0.121  10.818 -0.5374  0.1310  0.2359
  173SAPI   O1319564   3.902  -0.093  10.760 -0.4396 -0.5274  0.0258
  173SAPI   O1419565   4.080  -0.255  10.835  0.2601  0.6991 -0.5352
  173SAPI   O1219566   4.042  -0.054  10.968 -0.6035 -0.2901 -0.6437
  173SAPI   O1119567   4.158  -0.055  10.731  0.3303  0.3704  0.7712
  173SAPI    C119568   4.140   0.011  10.602 -0.4332  0.0745  0.0238
  173SAPI    HA19569   4.056   0.083  10.601 -1.3821 -1.0026  0.5087
  173SAPI    HB19570   4.229   0.070  10.570 -0.2374 -0.0015  0.4130
  173SAPI    C219571   4.099  -0.098  10.492  0.3358 -1.0705  0.6577
  173SAPI    HS19572   4.006  -0.140  10.535  0.0919 -0.6695  0.5318
  173SAPI   O2119573   4.199  -0.192  10.464  0.0405  0.2842 -0.1238
  173SAPI   C2119574   4.157  -0.321  10.442 -0.4681 -0.0455 -0.1410
  173SAPI   O2219575   4.041  -0.354  10.443 -0.4072 -0.0336 -0.0167
  173SAPI   C2219576   4.272  -0.401  10.385  0.3045  0.7495  0.4417
  173SAPI   H2R19577   4.338  -0.335  10.325  2.6737 -1.3275  0.6161
  173SAPI   H2S19578   4.343  -0.431  10.464  2.1182 -1.2429 -1.8040
  173SAPI    C319579   4.054  -0.019  10.359 -0.3718 -0.3369 -0.2468
  173SAPI    HX19580   3.987   0.062  10.394 -0.7442 -0.6674 -0.1996
  173SAPI    HY19581   3.988  -0.075  10.289  0.4184 -0.8652 -0.5917
  173SAPI   O3119582   4.168   0.041  10.293 -0.1233  0.2230  0.2319
  173SAPI   C3119583   4.222  -0.031  10.193  0.9612  0.1608  0.1497
  173SAPI   O3219584   4.187  -0.134  10.142  0.4579 -0.5285 -0.7981
  173SAPI   C3219585   4.350   0.048  10.158 -0.2470  0.3323 -0.3373
  173SAPI   H2X19586   4.405  -0.007  10.079  0.0966  1.6624 -1.0610
  173SAPI   H2Y19587   4.411   0.065  10.250 -0.3434  0.3308 -0.2725
  173SAPI   C2319588   4.229  -0.536  10.332 -0.4043 -0.0267  0.2583
  173SAPI   H3R19589   4.188  -0.521  10.229  0.4676 -0.5303 -0.1654
  173SAPI   H3S19590   4.145  -0.579  10.391  1.6785 -3.4366  0.9928
  173SAPI   C2419591   4.323  -0.662  10.337 -0.5545 -0.3852 -0.2715
  173SAPI   H4R19592   4.270  -0.750  10.295 -1.4265  0.5148 -1.1059
  173SAPI   H4S19593   4.334  -0.692  10.443  0.4889  0.0313 -0.2518
  173SAPI   C2519594   4.454  -0.632  10.276 -0.0516  0.9558  0.6109
  173SAPI   H5R19595   4.536  -0.599  10.342  0.6782 -3.0287  2.0090
  173SAPI   C2619596   4.479  -0.664  10.144 -0.0102  0.4157  0.3198
  173SAPI   H6R19597   4.578  -0.633  10.107  0.4461 -1.3419 -0.0650
  173SAPI   C2719598   4.394  -0.725  10.033 -0.1501  0.3230  0.1480
  173SAPI   H7R19599   4.337  -0.808  10.079 -1.0915  0.1671 -1.2348
  173SAPI   H7S19600   4.469  -0.766   9.962 -0.8340 -1.3838  0.3780
  173SAPI   C2819601   4.291  -0.644   9.966  0.1645 -0.1062 -0.1446
  173SAPI   H8R19602   4.259  -0.557  10.024 -2.1604 -0.1819 -1.2231
  173SAPI   C2919603   4.244  -0.666   9.844 -0.4421 -0.1357 -0.4794
  173SAPI   H9R19604   4.179  -0.595   9.791 -1.1246 -1.5273 -1.5642
  173SAPI  C21019605   4.296  -0.781   9.757 -0.5376 -0.4144 -0.2917
  173SAPI  H10R19606   4.330  -0.862   9.826 -1.2137 -0.5171 -0.0690
  173SAPI  H10S19607   4.390  -0.760   9.702 -1.3222 -1.8442 -2.2702
  173SAPI  C21119608   4.184  -0.839   9.672 -0.2486 -0.1790  0.3708
  173SAPI  H11R19609   4.139  -0.933   9.705  0.0167 -0.1625  0.7837
  173SAPI  C21219610   4.149  -0.791   9.544  0.1073 -0.1394 -0.6475
  173SAPI  H12R19611   4.063  -0.842   9.498 -1.0005  0.0760  1.0798
  173SAPI  C21319612   4.219  -0.680   9.477 -0.7981 -0.5098  0.1384
  173SAPI  H13R19613   4.245  -0.601   9.551 -0.2021  1.7675 -2.3665
  173SAPI  H13S19614   4.140  -0.638   9.411 -0.7121 -1.7988 -0.8031
  173SAPI  C21419615   4.339  -0.700   9.389  0.0821 -0.6537  0.5886
  173SAPI  H14R19616   4.438  -0.700   9.435  0.2278  0.2727  0.2876
  173SAPI  C21519617   4.329  -0.724   9.259  0.0615 -0.4899 -0.1210
  173SAPI  H15R19618   4.425  -0.739   9.207  1.4172  0.9384  1.8309
  173SAPI  C21619619   4.201  -0.739   9.170 -0.8413  0.2316  0.0743
  173SAPI  H16R19620   4.213  -0.666   9.087  0.2769  0.5581  0.5058
  173SAPI  H16S19621   4.105  -0.708   9.218 -0.4275  1.6606  0.0249
  173SAPI  C21719622   4.190  -0.877   9.102  0.2486 -0.4902 -0.5448
  173SAPI  H17R19623   4.169  -0.953   9.180  2.1758  0.0485  0.5488
  173SAPI  H17S19624   4.283  -0.898   9.045  1.0622 -0.0626  0.6002
  173SAPI  C21819625   4.069  -0.880   9.004 -0.8001  0.9853 -1.0029
  173SAPI  H18R19626   3.984  -0.846   9.068 -1.1925  0.7483 -1.3940
  173SAPI  H18S19627   4.055  -0.986   8.974  0.7747  0.5208 -0.1803
  173SAPI  C21919628   4.078  -0.789   8.886  0.6480  0.0407  0.2230
  173SAPI  H19R19629   4.182  -0.805   8.852  1.4223 -0.8970  2.8035
  173SAPI  H19S19630   4.075  -0.686   8.928 -1.3167  0.5930 -1.1433
  173SAPI  C22019631   3.976  -0.797   8.770  0.2053 -0.4995 -0.4801
  173SAPI  H20R19632   3.995  -0.896   8.723 -0.0261 -0.1835 -1.2556
  173SAPI  H20S19633   4.000  -0.721   8.692 -1.0205 -1.2089 -1.6093
  173SAPI  H20T19634   3.869  -0.793   8.799  0.3835  0.3526  0.0860
  173SAPI   C3319635   4.311   0.189  10.105  0.2634  0.2425 -0.4355
  173SAPI   H3X19636   4.409   0.235  10.081  1.7414 -1.7740  1.3186
  173SAPI   H3Y19637   4.265   0.254  10.183  0.9074 -0.4979  0.5942
  173SAPI   C3419638   4.211   0.187   9.983 -0.7924 -0.0571 -0.1917
  173SAPI   H4X19639   4.185   0.292   9.959 -3.1485 -0.6108 -0.3398
  173SAPI   H4Y19640   4.118   0.136  10.017 -0.8976 -0.9930 -1.7759
  173SAPI   C3519641   4.264   0.108   9.860 -0.2291 -0.4104  0.8701
  173SAPI   H5X19642   4.316   0.017   9.895  1.0610  0.6837  1.9161
  173SAPI   H5Y19643   4.326   0.179   9.801 -1.8911  1.5629  1.3887
  173SAPI   C3619644   4.140   0.077   9.765 -0.4501 -0.0075 -0.3481
  173SAPI   H6X19645   4.081   0.170   9.748  1.7297  1.7364  1.1803
  173SAPI   H6Y19646   4.066   0.011   9.816  0.4033 -0.2780  0.5533
  173SAPI   C3719647   4.177   0.030   9.631  0.2495  0.0104  0.2981
  173SAPI   H7X19648   4.193  -0.080   9.630  0.7588  0.0220 -3.0003
  173SAPI   H7Y19649   4.274   0.080   9.615  0.0609  2.0930  4.2754
  173SAPI   C3819650   4.064   0.067   9.530  0.1814  0.3966 -0.9983
  173SAPI   H8X19651   4.015   0.165   9.547  0.9816  0.7524 -0.7192
  173SAPI   H8Y19652   3.988  -0.013   9.544  0.7314  0.2680  2.0065
  173SAPI   C3919653   4.101   0.054   9.384 -0.6870 -0.1902  0.7372
  173SAPI   H9X19654   4.126  -0.045   9.340  2.7677  1.1047 -0.5898
  173SAPI   H9Y19655   4.190   0.121   9.377 -2.2544  1.9404  0.2736
  173SAPI  C31019656   4.016   0.128   9.285  0.0231  0.3451 -0.0016
  173SAPI  H10X19657   4.067   0.154   9.190  0.3243 -0.9281 -0.2016
  173SAPI  H10Y19658   4.006   0.230   9.329  0.9886  0.3471  0.2250
  173SAPI  C31119659   3.878   0.061   9.259  0.3903 -0.4024  0.5806
  173SAPI  H11X19660   3.808   0.062   9.345 -0.7199  1.6533 -0.2745
  173SAPI  H11Y19661   3.884  -0.046   9.229 -1.0598 -1.0204  2.3268
  173SAPI  C31219662   3.797   0.116   9.139 -0.2035  0.1725  0.9852
  173SAPI  H12X19663   3.862   0.122   9.049 -1.1402  1.5093  0.3625
  173SAPI  H12Y19664   3.756   0.218   9.153 -0.4329  0.4566 -1.2874
  173SAPI  C31319665   3.683   0.021   9.094  0.5957 -0.2700  0.5593
  173SAPI  H13X19666   3.602   0.005   9.169 -0.9483  1.7942 -0.5845
  173SAPI  H13Y19667   3.723  -0.082   9.081 -1.0590 -0.9706  0.7084
  173SAPI  C31419668   3.608   0.064   8.966  0.0338 -0.3428  0.1729
  173SAPI  H14X19669   3.676   0.058   8.878 -0.0998 -0.9546  0.1052
  173SAPI  H14Y19670   3.574   0.169   8.972  0.0406 -0.2619 -0.9518
  173SAPI  C31519671   3.494  -0.030   8.933  0.2050  0.2501  0.0117
  173SAPI  H15X19672   3.434  -0.000   8.845 -0.0675  0.7692  0.3658
  173SAPI  H15Y19673   3.427  -0.042   9.021  0.1732 -2.4712 -0.3082
  173SAPI  C31619674   3.548  -0.177   8.913  0.4833  0.4178 -0.0843
  173SAPI  H16X19675   3.581  -0.225   9.008 -4.8202 -0.7555  1.5012
  173SAPI  H16Y19676   3.624  -0.196   8.835  0.6316  0.9165 -0.0659
  173SAPI  C31719677   3.438  -0.268   8.863  0.0395  0.8875 -0.0560
  173SAPI  H17X19678   3.401  -0.246   8.761 -1.0866 -1.4581 -0.2338
  173SAPI  H17Y19679   3.347  -0.269   8.927  0.0721  2.7229  0.0745
  173SAPI  C31819680   3.487  -0.420   8.856 -0.5848 -0.1143 -0.0553
  173SAPI  H18X19681   3.464  -0.484   8.944  1.3752 -1.8194 -0.6978
  173SAPI  H18Y19682   3.596  -0.428   8.832  0.0599  0.1188  2.4913
  173SAPI  H18Z19683   3.439  -0.464   8.766  0.7608 -0.2004 -0.7574
  174SAPI   C1219684   1.712   0.462  10.929 -0.8167  0.1655 -0.5093
  174SAPI    H219685   1.686   0.568  10.909  0.5153  0.8421  1.0596
  174SAPI    O219686   1.627   0.425  11.038  0.1900 -0.6952 -0.4775
  174SAPI   HO219687   1.534   0.428  11.013 -0.0216  0.0088  0.3483
  174SAPI   C1319688   1.703   0.374  10.808 -0.0224  0.0095  0.0419
  174SAPI    H319689   1.769   0.414  10.728 -0.6457  1.2055  0.0943
  174SAPI    O319690   1.572   0.382  10.750  0.8463  0.4566  0.4417
  174SAPI   HO319691   1.505   0.406  10.814  0.0953  0.1607 -0.2149
  174SAPI   C1419692   1.752   0.233  10.842 -0.3391  0.1220 -0.1610
  174SAPI    H419693   1.697   0.191  10.929 -1.0317  1.5211  0.0942
  174SAPI    O419694   1.738   0.159  10.727 -0.0406 -0.5499  0.0210
  174SAPI   HO419695   1.655   0.191  10.693 -1.2265 -2.7649  0.5903
  174SAPI   C1519696   1.893   0.234  10.890 -0.5591  0.2374  0.0680
  174SAPI    H519697   1.950   0.270  10.802  0.5585 -2.2987 -0.3378
  174SAPI    O519698   1.938   0.098  10.913 -0.2022 -0.6393 -0.3121
  174SAPI   HO519699   1.969   0.068  10.827  0.5609 -0.2757 -0.1749
  174SAPI   C1619700   1.916   0.327  11.010  0.1902  0.3684  0.3400
  174SAPI    H619701   1.866   0.279  11.097  0.3776 -1.9321 -0.7477
  174SAPI    O619702   2.053   0.331  11.035 -0.4350  0.5687 -0.3459
  174SAPI   HO619703   2.098   0.415  11.022  0.9923  0.4337  2.8710
  174SAPI   C1119704   1.855   0.469  10.973 -0.0114  0.4877 -0.3072
  174SAPI    H119705   1.913   0.493  10.881  1.4740 -1.1452  0.1499
  174SAPI     P19706   1.991   0.677  11.090 -0.1096  0.4274 -0.2117
  174SAPI   O1319707   2.115   0.595  11.070  0.1056 -0.1309 -0.1284
  174SAPI   O1419708   1.985   0.746  11.220 -0.5998 -0.1767  0.0343
  174SAPI   O1219709   1.867   0.574  11.066  0.4468 -0.0793 -0.7884
  174SAPI   O1119710   1.952   0.770  10.972 -0.6924  0.2641  0.3852
  174SAPI    C119711   1.824   0.813  10.935  0.5029  0.4162 -0.2710
  174SAPI    HA19712   1.742   0.769  10.996  0.5638  0.4228 -0.1838
  174SAPI    HB19713   1.821   0.920  10.967 -0.3809  0.3938 -0.2484
  174SAPI    C219714   1.795   0.798  10.778  0.5468  0.2296  0.0171
  174SAPI    HS19715   1.758   0.696  10.757 -0.3658  0.6973 -0.7387
  174SAPI   O2119716   1.913   0.828  10.702 -0.3495  0.1602  0.5674
  174SAPI   C2119717   1.994   0.728  10.671  0.0244 -0.3605 -0.3015
  174SAPI   O2219718   1.980   0.612  10.703 -0.0194 -0.4984  0.1980
  174SAPI   C2219719   2.109   0.785  10.589 -0.9419 -0.2972  0.0578
  174SAPI   H2R19720   2.164   0.870  10.634  1.6960 -2.1459  0.5552
  174SAPI   H2S19721   2.180   0.701  10.576  0.2655  0.4796  1.3000
  174SAPI    C319722   1.677   0.891  10.731 -0.3881 -0.6210  1.1084
  174SAPI    HX19723   1.710   0.997  10.738  0.9165 -1.0478  1.5636
  174SAPI    HY19724   1.592   0.884  10.802 -0.7514  0.1056  0.7520
  174SAPI   O3119725   1.630   0.856  10.601  0.2509  0.4535  0.2457
  174SAPI   C3119726   1.553   0.947  10.549 -0.1293  1.4801  0.5734
  174SAPI   O3219727   1.529   1.051  10.598 -0.7168 -0.4853 -0.4027
  174SAPI   C3219728   1.500   0.907  10.407  0.3903  0.6191  0.1193
  174SAPI   H2X19729   1.390   0.888  10.407  0.7004 -1.5220 -0.3613
  174SAPI   H2Y19730   1.550   0.811  10.380  0.4818  0.4089  1.0111
  174SAPI   C2319731   2.075   0.821  10.442 -0.1081  0.2702  0.7716
  174SAPI   H3R19732   2.151   0.891  10.402 -0.9214  0.2860 -0.8190
  174SAPI   H3S19733   1.975   0.869  10.435 -0.6424 -0.8341  0.6948
  174SAPI   C2419734   2.085   0.696  10.351  0.2220 -0.5291  0.3360
  174SAPI   H4R19735   2.190   0.661  10.364 -1.1280 -4.5010  2.3170
  174SAPI   H4S19736   2.082   0.732  10.246  0.9504  1.3767  0.9354
  174SAPI   C2519737   2.000   0.573  10.376  0.9364  0.2064 -0.3368
  174SAPI   H5R19738   2.019   0.523  10.472  2.3653  0.7828 -0.2861
  174SAPI   C2619739   1.917   0.512  10.291  0.3251 -0.5564  0.5089
  174SAPI   H6R19740   1.865   0.419  10.318 -0.6378 -0.0219  0.5170
  174SAPI   C2719741   1.897   0.558  10.143 -0.1937 -0.0799 -0.2621
  174SAPI   H7R19742   1.816   0.495  10.101 -0.2549  0.1945 -0.5666
  174SAPI   H7S19743   1.984   0.539  10.077  0.7870 -0.0409  0.9706
  174SAPI   C2819744   1.850   0.705  10.148 -0.6256  0.0490 -1.0412
  174SAPI   H8R19745   1.826   0.750  10.245 -3.3080 -2.8290 -0.1806
  174SAPI   C2919746   1.832   0.779  10.041  0.0901  0.1351 -0.1947
  174SAPI   H9R19747   1.785   0.878  10.054  0.3418  0.2879 -0.4436
  174SAPI  C21019748   1.839   0.723   9.894  0.3143 -0.6321 -0.3185
  174SAPI  H10R19749   1.811   0.616   9.890 -1.5916 -0.2078  0.3960
  174SAPI  H10S19750   1.947   0.719   9.867  0.4294 -0.5399  0.1190
  174SAPI  C21119751   1.764   0.811   9.794 -0.9037 -0.3980 -0.4717
  174SAPI  H11R19752   1.704   0.891   9.838 -0.1352 -1.1721  2.1159
  174SAPI  C21219753   1.761   0.788   9.662  0.3589 -1.0082 -0.0237
  174SAPI  H12R19754   1.709   0.861   9.599 -0.6755 -0.4443  1.4319
  174SAPI  C21319755   1.821   0.670   9.586  0.4217 -0.1863 -0.1731
  174SAPI  H13R19756   1.916   0.643   9.636  0.3208 -1.9022 -0.8367
  174SAPI  H13S19757   1.852   0.713   9.488 -0.1684  0.0583 -0.2572
  174SAPI  C21419758   1.726   0.560   9.567 -0.0536  0.8083  0.5974
  174SAPI  H14R19759   1.689   0.518   9.661  2.0966 -1.7850  0.4051
  174SAPI  C21519760   1.677   0.532   9.444  0.3462 -0.2097  1.1202
  174SAPI  H15R19761   1.605   0.448   9.439  0.1627  0.0098 -0.3037
  174SAPI  C21619762   1.705   0.585   9.307 -0.0238 -0.1236  0.1464
  174SAPI  H16R19763   1.684   0.503   9.235 -1.0998 -0.0931  0.4211
  174SAPI  H16S19764   1.811   0.617   9.297 -0.9076  2.8115 -0.8932
  174SAPI  C21719765   1.624   0.710   9.277 -0.6426 -0.1887  0.1266
  174SAPI  H17R19766   1.664   0.796   9.336 -2.1892 -0.3916  1.5309
  174SAPI  H17S19767   1.522   0.685   9.312 -1.2951  0.2472 -1.3615
  174SAPI  C21819768   1.614   0.748   9.128  0.1406 -0.4192  0.2133
  174SAPI  H18R19769   1.543   0.833   9.115 -0.1234 -0.7111 -0.3001
  174SAPI  H18S19770   1.569   0.664   9.070  0.4405 -0.6037  0.2460
  174SAPI  C21919771   1.748   0.798   9.057 -0.2056 -0.2073  0.0582
  174SAPI  H19R19772   1.810   0.706   9.049  1.8137  1.0271  0.6959
  174SAPI  H19S19773   1.797   0.868   9.128  1.5998 -1.5947  0.2654
  174SAPI  C22019774   1.720   0.863   8.919 -0.3109  0.9056 -0.7545
  174SAPI  H20R19775   1.651   0.804   8.855 -0.0217  1.6086 -1.7345
  174SAPI  H20S19776   1.812   0.880   8.861 -0.8155 -0.4589 -2.0302
  174SAPI  H20T19777   1.660   0.955   8.931 -1.2914  0.2294 -0.2668
  174SAPI   C3319778   1.530   1.012  10.300  0.0988 -0.2112 -0.4206
  174SAPI   H3X19779   1.636   1.042  10.286  0.0100 -0.7152 -2.6310
  174SAPI   H3Y19780   1.474   1.103  10.328  1.9069  0.9963 -0.5747
  174SAPI   C3419781   1.480   0.965  10.163  0.1205  0.3955  0.1524
  174SAPI   H4X19782   1.386   0.906  10.165 -0.3546  1.1784  1.3465
  174SAPI   H4Y19783   1.554   0.890  10.126  0.6149  0.2705  1.3534
  174SAPI   C3519784   1.460   1.076  10.061  0.3392  0.4566  0.2344
  174SAPI   H5X19785   1.557   1.130  10.063  0.0404  1.2894 -3.0525
  174SAPI   H5Y19786   1.381   1.150  10.081 -0.0379  0.3039 -0.6327
  174SAPI   C3619787   1.431   1.015   9.919  0.6739 -0.2821 -0.0851
  174SAPI   H6X19788   1.348   0.943   9.933  0.3824 -0.2807 -1.5644
  174SAPI   H6Y19789   1.513   0.950   9.882  1.1625  1.1832 -1.7465
  174SAPI   C3719790   1.404   1.110   9.807 -0.1252 -0.6707 -0.0390
  174SAPI   H7X19791   1.487   1.183   9.818  0.1649 -0.9279 -0.5453
  174SAPI   H7Y19792   1.312   1.173   9.817  1.4426  1.4728  1.9935
  174SAPI   C3819793   1.419   1.045   9.667  0.0006 -1.2750  0.0609
  174SAPI   H8X19794   1.329   0.984   9.646 -2.6276  2.3027 -0.0189
  174SAPI   H8Y19795   1.516   0.991   9.657  0.4607 -0.5534  0.4912
  174SAPI   C3919796   1.417   1.155   9.557 -0.5885  0.0011 -0.0317
  174SAPI   H9X19797   1.478   1.245   9.579 -2.3368  1.1964  0.1080
  174SAPI   H9Y19798   1.312   1.192   9.559  0.2714  2.6388  0.1673
  174SAPI  C31019799   1.459   1.092   9.427  0.2968  0.6820  0.5058
  174SAPI  H10X19800   1.397   1.002   9.408 -0.7106  0.9298  2.3554
  174SAPI  H10Y19801   1.563   1.052   9.425 -0.5879 -1.9223 -2.9160
  174SAPI  C31119802   1.459   1.184   9.309 -0.3234 -0.3649  0.3413
  174SAPI  H11X19803   1.544   1.253   9.328  1.6338 -1.9588 -1.8993
  174SAPI  H11Y19804   1.367   1.246   9.315 -0.7832 -1.1622  1.8888
  174SAPI  C31219805   1.461   1.102   9.184 -0.1036  0.3769 -0.2201
  174SAPI  H12X19806   1.364   1.048   9.180 -1.4128  2.6013 -0.0312
  174SAPI  H12Y19807   1.540   1.026   9.204 -0.1784  0.7111  1.4961
  174SAPI  C31319808   1.486   1.194   9.059  1.0282 -0.4271  0.2024
  174SAPI  H13X19809   1.487   1.114   8.982  1.0210 -1.4873  1.2722
  174SAPI  H13Y19810   1.587   1.238   9.061  1.5974 -1.5207 -1.5749
  174SAPI  C31419811   1.368   1.292   9.037  0.2872 -0.0677  0.9266
  174SAPI  H14X19812   1.350   1.364   9.121 -1.4927 -1.3991  1.7596
  174SAPI  H14Y19813   1.280   1.224   9.036  0.4690 -0.3032 -0.6816
  174SAPI  C31519814   1.374   1.375   8.906 -0.1830  0.5560  0.0918
  174SAPI  H15X19815   1.430   1.468   8.930  2.1567 -0.8249  0.2858
  174SAPI  H15Y19816   1.271   1.411   8.886 -0.3496  0.2786  0.4403
  174SAPI  C31619817   1.427   1.305   8.784  0.2060  0.2661  0.4074
  174SAPI  H16X19818   1.390   1.201   8.775  0.3668  0.3762 -3.2914
  174SAPI  H16Y19819   1.538   1.295   8.788  0.4805  1.3301 -2.2268
  174SAPI  C31719820   1.399   1.388   8.656 -0.2770  0.7033 -0.4478
  174SAPI  H17X19821   1.468   1.368   8.571  0.6056 -0.3050  0.4828
  174SAPI  H17Y19822   1.415   1.494   8.687 -0.0915  0.8314 -0.9794
  174SAPI  C31819823   1.255   1.366   8.596 -0.1175  0.2606  0.0505
  174SAPI  H18X19824   1.169   1.384   8.664 -1.0749 -0.7404 -0.8634
  174SAPI  H18Y19825   1.240   1.259   8.569  0.8168  0.3968 -1.1127
  174SAPI  H18Z19826   1.252   1.433   8.507  5.0535 -0.8046 -1.2910
  175SAPI   C1219827   6.636   0.592   6.224  0.2456  0.1428  0.9505
  175SAPI    H219828   6.591   0.691   6.246 -0.0155  0.5345 -1.1341
  175SAPI    O219829   6.546   0.523   6.131  0.5362  0.4666  0.3606
  175SAPI   HO219830   6.517   0.595   6.075 -1.0748  0.1474  0.7491
  175SAPI   C1319831   6.762   0.618   6.141 -0.5316 -0.4367 -0.0367
  175SAPI    H319832   6.836   0.671   6.205  2.1440  0.7821 -3.7874
  175SAPI    O319833   6.736   0.718   6.040  0.4959 -0.1369 -0.1647
  175SAPI   HO319834   6.644   0.703   6.017  0.9034 -1.0451 -1.2703
  175SAPI   C1419835   6.824   0.490   6.095 -0.2107  0.2326 -0.6928
  175SAPI    H419836   6.755   0.434   6.028 -2.5028  1.5087  0.5060
  175SAPI    O419837   6.939   0.524   6.017 -0.0427 -0.0230  0.3995
  175SAPI   HO419838   6.966   0.608   6.054 -3.0250  0.9686  0.5811
  175SAPI   C1519839   6.862   0.404   6.214  0.7794 -0.4163  0.3214
  175SAPI    H519840   6.932   0.460   6.280 -0.4398  0.2031  1.1044
  175SAPI    O519841   6.925   0.283   6.168  0.2101  0.5334  0.2838
  175SAPI   HO519842   7.003   0.316   6.123  0.7542  0.1624  0.9293
  175SAPI   C1619843   6.733   0.377   6.302 -0.2640 -0.3085 -0.3894
  175SAPI    H619844   6.656   0.316   6.250  0.2562 -1.8092  0.5176
  175SAPI    O619845   6.766   0.310   6.420  0.5086  0.3940  0.6627
  175SAPI   HO619846   6.681   0.275   6.449  0.4961 -0.4309 -0.3254
  175SAPI   C1119847   6.677   0.515   6.343 -0.3490  0.1363  0.1513
  175SAPI    H119848   6.760   0.565   6.398  1.3259 -0.7711 -1.4607
  175SAPI     P19849   6.511   0.600   6.544  0.0510  0.0157  0.1025
  175SAPI   O1319850   6.362   0.589   6.557  0.1356 -0.5606  0.4513
  175SAPI   O1419851   6.570   0.736   6.513  0.2681 -0.2282  0.1815
  175SAPI   O1219852   6.561   0.505   6.422 -0.0087  0.0514 -0.1112
  175SAPI   O1119853   6.563   0.551   6.680 -0.0923 -0.0058 -0.3645
  175SAPI    C119854   6.543   0.411   6.713 -0.3726 -1.0844 -0.3084
  175SAPI    HA19855   6.435   0.394   6.731 -1.2995  3.0373 -1.0154
  175SAPI    HB19856   6.577   0.340   6.635 -1.8351 -1.4810 -0.6072
  175SAPI    C219857   6.619   0.368   6.847 -0.0941  0.0711 -0.5274
  175SAPI    HS19858   6.577   0.273   6.888 -0.9500  0.4304 -0.5637
  175SAPI   O2119859   6.613   0.475   6.946 -0.0194  0.0661 -0.2354
  175SAPI   C2119860   6.494   0.494   6.993 -0.2483 -0.3070 -0.7607
  175SAPI   O2219861   6.389   0.441   6.958  0.5287  0.4020 -0.1270
  175SAPI   C2219862   6.504   0.618   7.083  0.5293  0.6168 -0.0401
  175SAPI   H2R19863   6.587   0.596   7.154  1.3479 -2.0727 -1.6797
  175SAPI   H2S19864   6.535   0.702   7.018  2.5310 -0.3198 -0.3765
  175SAPI    C319865   6.768   0.348   6.819  0.0040  0.4642 -0.9761
  175SAPI    HX19866   6.804   0.448   6.785 -0.2381  1.5993  1.8306
  175SAPI    HY19867   6.784   0.281   6.732 -3.4863 -0.0949 -1.3002
  175SAPI   O3119868   6.837   0.291   6.929  0.1338 -0.0478  0.2683
  175SAPI   C3119869   6.959   0.334   6.962 -0.7704 -0.5240 -0.5058
  175SAPI   O3219870   7.010   0.435   6.915 -0.0540 -0.3015  0.4177
  175SAPI   C3219871   7.014   0.241   7.067 -0.0193  0.7991 -0.4292
  175SAPI   H2X19872   7.064   0.158   7.013 -0.9873  1.3137 -2.1710
  175SAPI   H2Y19873   6.926   0.192   7.115  0.4776  0.5071  0.1973
  175SAPI   C2319874   6.373   0.652   7.159  0.7334 -0.3253 -0.2989
  175SAPI   H3R19875   6.286   0.661   7.092 -0.6710  0.3867  1.5344
  175SAPI   H3S19876   6.388   0.749   7.211  0.2947 -0.4202  0.0066
  175SAPI   C2419877   6.328   0.546   7.267 -0.1171 -0.0901 -0.2372
  175SAPI   H4R19878   6.315   0.452   7.209 -2.1378 -0.4801  0.7665
  175SAPI   H4S19879   6.226   0.569   7.304  1.2010  0.0921  3.8019
  175SAPI   C2519880   6.427   0.525   7.385 -0.0387  0.1449 -0.0721
  175SAPI   H5R19881   6.523   0.477   7.363  0.4352  0.6100  0.9321
  175SAPI   C2619882   6.418   0.563   7.510  0.0531 -0.2059  0.3210
  175SAPI   H6R19883   6.497   0.531   7.580  0.5605 -0.8688 -0.5392
  175SAPI   C2719884   6.304   0.637   7.573 -0.3515  0.3332 -0.1710
  175SAPI   H7R19885   6.274   0.596   7.672  0.2471 -1.3860 -0.6611
  175SAPI   H7S19886   6.211   0.622   7.514 -0.6119  0.7395  0.1309
  175SAPI   C2819887   6.329   0.788   7.580  0.5823  0.4823  0.5096
  175SAPI   H8R19888   6.301   0.848   7.493 -0.5424 -0.8720 -0.1098
  175SAPI   C2919889   6.394   0.851   7.678  0.6197  1.0184 -0.3839
  175SAPI   H9R19890   6.398   0.961   7.668 -1.8198  1.1233 -1.1161
  175SAPI  C21019891   6.463   0.787   7.796 -0.1467  0.1498 -0.5717
  175SAPI  H10R19892   6.546   0.846   7.838  0.3563 -2.4803  2.5773
  175SAPI  H10S19893   6.514   0.691   7.773  3.4288  2.1286 -1.5555
  175SAPI  C21119894   6.358   0.765   7.912  0.5110  0.5744  0.7450
  175SAPI  H11R19895   6.274   0.710   7.867  0.5399  1.9300 -1.0547
  175SAPI  C21219896   6.355   0.804   8.041  0.7605  0.5304 -0.1968
  175SAPI  H12R19897   6.271   0.774   8.105  1.4702  0.6352  0.7964
  175SAPI  C21319898   6.455   0.885   8.120  0.2889  0.5342  0.0943
  175SAPI  H13R19899   6.539   0.819   8.151 -1.6196 -2.2642 -0.3496
  175SAPI  H13S19900   6.400   0.903   8.215  1.1860  1.8429  0.4050
  175SAPI  C21419901   6.504   1.013   8.055  0.2885  0.1684  0.3613
  175SAPI  H14R19902   6.468   1.030   7.953  0.3457  2.2328  0.6386
  175SAPI  C21519903   6.583   1.112   8.102  0.2144  0.5111  0.8314
  175SAPI  H15R19904   6.593   1.210   8.053 -1.2103  0.7769  1.0267
  175SAPI  C21619905   6.640   1.111   8.245 -0.2358 -0.4234 -0.0364
  175SAPI  H16R19906   6.731   1.174   8.254 -0.3142 -0.3602  0.3458
  175SAPI  H16S19907   6.667   1.009   8.279  0.3539 -0.1161  0.4318
  175SAPI  C21719908   6.537   1.171   8.350 -0.0921 -0.0916  0.3144
  175SAPI  H17R19909   6.445   1.109   8.349  0.2528 -0.6710  1.7576
  175SAPI  H17S19910   6.499   1.273   8.326  1.4388  0.3370 -0.3998
  175SAPI  C21819911   6.583   1.166   8.496 -0.7323 -0.1247  0.4959
  175SAPI  H18R19912   6.603   1.060   8.524  0.9476 -0.4576 -1.6321
  175SAPI  H18S19913   6.497   1.202   8.555 -0.3219 -0.6561  1.4429
  175SAPI  C21919914   6.702   1.247   8.544  0.3328 -0.6796  0.2039
  175SAPI  H19R19915   6.678   1.355   8.540 -1.2471 -0.9846  0.9130
  175SAPI  H19S19916   6.785   1.230   8.472 -0.9543 -1.4574 -1.1495
  175SAPI  C22019917   6.746   1.224   8.688  0.6601 -0.2991 -0.2384
  175SAPI  H20R19918   6.778   1.119   8.705  0.9068  0.1460  2.3394
  175SAPI  H20S19919   6.668   1.240   8.766  0.6000  0.6267 -0.4790
  175SAPI  H20T19920   6.832   1.290   8.710  0.7548 -0.6128  0.3343
  175SAPI   C3319921   7.128   0.299   7.149 -0.8545 -0.4540 -0.0939
  175SAPI   H3X19922   7.210   0.345   7.091 -1.8658  0.4552 -0.8381
  175SAPI   H3Y19923   7.167   0.214   7.209  0.2779 -0.7456 -1.2219
  175SAPI   C3419924   7.077   0.403   7.255  0.4644  0.6690 -0.1663
  175SAPI   H4X19925   6.978   0.370   7.293  0.2409 -0.2736 -1.5058
  175SAPI   H4Y19926   7.053   0.494   7.196 -1.5264  0.6075  0.4977
  175SAPI   C3519927   7.170   0.439   7.370 -0.9133  0.1502 -0.8429
  175SAPI   H5X19928   7.124   0.519   7.431  1.6460  0.0011  1.4601
  175SAPI   H5Y19929   7.274   0.465   7.341 -0.1087 -1.3764  0.5088
  175SAPI   C3619930   7.185   0.318   7.468 -0.6184  0.7515 -0.6217
  175SAPI   H6X19931   7.208   0.228   7.407  0.8616  1.6168 -1.4043
  175SAPI   H6Y19932   7.090   0.290   7.519 -0.8332  1.3117 -0.7107
  175SAPI   C3719933   7.291   0.349   7.570  0.2702 -0.3923  0.1991
  175SAPI   H7X19934   7.301   0.459   7.583  0.2662 -0.0884 -2.0912
  175SAPI   H7Y19935   7.392   0.320   7.533  0.0668 -0.0175 -0.6660
  175SAPI   C3819936   7.245   0.288   7.705  0.0923  0.0668  0.5153
  175SAPI   H8X19937   7.258   0.178   7.712  1.7935  0.1910 -0.0722
  175SAPI   H8Y19938   7.136   0.308   7.711 -0.7989 -3.3320 -1.3723
  175SAPI   C3919939   7.301   0.343   7.848 -0.1301 -0.4368  0.2863
  175SAPI   H9X19940   7.251   0.441   7.864 -3.3042 -2.1526  1.9496
  175SAPI   H9Y19941   7.412   0.343   7.850 -0.1281  0.5012  0.5445
  175SAPI  C31019942   7.241   0.256   7.960 -0.1345  0.6999 -0.1817
  175SAPI  H10X19943   7.308   0.167   7.961 -0.8295  0.1701  0.4468
  175SAPI  H10Y19944   7.134   0.229   7.949  0.4718 -1.1131 -2.5152
  175SAPI  C31119945   7.253   0.319   8.101  0.3435  0.0876 -0.1012
  175SAPI  H11X19946   7.179   0.400   8.115  1.0621  0.4173  2.3493
  175SAPI  H11Y19947   7.352   0.368   8.116 -0.7163  1.8375  1.4582
  175SAPI  C31219948   7.237   0.222   8.216  0.9743  0.0383  0.1297
  175SAPI  H12X19949   7.235   0.116   8.181  0.8743  0.0242  0.1761
  175SAPI  H12Y19950   7.138   0.249   8.259  1.2134  0.4828  0.4011
  175SAPI  C31319951   7.331   0.227   8.341 -0.0724  0.0150  0.3506
  175SAPI  H13X19952   7.432   0.205   8.300 -1.3949 -0.5106 -2.9798
  175SAPI  H13Y19953   7.308   0.156   8.424  2.1095  1.2145  2.0872
  175SAPI  C31419954   7.331   0.367   8.403  0.6370 -0.8642 -1.2937
  175SAPI  H14X19955   7.227   0.404   8.419  1.3282  1.1604 -1.0945
  175SAPI  H14Y19956   7.382   0.437   8.334  0.0139 -0.1461 -1.0498
  175SAPI  C31519957   7.388   0.382   8.549 -0.3577 -0.0039  0.6122
  175SAPI  H15X19958   7.495   0.356   8.562 -0.0051  0.7623 -0.6498
  175SAPI  H15Y19959   7.336   0.298   8.601  0.0031 -0.3799  0.3717
  175SAPI  C31619960   7.367   0.525   8.613 -0.0836 -0.0900 -0.3219
  175SAPI  H16X19961   7.258   0.545   8.602 -0.2250 -0.6783 -0.0070
  175SAPI  H16Y19962   7.416   0.605   8.553 -0.6346 -1.2414 -2.3990
  175SAPI  C31719963   7.403   0.544   8.762  0.7234  0.5965 -0.1638
  175SAPI  H17X19964   7.383   0.446   8.812  1.6179 -0.0470 -1.0286
  175SAPI  H17Y19965   7.330   0.612   8.811 -1.6788 -0.0804 -2.5711
  175SAPI  C31819966   7.552   0.597   8.791  0.3739 -0.0416  0.1713
  175SAPI  H18X19967   7.568   0.598   8.901 -0.8126  0.2280  0.3555
  175SAPI  H18Y19968   7.562   0.701   8.753 -0.9584  0.4406  1.0683
  175SAPI  H18Z19969   7.632   0.539   8.739 -0.9104 -1.1860 -0.6113
  176SAPI   C1219970   5.976   5.463   6.509  0.4243  0.3197 -0.5395
  176SAPI    H219971   6.042   5.415   6.434  0.7467  0.3712 -0.2939
  176SAPI    O219972   6.059   5.498   6.616  0.1255 -0.0200  0.0995
  176SAPI   HO219973   6.080   5.416   6.661 -2.3932  0.1152  1.6961
  176SAPI   C1319974   5.906   5.586   6.454 -0.3472  0.5318 -0.2696
  176SAPI    H319975   5.866   5.552   6.356  1.9624  0.4124 -1.2325
  176SAPI    O319976   5.996   5.697   6.425 -0.3109 -0.4265 -0.4531
  176SAPI   HO319977   6.026   5.732   6.510 -0.8831 -0.2674 -0.3041
  176SAPI   C1419978   5.792   5.632   6.551 -0.4014 -0.8753  0.3545
  176SAPI    H419979   5.846   5.665   6.643 -0.0542  0.6003 -0.3361
  176SAPI    O419980   5.722   5.751   6.510  0.2776 -0.3316  0.4104
  176SAPI   HO419981   5.744   5.822   6.571 -0.1189 -1.0614  1.4230
  176SAPI   C1519982   5.699   5.526   6.593  0.4062  0.9436  0.0096
  176SAPI    H519983   5.631   5.489   6.514  0.7815  1.7002 -0.6731
  176SAPI    O519984   5.594   5.577   6.679 -0.0101 -0.1399  0.3233
  176SAPI   HO519985   5.560   5.663   6.651  1.6687  0.5796  0.3705
  176SAPI   C1619986   5.770   5.401   6.652 -0.1796  0.7882 -1.1851
  176SAPI    H619987   5.816   5.424   6.751 -1.5535 -1.0716 -0.0419
  176SAPI    O619988   5.681   5.293   6.686  0.5184  0.2197  0.7550
  176SAPI   HO619989   5.738   5.216   6.689 -1.0736 -1.0921 -0.5520
  176SAPI   C1119990   5.880   5.350   6.556 -0.1386 -0.0628  0.6541
  176SAPI    H119991   5.822   5.311   6.470 -0.5033  0.5354  0.6261
  176SAPI     P19992   6.027   5.123   6.508  0.2525  0.1477  0.0055
  176SAPI   O1319993   6.174   5.135   6.513 -0.3643 -0.2578  0.4094
  176SAPI   O1419994   5.956   5.130   6.378 -0.0726  0.1448  0.2354
  176SAPI   O1219995   5.959   5.237   6.607  0.1278  0.2033 -0.1280
  176SAPI   O1119996   5.987   4.990   6.579  0.2704  0.5508 -0.2121
  176SAPI    C119997   5.851   4.947   6.582  0.2308  1.4023  0.0153
  176SAPI    HA19998   5.778   5.031   6.579 -0.1169  1.0801 -0.6839
  176SAPI    HB19999   5.833   4.892   6.487  1.7158 -0.9661  0.9999
  176SAPI    C220000   5.804   4.855   6.701 -0.1816  0.1218  0.8194
  176SAPI    HS20001   5.698   4.882   6.723  0.7806  3.5178  1.8054
  176SAPI   O2120002   5.874   4.891   6.818 -0.5966  0.3901  0.5063
  176SAPI   C2120003   5.847   5.002   6.874 -0.2002 -0.3471 -0.0665
  176SAPI   O2220004   5.754   5.074   6.842  0.1091 -0.0503 -0.2910
  176SAPI   C2220005   5.950   5.036   6.988 -0.2491  0.5810  0.2786
  176SAPI   H2R20006   5.982   4.936   7.024 -2.2849 -0.0239  0.5367
  176SAPI   H2S20007   6.041   5.080   6.941 -0.3576  0.4884 -0.0225
  176SAPI    C320008   5.812   4.700   6.674  0.4966  0.1253  0.4371
  176SAPI    HX20009   5.919   4.673   6.660  1.1775  1.6491  2.2299
  176SAPI    HY20010   5.757   4.673   6.582 -1.5545 -0.8087  1.8487
  176SAPI   O3120011   5.753   4.633   6.785 -0.4887 -0.2985 -0.3991
  176SAPI   C3120012   5.694   4.513   6.759 -0.3528 -0.2146 -0.1889
  176SAPI   O3220013   5.669   4.478   6.643 -0.7271 -0.7183 -0.0724
  176SAPI   C3220014   5.647   4.444   6.888  0.0510 -0.5378 -0.2070
  176SAPI   H2X20015   5.626   4.517   6.970  0.9734  0.2227 -0.6302
  176SAPI   H2Y20016   5.734   4.383   6.920 -0.5798 -1.3967 -0.1176
  176SAPI   C2320017   5.885   5.123   7.096  0.1784 -0.2143 -0.1641
  176SAPI   H3R20018   5.809   5.192   7.055 -1.1971 -0.7707  1.3070
  176SAPI   H3S20019   5.972   5.183   7.131  0.2097 -1.0590  1.2870
  176SAPI   C2420020   5.833   5.029   7.203  0.2957  0.9338  0.1560
  176SAPI   H4R20021   5.910   4.991   7.273 -1.0011 -1.5971  0.3016
  176SAPI   H4S20022   5.798   4.937   7.152 -0.2436  1.1590  0.1169
  176SAPI   C2520023   5.716   5.098   7.274  0.0004 -0.1296  0.9588
  176SAPI   H5R20024   5.638   5.147   7.214  0.1887  0.3202  1.0831
  176SAPI   C2620025   5.709   5.105   7.407 -0.1609  0.2037  0.7656
  176SAPI   H6R20026   5.615   5.138   7.453  0.7690 -0.8024  3.5824
  176SAPI   C2720027   5.811   5.047   7.499 -0.6493  0.1220  0.1796
  176SAPI   H7R20028   5.826   5.097   7.597 -0.8379 -2.7961  1.8193
  176SAPI   H7S20029   5.910   5.066   7.453 -0.3389 -0.8771  0.4108
  176SAPI   C2820030   5.787   4.899   7.524  0.0735  0.5538 -0.3673
  176SAPI   H8R20031   5.805   4.837   7.435  0.2875  1.6575 -1.1091
  176SAPI   C2920032   5.741   4.851   7.644  0.1100 -0.2356  0.7259
  176SAPI   H9R20033   5.735   4.742   7.652  0.6740 -0.3401 -0.0846
  176SAPI  C21020034   5.719   4.931   7.771 -0.0295 -0.9659  0.4343
  176SAPI  H10R20035   5.671   5.029   7.751 -1.0739 -1.3215  1.0843
  176SAPI  H10S20036   5.821   4.952   7.810  0.2222 -1.4648  0.0632
  176SAPI  C21120037   5.647   4.854   7.880 -0.2211 -0.0902  0.3437
  176SAPI  H11R20038   5.592   4.765   7.845 -0.0163 -0.0730 -0.0317
  176SAPI  C21220039   5.652   4.889   8.010 -0.4602  0.2535 -0.2180
  176SAPI  H12R20040   5.590   4.835   8.083  0.5928 -0.3422  0.2591
  176SAPI  C21320041   5.726   5.003   8.070 -0.4065  0.2551 -0.1431
  176SAPI  H13R20042   5.661   5.057   8.142 -1.1595 -2.7572  1.6123
  176SAPI  H13S20043   5.763   5.083   8.003 -0.4531 -1.4686 -2.3675
  176SAPI  C21420044   5.845   4.939   8.135  0.6110 -0.0968  1.1938
  176SAPI  H14R20045   5.939   4.957   8.081 -0.7151  1.2140 -0.8149
  176SAPI  C21520046   5.850   4.892   8.262  0.0909  0.1469  0.5690
  176SAPI  H15R20047   5.949   4.859   8.299  0.1100 -0.0013  0.3898
  176SAPI  C21620048   5.737   4.878   8.360 -0.5191  0.2874 -0.3706
  176SAPI  H16R20049   5.708   4.772   8.371 -0.2918  0.3196  0.5621
  176SAPI  H16S20050   5.645   4.924   8.319 -0.6565 -0.3105 -0.7479
  176SAPI  C21720051   5.750   4.937   8.500 -0.0695 -0.0588  0.2749
  176SAPI  H17R20052   5.827   4.898   8.569 -0.7788  0.3796  1.3393
  176SAPI  H17S20053   5.659   4.918   8.561 -0.1476 -1.6360 -0.2892
  176SAPI  C21820054   5.763   5.087   8.491  0.4269  0.1934 -0.7725
  176SAPI  H18R20055   5.679   5.132   8.434 -0.8665 -0.1998  0.7327
  176SAPI  H18S20056   5.853   5.114   8.432  0.3078  1.7513 -0.2912
  176SAPI  C21920057   5.755   5.160   8.629  0.5555 -0.6501 -0.1310
  176SAPI  H19R20058   5.679   5.114   8.695  0.8133 -1.2591 -0.2497
  176SAPI  H19S20059   5.718   5.258   8.594  0.1556 -1.3565 -1.7760
  176SAPI  C22020060   5.885   5.174   8.716  0.4133  0.2946  0.1501
  176SAPI  H20R20061   5.886   5.266   8.778 -3.0307  2.0079 -2.0036
  176SAPI  H20S20062   5.977   5.179   8.654  1.6159 -1.6475  1.6615
  176SAPI  H20T20063   5.896   5.082   8.776  0.5513 -0.8950 -1.6178
  176SAPI   C3320064   5.524   4.356   6.851  0.0138 -0.9529 -0.2912
  176SAPI   H3X20065   5.547   4.286   6.768 -1.7711 -1.1231 -0.6799
  176SAPI   H3Y20066   5.441   4.412   6.804  0.4497 -0.6053 -0.6639
  176SAPI   C3420067   5.469   4.271   6.967 -0.0386  0.5339 -0.2702
  176SAPI   H4X20068   5.546   4.214   7.023  0.6000  0.5789 -1.0871
  176SAPI   H4Y20069   5.404   4.195   6.918 -0.6503  0.3990  0.7292
  176SAPI   C3520070   5.375   4.337   7.071 -0.0681 -0.5210 -0.4904
  176SAPI   H5X20071   5.308   4.405   7.014 -0.4871  0.6525  1.2960
  176SAPI   H5Y20072   5.445   4.401   7.131  0.9855 -1.4870 -0.6501
  176SAPI   C3620073   5.306   4.245   7.171  0.4908 -0.0800  0.2192
  176SAPI   H6X20074   5.388   4.209   7.237  3.1569  1.3432 -2.1131
  176SAPI   H6Y20075   5.253   4.159   7.124 -0.6007  0.1411  1.0203
  176SAPI   C3720076   5.200   4.323   7.250 -0.0431 -0.4703  0.4320
  176SAPI   H7X20077   5.138   4.378   7.177 -0.6292 -0.5677  0.8513
  176SAPI   H7Y20078   5.260   4.403   7.298 -0.1252  0.9976 -1.7923
  176SAPI   C3820079   5.109   4.262   7.356  0.4421 -0.6517  0.0775
  176SAPI   H8X20080   5.170   4.205   7.430 -0.1636 -1.6197 -0.1489
  176SAPI   H8Y20081   5.034   4.207   7.295  0.8156 -1.2666  0.1724
  176SAPI   C3920082   5.030   4.370   7.436  0.1881 -0.8811 -0.3707
  176SAPI   H9X20083   4.972   4.449   7.385 -0.1107 -0.7901  0.0980
  176SAPI   H9Y20084   5.095   4.430   7.503  0.4662 -2.7063  1.1046
  176SAPI  C31020085   4.927   4.309   7.531  0.2600 -0.5048  0.2768
  176SAPI  H10X20086   4.886   4.212   7.495  2.7127 -1.7833  0.7502
  176SAPI  H10Y20087   4.853   4.389   7.552 -1.2760 -0.6715 -3.7076
  176SAPI  C31120088   4.988   4.276   7.670  0.2000 -0.1151 -0.0477
  176SAPI  H11X20089   5.045   4.367   7.696 -0.7695  1.4231 -2.8406
  176SAPI  H11Y20090   5.060   4.195   7.646 -0.0072 -0.2783 -0.1326
  176SAPI  C31220091   4.883   4.266   7.791  0.2625  0.2803  1.1091
  176SAPI  H12X20092   4.818   4.178   7.773  1.4375  0.0718 -3.0415
  176SAPI  H12Y20093   4.814   4.353   7.787 -0.2215 -0.0381  2.1604
  176SAPI  C31320094   4.951   4.264   7.928  0.3556 -0.5253 -0.5162
  176SAPI  H13X20095   5.034   4.339   7.931  0.8721 -1.0359 -1.4468
  176SAPI  H13Y20096   4.990   4.160   7.937 -1.9550 -1.4855 -0.8630
  176SAPI  C31420097   4.849   4.282   8.047 -0.4117 -0.1877 -0.0246
  176SAPI  H14X20098   4.775   4.203   8.024  0.3659 -0.9242 -0.0538
  176SAPI  H14Y20099   4.811   4.385   8.033 -1.8852 -0.7236 -0.0931
  176SAPI  C31520100   4.912   4.266   8.182  0.6323 -0.2769  0.9867
  176SAPI  H15X20101   5.003   4.329   8.178  0.8369 -0.5756 -2.4547
  176SAPI  H15Y20102   4.952   4.165   8.205 -1.4046 -1.1160  1.1044
  176SAPI  C31620103   4.814   4.310   8.288  0.5439  0.3703  0.1222
  176SAPI  H16X20104   4.783   4.412   8.257  0.6558  0.6251  0.8423
  176SAPI  H16Y20105   4.862   4.310   8.388  0.7869 -0.7729  0.0183
  176SAPI  C31720106   4.680   4.232   8.302  0.1377 -0.5741  0.0561
  176SAPI  H17X20107   4.705   4.128   8.331 -2.0012 -0.6599  1.8373
  176SAPI  H17Y20108   4.632   4.232   8.202 -2.3178 -1.3696  1.1516
  176SAPI  C31820109   4.586   4.302   8.401  0.0696 -0.0069 -0.6767
  176SAPI  H18X20110   4.488   4.250   8.393  0.3677 -0.5129 -1.1127
  176SAPI  H18Y20111   4.578   4.410   8.373  1.1234 -0.1624 -1.6449
  176SAPI  H18Z20112   4.621   4.293   8.506 -0.7287  0.3535 -0.3647
  177SLPC     N20113   4.230   2.545  11.252  0.2883  0.0019  0.2206
  177SLPC   C1320114   4.117   2.538  11.360 -0.3392  0.2809 -0.5600
  177SLPC  H13A20115   4.131   2.447  11.416 -1.0457  0.6707  0.2644
  177SLPC  H13B20116   4.139   2.619  11.428 -3.0994  0.8892 -0.2691
  177SLPC  H13C20117   4.019   2.546  11.317 -1.3529 -1.1551  1.3408
  177SLPC   C1420118   4.214   2.679  11.189  0.3782 -1.1733  0.7526
  177SLPC  H14A20119   4.112   2.696  11.157  0.9501 -0.3908 -0.7288
  177SLPC  H14B20120   4.227   2.751  11.269  0.0253 -2.2009  1.7637
  177SLPC  H14C20121   4.275   2.695  11.101  0.7063  1.4717  1.3759
  177SLPC   C1520122   4.192   2.441  11.148  0.0989  0.2410 -0.2704
  177SLPC  H15A20123   4.245   2.455  11.055 -1.8716  3.1502 -1.1143
  177SLPC  H15B20124   4.209   2.342  11.186  0.2088  0.1542 -0.5454
  177SLPC  H15C20125   4.087   2.441  11.122 -0.0059 -0.7894  0.1200
  177SLPC   C1220126   4.369   2.517  11.302 -0.0634  0.9911  0.4495
  177SLPC  H12A20127   4.368   2.420  11.350 -1.6827 -0.2103 -1.8298
  177SLPC  H12B20128   4.402   2.605  11.354  0.4505  1.9989 -1.4787
  177SLPC   C1120129   4.477   2.502  11.191 -0.6131  0.1878  0.3684
  177SLPC  H11A20130   4.579   2.502  11.234 -1.0855 -1.4716  1.6007
  177SLPC  H11B20131   4.494   2.591  11.127 -1.2116 -1.0824 -1.6631
  177SLPC     P20132   4.530   2.373  10.971 -0.1290  0.4028 -0.1201
  177SLPC   O1320133   4.603   2.240  10.968  0.3904 -0.1042 -0.2367
  177SLPC   O1420134   4.429   2.392  10.869 -0.0465  0.3697 -0.2596
  177SLPC   O1220135   4.465   2.384  11.112 -0.5724 -0.1472  0.7536
  177SLPC   O1120136   4.635   2.491  10.967 -0.6969 -0.5536 -0.2380
  177SLPC    C120137   4.595   2.607  10.903 -0.5034 -0.8396  0.3688
  177SLPC    HA20138   4.486   2.627  10.907 -0.5723 -1.2609  4.7037
  177SLPC    HB20139   4.635   2.696  10.956 -1.8392 -0.6704  1.1481
  177SLPC    C220140   4.644   2.609  10.755 -0.0189 -0.1357 -0.0381
  177SLPC    HS20141   4.600   2.516  10.714  0.1228 -1.3403  2.3405
  177SLPC   O2120142   4.787   2.611  10.746 -0.4177 -0.1970 -0.2648
  177SLPC   C2120143   4.836   2.553  10.638  0.0193  0.1998 -0.2518
  177SLPC   O2220144   4.775   2.490  10.557 -0.0448  0.2443  0.4329
  177SLPC   C2220145   4.990   2.572  10.626 -0.0046  0.4233 -0.5998
  177SLPC   H2R20146   5.035   2.545  10.724  2.3480 -2.0412 -2.2346
  177SLPC   H2S20147   5.028   2.497  10.553 -0.4418  0.0627 -0.4622
  177SLPC    C320148   4.595   2.724  10.665 -0.3753  0.0563 -0.6379
  177SLPC    HX20149   4.485   2.730  10.677 -0.4470 -1.0965 -0.5972
  177SLPC    HY20150   4.623   2.712  10.558  1.3439 -1.9713 -0.0357
  177SLPC   O3120151   4.666   2.846  10.709 -0.1045 -0.8377  0.3498
  177SLPC   C3120152   4.588   2.959  10.709 -0.8988  0.0410  0.2583
  177SLPC   O3220153   4.476   2.962  10.669 -0.2823  0.7550  0.3466
  177SLPC   C3220154   4.663   3.080  10.751  0.4890  0.2011 -0.1320
  177SLPC   H2X20155   4.660   3.086  10.862  0.9771 -0.7916 -0.0526
  177SLPC   H2Y20156   4.607   3.167  10.712  1.2912  0.1709 -1.4396
  177SLPC   C2320157   5.031   2.720  10.588  0.7089  0.4485 -0.2204
  177SLPC   H3R20158   5.133   2.739  10.628  0.7864  1.7618 -0.9612
  177SLPC   H3S20159   4.960   2.788  10.640  0.9899  2.5690 -2.4086
  177SLPC   C2420160   5.025   2.749  10.435  0.2546 -0.0017  0.1522
  177SLPC   H4R20161   4.923   2.747  10.390  0.5684 -0.9508 -0.5558
  177SLPC   H4S20162   5.092   2.674  10.387  0.6060  1.7437 -2.3034
  177SLPC   C2520163   5.098   2.883  10.393  0.2057 -0.2794  0.5755
  177SLPC   H5R20164   5.204   2.889  10.425  1.4769  1.0025 -3.3092
  177SLPC   H5S20165   5.045   2.965  10.447  1.6258  2.1457 -1.4913
  177SLPC   C2620166   5.092   2.932  10.250 -0.1284  0.2217 -0.6328
  177SLPC   H6R20167   5.007   3.002  10.234  0.2819  0.4738 -1.7817
  177SLPC   H6S20168   5.059   2.839  10.200  0.8854 -1.1617  1.1654
  177SLPC   C2720169   5.222   3.004  10.207  0.3088 -0.1102 -0.3934
  177SLPC   H7R20170   5.230   3.098  10.265  1.3096 -0.5548  0.2140
  177SLPC   H7S20171   5.208   3.040  10.103  1.8477  0.3801 -0.4524
  177SLPC   C2820172   5.346   2.914  10.198  0.4497 -0.2216 -0.2889
  177SLPC   H8R20173   5.340   2.849  10.108  1.2505  0.8120 -1.1110
  177SLPC   H8S20174   5.359   2.842  10.281  2.1309 -0.0284 -0.3517
  177SLPC   C2920175   5.470   2.994  10.180  0.0210  0.9126 -0.0331
  177SLPC   H9R20176   5.499   3.044  10.274  1.0136 -0.0154  0.1702
  177SLPC  C21020177   5.542   3.027  10.068  0.2879 -0.2349  0.3200
  177SLPC  H10R20178   5.623   3.101  10.074 -1.2430  1.6748 -1.2051
  177SLPC  C21120179   5.514   2.980   9.925  0.5006  0.1328 -0.6968
  177SLPC  H11R20180   5.607   2.992   9.865  0.2953 -0.2856 -1.1110
  177SLPC  H11S20181   5.482   2.874   9.921 -3.3411  1.0330  1.1241
  177SLPC  C21220182   5.409   3.068   9.865  0.1616  0.6667  0.5142
  177SLPC  H12R20183   5.307   3.040   9.897 -0.1969  0.2225 -0.9540
  177SLPC  C21320184   5.422   3.149   9.764  0.6526  0.0652  0.0532
  177SLPC  H13R20185   5.335   3.213   9.741  0.7678  1.4826  3.1197
  177SLPC  C21420186   5.553   3.181   9.684 -0.1517 -0.4871 -0.0436
  177SLPC  H14R20187   5.638   3.109   9.685  0.3696  0.0186 -2.4017
  177SLPC  H14S20188   5.582   3.285   9.711  0.2459 -0.9220  1.2840
  177SLPC  C21520189   5.513   3.190   9.532  0.0874  0.0983  0.1684
  177SLPC  H15R20190   5.597   3.239   9.477  0.5362 -0.4079  0.3962
  177SLPC  H15S20191   5.422   3.253   9.521 -1.2521 -1.2106  2.7538
  177SLPC  C21620192   5.492   3.050   9.478  0.5701  0.2247 -0.5661
  177SLPC  H16R20193   5.402   3.004   9.525 -0.5200  1.9040 -0.8842
  177SLPC  H16S20194   5.582   2.999   9.518 -0.4854 -0.4733  1.0089
  177SLPC  C21720195   5.495   3.053   9.327  0.4009  0.3983  0.0360
  177SLPC  H17R20196   5.595   3.091   9.297  0.0610  1.3861  0.1022
  177SLPC  H17S20197   5.432   3.142   9.301 -0.7651  0.2772  2.1952
  177SLPC  C21820198   5.446   2.927   9.245  0.4374 -0.3140  0.9588
  177SLPC  H18R20199   5.335   2.931   9.248  0.2758 -2.3570 -0.1977
  177SLPC  H18S20200   5.492   2.836   9.289  1.4148  0.4479  1.5405
  177SLPC  H18T20201   5.476   2.932   9.138 -0.4177 -0.3857  0.7023
  177SLPC   C3320202   4.806   3.090  10.706  0.4706 -0.1989  0.1715
  177SLPC   H3X20203   4.853   2.995  10.742 -3.4076 -2.7753 -0.9228
  177SLPC   H3Y20204   4.845   3.175  10.766  0.2389 -0.3747  0.5728
  177SLPC   C3420205   4.828   3.116  10.557 -0.5165 -0.0015 -0.6933
  177SLPC   H4X20206   4.786   3.025  10.509 -2.3713 -0.0696  0.9597
  177SLPC   H4Y20207   4.937   3.134  10.553 -0.4664 -0.5109 -2.3146
  177SLPC   C3520208   4.771   3.250  10.501 -0.4699  0.7546 -0.0585
  177SLPC   H5X20209   4.829   3.339  10.536 -0.4059  1.5938 -2.1830
  177SLPC   H5Y20210   4.668   3.273  10.537 -1.2687 -1.4446 -0.8065
  177SLPC   C3620211   4.777   3.257  10.348  0.2989  0.5444 -0.3725
  177SLPC   H6X20212   4.719   3.175  10.302  0.0498  1.0635 -0.9934
  177SLPC   H6Y20213   4.882   3.241  10.313  0.8554 -1.1461  1.8207
  177SLPC   C3720214   4.728   3.390  10.294 -0.2389 -0.0570  0.4908
  177SLPC   H7X20215   4.794   3.476  10.318  0.7891  0.1979 -2.7660
  177SLPC   H7Y20216   4.625   3.414  10.326 -0.0350  0.8731  0.4610
  177SLPC   C3820217   4.726   3.386  10.142 -0.6115  0.1146  0.2996
  177SLPC   H8X20218   4.676   3.298  10.098 -0.8477  0.5555 -0.3208
  177SLPC   H8Y20219   4.833   3.378  10.111 -0.6148 -1.4421  0.6400
  177SLPC   C3920220   4.671   3.518  10.082  0.1039 -0.3119 -0.2105
  177SLPC   H9X20221   4.728   3.601  10.129 -0.8294 -0.0792  0.5422
  177SLPC   H9Y20222   4.563   3.531  10.103 -0.5490  0.1585 -3.2993
  177SLPC  C31020223   4.696   3.536   9.928  0.3015  0.2881  0.2179
  177SLPC  H10X20224   4.639   3.459   9.873 -1.2029  3.0888 -2.4082
  177SLPC  H10Y20225   4.802   3.538   9.894 -0.2842  0.1696 -1.7173
  177SLPC  C31120226   4.630   3.664   9.878 -0.0829 -0.3984  0.3856
  177SLPC  H11X20227   4.705   3.746   9.887  0.5584 -0.6582 -1.8745
  177SLPC  H11Y20228   4.539   3.687   9.937 -0.2221  1.1702 -0.3604
  177SLPC  C31220229   4.605   3.653   9.731  0.0996  0.1262  0.1752
  177SLPC  H12X20230   4.525   3.577   9.718  1.2208 -0.8950 -0.9697
  177SLPC  H12Y20231   4.695   3.613   9.679  0.2942  0.5296  0.1990
  177SLPC  C31320232   4.552   3.780   9.657  0.6849  0.0654 -0.8700
  177SLPC  H13X20233   4.628   3.860   9.661  0.7271  0.0152 -0.6658
  177SLPC  H13Y20234   4.454   3.810   9.701  0.3434 -0.5696 -1.1872
  177SLPC  C31420235   4.533   3.751   9.504 -0.2402 -0.3012 -0.1058
  177SLPC  H14X20236   4.449   3.682   9.482 -2.6472  2.4813 -0.2325
  177SLPC  H14Y20237   4.629   3.712   9.464  1.1996  3.6105 -0.8707
  177SLPC  C31520238   4.492   3.880   9.435  0.3853 -0.5402  0.6674
  177SLPC  H15X20239   4.572   3.956   9.442 -0.8714  0.8733  0.1919
  177SLPC  H15Y20240   4.407   3.919   9.494 -0.6901 -0.8339 -0.6391
  177SLPC  C31620241   4.448   3.859   9.295  0.5067 -0.2973 -0.0513
  177SLPC  H16X20242   4.418   3.962   9.267  0.1054 -0.3119  0.3195
  177SLPC  H16Y20243   4.355   3.802   9.277  0.0489  0.8188 -1.3523
  177SLPC  C31720244   4.568   3.820   9.213  0.9694  0.4354  0.0258
  177SLPC  H17X20245   4.605   3.717   9.235 -0.1600  0.0477  0.2163
  177SLPC  H17Y20246   4.639   3.899   9.243  0.0165  1.0843  0.6310
  177SLPC  C31820247   4.539   3.833   9.064 -0.5111  0.2178 -0.1749
  177SLPC  H18X20248   4.467   3.752   9.039 -0.7469  1.0697 -2.4701
  177SLPC  H18Y20249   4.625   3.809   8.999 -0.9097  1.2319 -1.0963
  177SLPC  H18Z20250   4.502   3.935   9.041  1.1968  1.1950  1.1799
  178SLPC     N20251   6.059   3.565  11.170  0.4429 -0.5998 -0.4829
  178SLPC   C1320252   6.150   3.578  11.284  0.8132  0.7295 -0.7078
  178SLPC  H13A20253   6.223   3.498  11.282 -0.8716 -0.9160  0.1406
  178SLPC  H13B20254   6.197   3.675  11.281  0.2498  1.0613  0.5520
  178SLPC  H13C20255   6.099   3.563  11.378  3.0795 -2.1088  0.2291
  178SLPC   C1420256   6.130   3.552  11.039  0.0647 -0.1690  0.4598
  178SLPC  H14A20257   6.060   3.545  10.957  2.9768 -2.8736 -2.1227
  178SLPC  H14B20258   6.197   3.634  11.017  1.8338 -1.9046 -1.0839
  178SLPC  H14C20259   6.180   3.456  11.032  2.5430  1.1191 -0.6550
  178SLPC   C1520260   5.981   3.693  11.159 -0.2464 -0.2896 -0.3833
  178SLPC  H15A20261   5.910   3.707  11.239  1.5146  1.8005  0.8971
  178SLPC  H15B20262   6.052   3.773  11.159 -0.3758 -0.1200  1.5926
  178SLPC  H15C20263   5.927   3.698  11.065  1.3233  0.1676 -1.2964
  178SLPC   C1220264   5.960   3.457  11.192  0.5942 -0.5531  0.7348
  178SLPC  H12A20265   5.909   3.480  11.284  0.7793  1.1546  0.4383
  178SLPC  H12B20266   6.011   3.364  11.211  0.0125 -1.1442 -0.4357
  178SLPC   C1120267   5.845   3.444  11.089  0.7691 -0.0072 -0.0099
  178SLPC  H11A20268   5.878   3.473  10.987  0.1736  1.3776  0.1770
  178SLPC  H11B20269   5.761   3.511  11.117 -0.0669 -1.4071  0.9407
  178SLPC     P20270   5.885   3.198  11.046 -0.2721  0.1057 -0.2923
  178SLPC   O1320271   5.978   3.176  11.158  0.2171 -0.6482 -0.1732
  178SLPC   O1420272   5.794   3.089  10.998  0.0755  0.3390 -0.0433
  178SLPC   O1220273   5.787   3.310  11.092  0.1001  0.2152 -0.2243
  178SLPC   O1120274   5.973   3.255  10.924  0.2162  0.3137 -0.0379
  178SLPC    C120275   5.902   3.279  10.801 -0.1280  0.0810  0.3502
  178SLPC    HA20276   5.895   3.185  10.741 -0.7893 -1.3385  2.5506
  178SLPC    HB20277   5.798   3.314  10.813 -0.1261 -0.4398  2.1014
  178SLPC    C220278   5.989   3.377  10.715  0.3762 -0.2123  0.6669
  178SLPC    HS20279   6.004   3.464  10.782 -0.5348  1.1044 -0.7785
  178SLPC   O2120280   5.919   3.424  10.602 -0.5886  0.9098 -0.1349
  178SLPC   C2120281   5.972   3.516  10.527  0.3130  0.0529  0.4847
  178SLPC   O2220282   6.052   3.599  10.561 -0.2579 -0.3381 -0.7928
  178SLPC   C2220283   5.921   3.506  10.386 -0.2478 -0.2197 -0.7657
  178SLPC   H2R20284   5.907   3.399  10.361 -2.3078 -1.3208  4.0637
  178SLPC   H2S20285   5.823   3.558  10.387 -1.1376 -1.8114  1.7845
  178SLPC    C320286   6.124   3.309  10.675 -0.7967 -0.1661 -0.3868
  178SLPC    HX20287   6.179   3.285  10.768 -1.6367 -1.6527 -0.2315
  178SLPC    HY20288   6.184   3.389  10.628 -0.4832  0.7219  1.4542
  178SLPC   O3120289   6.106   3.189  10.595  0.4316  0.0339  0.4566
  178SLPC   C3120290   6.215   3.116  10.583  0.0156 -0.6512 -0.4870
  178SLPC   O3220291   6.320   3.149  10.637  0.0551 -0.3931 -0.3541
  178SLPC   C3220292   6.204   3.001  10.492 -0.3782  0.3280 -0.3567
  178SLPC   H2X20293   6.160   3.041  10.399  1.4551  0.9173 -1.0152
  178SLPC   H2Y20294   6.133   2.927  10.535  0.6818 -0.2412  0.4617
  178SLPC   C2320295   6.009   3.579  10.281 -0.4815  0.2249 -0.3637
  178SLPC   H3R20296   6.106   3.527  10.266 -0.2124  1.2732 -2.7431
  178SLPC   H3S20297   6.022   3.688  10.297 -0.9491  0.4109 -1.1662
  178SLPC   C2420298   5.948   3.572  10.140  0.5844 -0.3501  0.2602
  178SLPC   H4R20299   5.855   3.631  10.147  0.1562 -0.9093 -0.5544
  178SLPC   H4S20300   5.923   3.468  10.111  0.4733 -0.3533  0.3650
  178SLPC   C2520301   6.044   3.629  10.033 -0.2610 -0.8568 -0.4140
  178SLPC   H5R20302   5.991   3.612   9.936 -0.0105 -1.4065 -0.4607
  178SLPC   H5S20303   6.142   3.576  10.027  0.9418  0.9859  1.6346
  178SLPC   C2620304   6.082   3.779  10.045 -0.4324 -0.1434  0.2642
  178SLPC   H6R20305   6.191   3.776  10.066  0.4144  0.0488 -3.3868
  178SLPC   H6S20306   6.012   3.833  10.112  0.9716  2.2714 -0.1317
  178SLPC   C2720307   6.076   3.853   9.910 -0.4068 -0.1927  0.6592
  178SLPC   H7R20308   6.141   3.804   9.834 -0.2542  1.0708 -0.0529
  178SLPC   H7S20309   6.130   3.947   9.935  0.4107 -0.5123  0.1172
  178SLPC   C2820310   5.929   3.874   9.860 -0.4163  0.0255 -0.0193
  178SLPC   H8R20311   5.864   3.891   9.949 -0.4072  0.9240 -0.1821
  178SLPC   H8S20312   5.893   3.774   9.828 -0.8731  0.8802 -2.3538
  178SLPC   C2920313   5.921   3.991   9.764  0.5392  0.1385 -0.0075
  178SLPC   H9R20314   5.874   4.084   9.799 -0.2238 -0.0827 -0.3983
  178SLPC  C21020315   5.945   3.982   9.632 -0.5993  0.2627  0.0055
  178SLPC  H10R20316   5.926   4.071   9.570  2.1888  0.7306 -0.3194
  178SLPC  C21120317   5.998   3.858   9.559  0.1752  0.3529  0.5159
  178SLPC  H11R20318   5.956   3.847   9.457 -0.3662  1.2413  0.6300
  178SLPC  H11S20319   5.971   3.767   9.616  0.0182  0.1316  0.0909
  178SLPC  C21220320   6.148   3.871   9.545 -0.0776 -0.3451  0.1582
  178SLPC  H12R20321   6.195   3.932   9.623 -4.3288  2.0931  1.1489
  178SLPC  C21320322   6.216   3.828   9.441 -0.0433  0.4966 -0.2434
  178SLPC  H13R20323   6.323   3.853   9.439  0.1610 -0.3192 -2.5874
  178SLPC  C21420324   6.163   3.755   9.322  0.6595 -0.0884  0.1224
  178SLPC  H14R20325   6.065   3.708   9.341 -0.1495  1.6957  0.6187
  178SLPC  H14S20326   6.227   3.668   9.297  2.5680  1.5571 -1.0833
  178SLPC  C21520327   6.156   3.842   9.189  0.6415  0.1879 -0.0323
  178SLPC  H15R20328   6.113   3.942   9.208  0.3832  0.6210 -2.5132
  178SLPC  H15S20329   6.086   3.785   9.124 -1.0931  3.0241 -0.8249
  178SLPC  C21620330   6.296   3.867   9.123  0.5563 -0.3129 -0.3364
  178SLPC  H16R20331   6.338   3.774   9.079 -0.3153 -1.2926  0.8292
  178SLPC  H16S20332   6.361   3.909   9.202  1.9669 -1.4719 -0.8340
  178SLPC  C21720333   6.284   3.966   9.009  0.1907 -0.4152  0.2343
  178SLPC  H17R20334   6.372   3.973   8.941 -0.3559 -2.1096 -0.7281
  178SLPC  H17S20335   6.278   4.067   9.053 -1.1185  0.7821 -2.4442
  178SLPC  C21820336   6.159   3.961   8.920  0.0936 -0.3459  0.2329
  178SLPC  H18R20337   6.146   3.866   8.865 -0.4770 -2.0985  3.2060
  178SLPC  H18S20338   6.174   4.031   8.835  2.8016  1.3695  1.9354
  178SLPC  H18T20339   6.067   3.988   8.976 -0.4370  1.3083 -1.3398
  178SLPC   C3320340   6.339   2.941  10.449 -0.2847 -0.5295  0.2277
  178SLPC   H3X20341   6.323   2.847  10.393 -1.4862 -0.0146 -0.3302
  178SLPC   H3Y20342   6.404   2.918  10.537  1.7427 -2.8605 -1.7235
  178SLPC   C3420343   6.420   3.038  10.357  0.0038  0.0930 -0.0938
  178SLPC   H4X20344   6.509   2.981  10.324  0.1603  0.8067 -0.9223
  178SLPC   H4Y20345   6.455   3.114  10.429 -2.4602  0.0592  1.2509
  178SLPC   C3520346   6.350   3.084  10.224 -0.5114 -0.1182 -0.1899
  178SLPC   H5X20347   6.246   3.046  10.219 -0.4840 -0.5298  1.6024
  178SLPC   H5Y20348   6.412   3.038  10.144  1.1904  3.4175 -1.0762
  178SLPC   C3620349   6.359   3.237  10.197 -0.7945  0.6021  0.6120
  178SLPC   H6X20350   6.322   3.275  10.295  0.7668 -1.0501  1.9188
  178SLPC   H6Y20351   6.283   3.272  10.124  0.1086 -0.8095 -1.0879
  178SLPC   C3720352   6.503   3.285  10.178  0.6259 -0.3030 -0.4926
  178SLPC   H7X20353   6.535   3.275  10.072  0.3214  1.8500 -0.8481
  178SLPC   H7Y20354   6.569   3.228  10.246  1.6589  0.4116 -0.8627
  178SLPC   C3820355   6.519   3.437  10.202  0.1884 -0.2608  0.3473
  178SLPC   H8X20356   6.621   3.476  10.225 -0.5135  1.9507  0.0014
  178SLPC   H8Y20357   6.463   3.455  10.297 -1.7077  2.3009 -1.1361
  178SLPC   C3920358   6.458   3.513  10.083  0.5858 -0.0126  0.1596
  178SLPC   H9X20359   6.447   3.614  10.128  2.0990  0.7337 -1.0370
  178SLPC   H9Y20360   6.362   3.463  10.059  2.1176 -2.2123 -1.9400
  178SLPC  C31020361   6.544   3.535   9.953 -0.0713 -0.8724 -0.0964
  178SLPC  H10X20362   6.560   3.429   9.921  0.0755 -1.3361  1.4550
  178SLPC  H10Y20363   6.644   3.569   9.988 -0.5970 -1.8015  2.5326
  178SLPC  C31120364   6.469   3.623   9.851  0.5905 -0.4856  0.0271
  178SLPC  H11X20365   6.455   3.726   9.889 -0.3211 -0.3152 -0.7364
  178SLPC  H11Y20366   6.363   3.590   9.847  0.0851  1.2214 -2.3926
  178SLPC  C31220367   6.540   3.655   9.718 -0.2407  0.6228 -0.3182
  178SLPC  H12X20368   6.501   3.586   9.640  2.0344 -1.0853 -0.0340
  178SLPC  H12Y20369   6.645   3.619   9.721 -0.6942 -1.3990 -3.6763
  178SLPC  C31320370   6.530   3.802   9.676 -0.5063 -0.2747  0.7749
  178SLPC  H13X20371   6.573   3.857   9.763 -0.2413 -1.3735  1.3495
  178SLPC  H13Y20372   6.425   3.836   9.669 -0.7006 -0.9057  0.5713
  178SLPC  C31420373   6.608   3.846   9.541 -0.5363  0.1620 -0.4465
  178SLPC  H14X20374   6.541   3.821   9.457 -0.0054  1.2701 -1.2318
  178SLPC  H14Y20375   6.705   3.795   9.522 -0.5001 -0.4251  1.1118
  178SLPC  C31520376   6.614   4.000   9.545 -0.5656  0.3814  0.2717
  178SLPC  H15X20377   6.519   4.040   9.585 -1.8739 -0.8654 -1.4207
  178SLPC  H15Y20378   6.696   4.037   9.610 -0.7866 -1.2008  1.5016
  178SLPC  C31620379   6.618   4.052   9.400 -0.5178  0.1696 -0.3270
  178SLPC  H16X20380   6.526   4.006   9.356 -0.0540 -1.6579  0.5468
  178SLPC  H16Y20381   6.703   4.009   9.343 -0.6901  0.3258 -0.7119
  178SLPC  C31720382   6.624   4.200   9.392  0.5682 -0.6045  0.1739
  178SLPC  H17X20383   6.729   4.230   9.412 -0.4416  4.5979 -0.8239
  178SLPC  H17Y20384   6.560   4.245   9.471  0.1217 -0.5977 -0.1869
  178SLPC  C31820385   6.585   4.254   9.255 -0.1044 -0.4022 -0.4387
  178SLPC  H18X20386   6.484   4.217   9.230 -0.4031  0.5448 -0.6634
  178SLPC  H18Y20387   6.649   4.211   9.175 -0.4482  0.9477 -1.4632
  178SLPC  H18Z20388   6.596   4.364   9.243  2.3012 -0.3369  1.3738
  179SLPC     N20389   0.678   6.416  10.897  0.1833 -0.3026 -0.7713
  179SLPC   C1320390   0.610   6.282  10.902  0.2402 -0.2211  0.2807
  179SLPC  H13A20391   0.592   6.261  11.006 -0.1350  0.4895  0.3636
  179SLPC  H13B20392   0.512   6.284  10.856  0.2706  1.7277  0.2420
  179SLPC  H13C20393   0.667   6.201  10.858  0.6515 -0.1107  0.6048
  179SLPC   C1420394   0.813   6.389  10.953 -0.1923  0.7016  0.2403
  179SLPC  H14A20395   0.813   6.331  11.045  0.7943  0.9455  0.4064
  179SLPC  H14B20396   0.864   6.312  10.897 -3.9149 -1.4819 -0.4470
  179SLPC  H14C20397   0.863   6.485  10.956 -0.1630  0.6659  2.0209
  179SLPC   C1520398   0.604   6.512  10.986 -1.1575  0.5266 -0.3420
  179SLPC  H15A20399   0.620   6.475  11.087  0.5739 -0.3676 -0.9116
  179SLPC  H15B20400   0.650   6.609  10.985 -1.7475  0.8513  1.1778
  179SLPC  H15C20401   0.498   6.521  10.965 -1.6793 -0.1908  1.7220
  179SLPC   C1220402   0.688   6.476  10.750 -0.4973  0.1878  0.0351
  179SLPC  H12A20403   0.725   6.578  10.747  0.1969  0.2091  4.0052
  179SLPC  H12B20404   0.585   6.483  10.718 -0.5445 -0.6053 -0.0104
  179SLPC   C1120405   0.777   6.395  10.649 -0.7572 -0.0606 -0.0433
  179SLPC  H11A20406   0.765   6.285  10.658 -0.4020 -0.3083 -2.0550
  179SLPC  H11B20407   0.879   6.416  10.688 -0.6694 -3.6742  2.1187
  179SLPC     P20408   0.768   6.577  10.442 -0.0654  0.3242  0.2161
  179SLPC   O1320409   0.754   6.682  10.543 -0.2189  0.1097  0.1126
  179SLPC   O1420410   0.890   6.584  10.361  0.2006 -0.0812  0.0125
  179SLPC   O1220411   0.760   6.434  10.509 -0.5294  0.3545 -0.5738
  179SLPC   O1120412   0.638   6.583  10.352  0.5114 -0.1588 -0.8256
  179SLPC    C120413   0.558   6.467  10.318 -0.3451 -0.2557  0.2618
  179SLPC    HA20414   0.621   6.376  10.309  0.5924  0.5130 -1.3122
  179SLPC    HB20415   0.490   6.435  10.400 -2.9487  0.2513 -1.5974
  179SLPC    C220416   0.468   6.487  10.196 -0.7500 -0.3777 -0.0433
  179SLPC    HS20417   0.413   6.391  10.181 -1.0957 -0.1730 -0.0985
  179SLPC   O2120418   0.541   6.533  10.079  0.4356 -0.7890  0.0709
  179SLPC   C2120419   0.645   6.456  10.046 -0.0478 -1.1308 -0.0264
  179SLPC   O2220420   0.673   6.348  10.091 -0.7457  0.0087  0.2112
  179SLPC   C2220421   0.729   6.543   9.961  0.3484  0.1917 -0.3790
  179SLPC   H2R20422   0.746   6.643  10.006 -3.1304 -0.4748  2.8990
  179SLPC   H2S20423   0.833   6.502   9.956  0.0448 -0.5359 -0.8794
  179SLPC    C320424   0.353   6.589  10.230  0.2598  0.3073 -0.3360
  179SLPC    HX20425   0.418   6.679  10.239 -0.4214  0.5890  2.4738
  179SLPC    HY20426   0.313   6.552  10.327  0.8380 -1.9506 -0.8801
  179SLPC   O3120427   0.262   6.597  10.115  0.2851 -0.0678  0.4258
  179SLPC   C3120428   0.237   6.714  10.066  0.1456  0.6203 -0.0286
  179SLPC   O3220429   0.287   6.817  10.099 -0.9338 -0.6620  0.2635
  179SLPC   C3220430   0.149   6.702   9.944 -0.4235  0.2924 -0.3734
  179SLPC   H2X20431   0.064   6.768   9.972  0.4765  2.0499 -1.6737
  179SLPC   H2Y20432   0.114   6.596   9.942  2.0199 -0.6046  0.4671
  179SLPC   C2320433   0.665   6.552   9.822 -0.1267  0.0726  0.2193
  179SLPC   H3R20434   0.561   6.591   9.826  0.2658  1.0666  1.1810
  179SLPC   H3S20435   0.672   6.454   9.771  1.7280  0.3169 -0.0775
  179SLPC   C2420436   0.740   6.642   9.728 -0.9080  0.1846  0.1111
  179SLPC   H4R20437   0.849   6.626   9.714 -0.6130 -0.3687  2.5875
  179SLPC   H4S20438   0.730   6.746   9.767 -0.6127 -0.2873  1.5058
  179SLPC   C2520439   0.662   6.645   9.588 -0.2039  0.3185 -0.1157
  179SLPC   H5R20440   0.574   6.710   9.606  0.0610 -0.2163  4.3477
  179SLPC   H5S20441   0.618   6.548   9.554  1.1783 -0.9995  1.6501
  179SLPC   C2620442   0.746   6.699   9.469  0.0054 -0.8692 -0.1470
  179SLPC   H6R20443   0.795   6.794   9.498  0.6724 -1.0845 -0.5304
  179SLPC   H6S20444   0.683   6.708   9.378 -0.9219  1.7207  0.6647
  179SLPC   C2720445   0.850   6.596   9.421  0.6558 -0.4400  0.2097
  179SLPC   H7R20446   0.803   6.498   9.401 -2.3398  1.0416 -0.5482
  179SLPC   H7S20447   0.940   6.576   9.484  1.9548  1.3669 -0.9551
  179SLPC   C2820448   0.899   6.644   9.283  0.1306  0.0824 -0.4278
  179SLPC   H8R20449   0.943   6.746   9.284 -0.2157  0.2334  0.3261
  179SLPC   H8S20450   0.804   6.653   9.226  0.5863  0.8803 -1.0865
  179SLPC   C2920451   0.994   6.545   9.226 -0.4647 -0.2619 -0.2130
  179SLPC   H9R20452   1.098   6.561   9.255  0.5321 -1.8421 -2.6099
  179SLPC  C21020453   0.973   6.474   9.112 -0.0705  0.1421  0.5409
  179SLPC  H10R20454   1.053   6.404   9.082 -2.2699 -1.7184 -1.3792
  179SLPC  C21120455   0.852   6.455   9.029  0.1502 -0.1986 -0.1708
  179SLPC  H11R20456   0.793   6.549   9.036  1.1893  0.3983  1.2536
  179SLPC  H11S20457   0.789   6.379   9.078  1.0369 -0.8082  0.0472
  179SLPC  C21220458   0.867   6.407   8.888 -0.4958  0.2123  0.4898
  179SLPC  H12R20459   0.901   6.481   8.814  0.0013 -2.1568 -1.8242
  179SLPC  C21320460   0.838   6.285   8.837 -0.4993 -0.5792 -0.2274
  179SLPC  H13R20461   0.859   6.258   8.733 -0.1026  0.5514 -0.4639
  179SLPC  C21420462   0.804   6.171   8.922  0.1079 -0.2915  0.1813
  179SLPC  H14R20463   0.839   6.176   9.028 -2.1420 -2.0412  1.0853
  179SLPC  H14S20464   0.867   6.086   8.888  0.5041 -0.0934  0.4080
  179SLPC  C21520465   0.659   6.129   8.925  0.8618  0.0828 -0.1517
  179SLPC  H15R20466   0.621   6.109   8.823  2.7670 -0.2119 -0.8396
  179SLPC  H15S20467   0.588   6.205   8.965 -1.5014  0.2953 -4.2224
  179SLPC  C21620468   0.640   6.009   9.023 -0.2552  0.2442  0.0230
  179SLPC  H16R20469   0.666   6.045   9.125 -1.7014  0.4159  0.3609
  179SLPC  H16S20470   0.704   5.923   8.996 -0.0625 -0.0961  1.4558
  179SLPC  C21720471   0.499   5.965   9.012 -0.6453 -0.0891  0.3986
  179SLPC  H17R20472   0.499   5.902   8.921 -1.3416  0.5520 -0.0594
  179SLPC  H17S20473   0.432   6.054   9.014  1.8617  1.9097  1.0548
  179SLPC  C21820474   0.475   5.880   9.131  0.0490  0.4728 -0.1794
  179SLPC  H18R20475   0.438   5.940   9.217  0.5010 -0.1807  0.4792
  179SLPC  H18S20476   0.573   5.832   9.150  1.2070  1.5818 -2.8441
  179SLPC  H18T20477   0.390   5.813   9.106  0.6520 -0.4278  0.1434
  179SLPC   C3320478   0.226   6.750   9.819 -0.0845 -0.1560  0.1751
  179SLPC   H3X20479   0.293   6.670   9.782  2.4930  2.6266 -1.6908
  179SLPC   H3Y20480   0.292   6.839   9.829  0.7749 -0.7060 -0.4274
  179SLPC   C3420481   0.120   6.796   9.714 -0.0073  0.1082  0.4000
  179SLPC   H4X20482   0.073   6.886   9.760 -0.5063  0.0098  0.0936
  179SLPC   H4Y20483   0.041   6.719   9.699  2.0370 -1.9511 -0.2219
  179SLPC   C3520484   0.195   6.814   9.586  0.6064 -0.1367 -0.0563
  179SLPC   H5X20485   0.275   6.737   9.578  1.1459 -0.1194  3.3754
  179SLPC   H5Y20486   0.259   6.904   9.598  1.6601 -1.0414  1.5010
  179SLPC   C3620487   0.106   6.830   9.450 -0.1073 -0.2903 -0.5095
  179SLPC   H6X20488   0.156   6.902   9.382 -1.8724  1.7640  0.2562
  179SLPC   H6Y20489   0.011   6.884   9.467 -0.4456 -0.6057 -1.3117
  179SLPC   C3720490   0.064   6.700   9.391  0.1264 -0.2976 -0.1839
  179SLPC   H7X20491   0.005   6.652   9.472  1.6136 -0.6489  0.7293
  179SLPC   H7Y20492   0.156   6.643   9.364  0.1484  0.0058 -0.7653
  179SLPC   C3820493  -0.016   6.724   9.262  0.0753  0.1778  0.4901
  179SLPC   H8X20494   0.056   6.754   9.183  0.0686  0.2387  0.5072
  179SLPC   H8Y20495  -0.075   6.817   9.276  0.6701  0.4009  1.6712
  179SLPC   C3920496  -0.104   6.601   9.222 -0.5487  0.2654 -0.6707
  179SLPC   H9X20497  -0.206   6.614   9.264 -0.2232 -0.3303  0.3247
  179SLPC   H9Y20498  -0.058   6.509   9.264 -1.6757  0.3896  0.9231
  179SLPC  C31020499  -0.114   6.585   9.071  0.3103  0.4603  0.0273
  179SLPC  H10X20500  -0.012   6.582   9.026 -0.1139 -2.6620 -1.0124
  179SLPC  H10Y20501  -0.172   6.668   9.027 -1.8907 -0.8432  0.3077
  179SLPC  C31120502  -0.179   6.436   9.031  0.1026 -0.9568  0.1858
  179SLPC  H11X20503  -0.236   6.451   8.937  0.7425  2.0749  0.1742
  179SLPC  H11Y20504  -0.248   6.411   9.115  0.5905  0.8600  1.1796
  179SLPC  C31220505  -0.074   6.325   9.012  0.9453 -0.1507 -0.0208
  179SLPC  H12X20506   0.007   6.329   9.088  1.2325 -0.9080 -0.2767
  179SLPC  H12Y20507  -0.026   6.340   8.912 -0.4047  2.7581 -0.3461
  179SLPC  C31320508  -0.138   6.186   9.028 -0.2960  0.2711 -0.3936
  179SLPC  H13X20509  -0.221   6.190   8.955 -0.3057 -1.2666 -0.5109
  179SLPC  H13Y20510  -0.177   6.190   9.132 -0.6158  2.0795 -0.5546
  179SLPC  C31420511  -0.037   6.070   9.008  0.0779 -0.3243  0.1397
  179SLPC  H14X20512  -0.093   5.981   9.045  2.6121 -1.1000  2.3488
  179SLPC  H14Y20513   0.058   6.075   9.064 -0.2500  0.7690  0.6148
  179SLPC  C31520514   0.008   6.053   8.861  0.1636  0.2431 -0.0938
  179SLPC  H15X20515   0.048   6.153   8.835 -1.7420  0.9324 -0.4932
  179SLPC  H15Y20516  -0.086   6.031   8.806  0.3574 -1.4528  0.2080
  179SLPC  C31620517   0.108   5.938   8.833  0.0011 -0.5040 -0.1446
  179SLPC  H16X20518   0.048   5.846   8.843  0.7719 -1.1641 -1.3957
  179SLPC  H16Y20519   0.185   5.946   8.913  0.6785 -3.1740 -0.4410
  179SLPC  C31720520   0.166   5.957   8.691 -0.3750 -0.2186 -0.1136
  179SLPC  H17X20521   0.240   6.040   8.690 -0.0766 -0.4202 -2.8832
  179SLPC  H17Y20522   0.097   5.981   8.608 -0.6295 -0.1163  0.1285
  179SLPC  C31820523   0.238   5.833   8.655 -0.9986  1.4555 -0.1536
  179SLPC  H18X20524   0.327   5.815   8.720 -2.5860  0.2062  1.8122
  179SLPC  H18Y20525   0.261   5.841   8.547  1.2848  0.3539  0.1914
  179SLPC  H18Z20526   0.177   5.741   8.670  1.6881 -0.4881 -0.4391
  180SLPC     N20527   1.833   3.407  10.988 -0.2736 -0.1890  0.3420
  180SLPC   C1320528   1.849   3.292  11.082 -0.1110  0.4116 -0.6210
  180SLPC  H13A20529   1.767   3.300  11.151 -2.6391 -1.3892 -3.1532
  180SLPC  H13B20530   1.838   3.197  11.032 -3.6722  0.4128 -0.0776
  180SLPC  H13C20531   1.936   3.290  11.147 -2.0746 -0.4102  2.1458
  180SLPC   C1420532   1.824   3.532  11.058  0.5601 -0.3601  0.5251
  180SLPC  H14A20533   1.909   3.537  11.124 -1.2294 -0.5230  2.9422
  180SLPC  H14B20534   1.831   3.617  10.991 -2.5760  0.2850  0.8711
  180SLPC  H14C20535   1.732   3.544  11.112  0.7638  1.8586  0.5055
  180SLPC   C1520536   1.718   3.393  10.900  0.2433 -0.0181 -0.4994
  180SLPC  H15A20537   1.730   3.444  10.805 -1.0634  0.1148 -0.6074
  180SLPC  H15B20538   1.704   3.287  10.882 -0.7257  0.3374 -1.9945
  180SLPC  H15C20539   1.633   3.435  10.952  1.1274  2.5321 -0.9686
  180SLPC   C1220540   1.966   3.406  10.909 -0.1935 -0.0390 -0.1800
  180SLPC  H12A20541   1.994   3.305  10.882  0.1219  0.7151 -2.9747
  180SLPC  H12B20542   2.047   3.434  10.974 -1.6829 -0.6430  2.0780
  180SLPC   C1120543   1.961   3.486  10.781  0.6174  0.4542  0.4630
  180SLPC  H11A20544   1.880   3.449  10.715 -0.7487 -0.6096  2.6243
  180SLPC  H11B20545   2.059   3.470  10.732  0.8424 -1.2748  1.4101
  180SLPC     P20546   2.063   3.722  10.843  0.1907  0.0005  0.0217
  180SLPC   O1320547   2.019   3.856  10.872 -0.0259  0.0551 -0.0801
  180SLPC   O1420548   2.150   3.656  10.947  0.4384 -0.1361  0.2936
  180SLPC   O1220549   1.937   3.627  10.815 -0.5090  0.0468 -0.2242
  180SLPC   O1120550   2.147   3.737  10.703 -0.4194 -0.1630  0.2311
  180SLPC    C120551   2.091   3.714  10.577 -0.1278  0.1734 -1.1617
  180SLPC    HA20552   2.049   3.612  10.562  1.3910 -1.1872  2.6258
  180SLPC    HB20553   2.016   3.791  10.551  0.2430  2.3266  3.2027
  180SLPC    C220554   2.208   3.737  10.481 -0.0759 -0.3823  0.4262
  180SLPC    HS20555   2.260   3.831  10.509 -0.2597  0.0188 -0.5331
  180SLPC   O2120556   2.154   3.737  10.348  0.2471  0.3135  0.7049
  180SLPC   C2120557   2.132   3.856  10.294 -0.3126  0.0716  0.1320
  180SLPC   O2220558   2.158   3.966  10.341 -0.3104 -0.3025  0.5889
  180SLPC   C2220559   2.077   3.839  10.150  0.9653  0.2845  0.2593
  180SLPC   H2R20560   2.057   3.733  10.123  0.9226  0.7935 -1.9093
  180SLPC   H2S20561   1.975   3.882  10.159  0.1315 -1.9215  2.0313
  180SLPC    C320562   2.301   3.622  10.494 -0.6618 -0.9961  0.6844
  180SLPC    HX20563   2.262   3.526  10.452 -1.5898 -0.5933  0.5884
  180SLPC    HY20564   2.321   3.599  10.601 -2.4486  0.8487  1.4875
  180SLPC   O3120565   2.430   3.649  10.436  0.1304  0.5581  0.2873
  180SLPC   C3120566   2.510   3.736  10.506 -0.2313 -0.0579  0.2371
  180SLPC   O3220567   2.479   3.792  10.610 -0.2734 -0.1840  0.1651
  180SLPC   C3220568   2.639   3.739  10.427  0.1815 -0.0801  0.3576
  180SLPC   H2X20569   2.626   3.678  10.335  2.7451  2.6339 -2.0271
  180SLPC   H2Y20570   2.718   3.684  10.483  1.3949  0.5817 -0.6323
  180SLPC   C2320571   2.161   3.903  10.038 -0.4855  0.0003  0.3891
  180SLPC   H3R20572   2.261   3.854  10.044 -0.3171  0.4967  1.9806
  180SLPC   H3S20573   2.177   4.012  10.054  2.5737 -0.4726  1.3027
  180SLPC   C2420574   2.099   3.876   9.901  0.0028 -0.0214 -0.4528
  180SLPC   H4R20575   2.002   3.930   9.897  1.6987  3.2469 -0.5555
  180SLPC   H4S20576   2.073   3.770   9.882 -0.0027  0.2069 -1.8615
  180SLPC   C2520577   2.171   3.920   9.770  0.9806  0.3508  0.5077
  180SLPC   H5R20578   2.267   3.863   9.771  0.5711 -0.3806  1.9493
  180SLPC   H5S20579   2.198   4.028   9.771 -4.0825  1.9749 -2.6216
  180SLPC   C2620580   2.087   3.880   9.638 -0.7626  0.2622 -1.1500
  180SLPC   H6R20581   1.983   3.919   9.650  0.0583  2.0364  0.6744
  180SLPC   H6S20582   2.084   3.769   9.634 -0.1617  0.2359 -0.9297
  180SLPC   C2720583   2.156   3.941   9.521  0.4404 -0.2915 -0.1202
  180SLPC   H7R20584   2.258   3.904   9.496  1.0585  1.5267 -0.4417
  180SLPC   H7S20585   2.167   4.048   9.548 -0.7557  0.3700 -2.0675
  180SLPC   C2820586   2.071   3.953   9.391 -0.0463  0.7041  0.4262
  180SLPC   H8R20587   1.964   3.963   9.422  0.4712  1.1211  2.1489
  180SLPC   H8S20588   2.072   3.856   9.336  1.0270  1.9898 -1.9876
  180SLPC   C2920589   2.090   4.069   9.304 -0.1137  0.0276  0.6959
  180SLPC   H9R20590   2.050   4.157   9.357 -0.7325  0.6085 -0.6632
  180SLPC  C21020591   2.166   4.078   9.187 -0.2678 -0.0960 -0.2658
  180SLPC  H10R20592   2.174   4.170   9.127  1.3627  1.1440  1.6891
  180SLPC  C21120593   2.243   3.962   9.122 -0.0849 -0.3332  0.4867
  180SLPC  H11R20594   2.184   3.923   9.037 -1.4641  2.9017 -0.1764
  180SLPC  H11S20595   2.249   3.876   9.193 -1.6084 -0.1148  0.9003
  180SLPC  C21220596   2.379   4.002   9.066 -0.1640 -0.2406 -0.0937
  180SLPC  H12R20597   2.460   4.007   9.140  0.6861  0.7439 -1.0795
  180SLPC  C21320598   2.400   4.032   8.935 -0.0152 -0.3379 -0.2089
  180SLPC  H13R20599   2.498   4.081   8.918  0.0164 -0.8428 -1.5826
  180SLPC  C21420600   2.305   4.055   8.819  0.3678 -0.1299 -0.3883
  180SLPC  H14R20601   2.274   4.160   8.801 -0.3019  0.0089  1.4255
  180SLPC  H14S20602   2.215   3.995   8.842  0.6199  0.6464  3.1389
  180SLPC  C21520603   2.385   4.026   8.691  0.0949  0.1205  0.3327
  180SLPC  H15R20604   2.430   3.924   8.692  1.2369  0.5604 -1.2654
  180SLPC  H15S20605   2.471   4.097   8.685  0.7867 -0.6168  1.1151
  180SLPC  C21620606   2.308   4.041   8.561  0.1288 -0.1732  0.2640
  180SLPC  H16R20607   2.213   3.984   8.565 -0.6927  1.0165 -0.8820
  180SLPC  H16S20608   2.369   3.989   8.484  2.1768 -0.7755  2.2071
  180SLPC  C21720609   2.264   4.184   8.521  0.2019 -0.8004 -0.4413
  180SLPC  H17R20610   2.198   4.225   8.600  1.0154  1.7285 -0.9511
  180SLPC  H17S20611   2.204   4.175   8.427  0.2922  0.4661 -0.6493
  180SLPC  C21820612   2.365   4.297   8.492 -0.1220  0.2144  1.1012
  180SLPC  H18R20613   2.431   4.278   8.405  1.5078  2.5774  1.7297
  180SLPC  H18S20614   2.433   4.300   8.580  0.5168  5.0966  0.7143
  180SLPC  H18T20615   2.315   4.395   8.478 -0.7975 -0.1215  1.1394
  180SLPC   C3320616   2.691   3.869  10.382 -0.4869  0.9701 -0.8143
  180SLPC   H3X20617   2.795   3.862  10.344 -0.4730  0.8514 -0.7530
  180SLPC   H3Y20618   2.688   3.940  10.467 -0.6940  0.1774 -0.1452
  180SLPC   C3420619   2.611   3.953  10.274 -0.0529  0.1723 -0.4277
  180SLPC   H4X20620   2.574   3.889  10.192 -0.6326  0.9746 -0.7943
  180SLPC   H4Y20621   2.682   4.024  10.226 -0.0196  0.4229 -0.0183
  180SLPC   C3520622   2.500   4.042  10.335  0.2990 -0.1620 -0.3211
  180SLPC   H5X20623   2.554   4.118  10.395  2.3664 -2.8096  1.4295
  180SLPC   H5Y20624   2.429   3.985  10.399 -1.3568 -0.4511 -2.3132
  180SLPC   C3620625   2.420   4.120  10.229 -0.3251  0.2611 -0.1411
  180SLPC   H6X20626   2.339   4.160  10.294 -1.9325  0.3300 -2.0962
  180SLPC   H6Y20627   2.370   4.045  10.164 -3.1214  0.2301  1.8099
  180SLPC   C3720628   2.486   4.242  10.174 -0.1313  0.2179  0.1236
  180SLPC   H7X20629   2.589   4.212  10.143  0.0975 -0.5865  1.5537
  180SLPC   H7Y20630   2.511   4.317  10.253  0.0478 -0.9645  1.2367
  180SLPC   C3820631   2.412   4.318  10.064 -0.2824 -0.8917 -0.2923
  180SLPC   H8X20632   2.434   4.427  10.059 -2.2864 -0.3228  1.3968
  180SLPC   H8Y20633   2.305   4.333  10.092 -0.6080  0.7287 -2.1552
  180SLPC   C3920634   2.407   4.255   9.926  0.3249  0.7587 -0.2274
  180SLPC   H9X20635   2.346   4.328   9.868 -1.3985  1.6609  2.5342
  180SLPC   H9Y20636   2.361   4.154   9.921  0.8919  0.4548  0.6474
  180SLPC  C31020637   2.540   4.236   9.862  0.3760  0.3520 -0.3027
  180SLPC  H10X20638   2.594   4.165   9.927  1.4441  0.5000 -0.9968
  180SLPC  H10Y20639   2.597   4.331   9.856  0.1912  0.7103  2.4247
  180SLPC  C31120640   2.536   4.164   9.720  0.2158 -0.6435  0.2687
  180SLPC  H11X20641   2.476   4.071   9.729  1.7717 -1.8790 -1.3628
  180SLPC  H11Y20642   2.638   4.119   9.718  0.0443 -1.0382  0.2278
  180SLPC  C31220643   2.509   4.244   9.595 -0.0854  0.2515  0.3630
  180SLPC  H12X20644   2.573   4.335   9.591 -0.9439  0.8442 -2.0306
  180SLPC  H12Y20645   2.403   4.268   9.619 -0.5378 -0.7994 -0.5033
  180SLPC  C31320646   2.505   4.168   9.457 -0.5896 -0.2463 -0.5494
  180SLPC  H13X20647   2.460   4.245   9.390 -3.1119  0.7607  2.0539
  180SLPC  H13Y20648   2.441   4.078   9.466  0.9899 -1.4229 -0.6955
  180SLPC  C31420649   2.638   4.140   9.389  0.2528  0.3011 -0.5447
  180SLPC  H14X20650   2.604   4.106   9.289  0.6922  0.1749 -0.6513
  180SLPC  H14Y20651   2.685   4.062   9.452 -3.6055 -1.1224  0.8977
  180SLPC  C31520652   2.721   4.263   9.366  0.2174 -0.4131 -0.3372
  180SLPC  H15X20653   2.752   4.301   9.466 -2.2040  2.5387 -0.5521
  180SLPC  H15Y20654   2.654   4.345   9.330 -3.0404 -1.4612  2.7600
  180SLPC  C31620655   2.842   4.246   9.269  1.0772  0.1943  0.0543
  180SLPC  H16X20656   2.811   4.166   9.198  0.9642  0.5406 -0.2916
  180SLPC  H16Y20657   2.925   4.201   9.328  1.3210 -0.9655 -1.1271
  180SLPC  C31720658   2.881   4.383   9.199  0.0226 -0.2437  0.1347
  180SLPC  H17X20659   2.797   4.427   9.139 -0.0714 -1.9823 -1.0670
  180SLPC  H17Y20660   2.961   4.372   9.122  1.8529  1.3139  1.7232
  180SLPC  C31820661   2.933   4.490   9.296 -0.4990  0.2473  0.0974
  180SLPC  H18X20662   2.850   4.522   9.364 -0.8629 -1.2650  0.3891
  180SLPC  H18Y20663   2.977   4.577   9.243  0.3202  0.4779  1.1349
  180SLPC  H18Z20664   3.005   4.442   9.365  0.9069 -1.6327 -2.4862
  181SLPC     N20665   5.455   4.320  11.141 -0.3837  0.2287 -0.9441
  181SLPC   C1320666   5.364   4.376  11.251 -0.1788  0.2585  0.0603
  181SLPC  H13A20667   5.407   4.460  11.303  0.1334  1.1833 -1.6017
  181SLPC  H13B20668   5.269   4.405  11.210  0.1015  0.1068 -0.7230
  181SLPC  H13C20669   5.343   4.295  11.320 -1.6086  0.0066 -0.6451
  181SLPC   C1420670   5.442   4.412  11.023  0.1539 -0.4802 -0.0932
  181SLPC  H14A20671   5.497   4.503  11.040  0.8803 -1.0754  0.8575
  181SLPC  H14B20672   5.491   4.362  10.941  2.4317 -0.7734  1.3754
  181SLPC  H14C20673   5.337   4.422  10.997  0.1881 -1.0550 -0.4696
  181SLPC   C1520674   5.394   4.183  11.103 -0.1085 -0.6382  0.1383
  181SLPC  H15A20675   5.405   4.115  11.186  2.5421 -0.4770  0.0010
  181SLPC  H15B20676   5.291   4.192  11.072  0.6102  2.1413 -1.7961
  181SLPC  H15C20677   5.457   4.134  11.031 -0.5579  0.0576 -0.7425
  181SLPC   C1220678   5.599   4.316  11.199  0.3686 -0.1766  0.3539
  181SLPC  H12A20679   5.614   4.271  11.296  2.4962  1.1074  0.6614
  181SLPC  H12B20680   5.622   4.419  11.222  1.2877  0.0920 -1.6040
  181SLPC   C1120681   5.714   4.272  11.109 -0.0404 -0.7365  0.4755
  181SLPC  H11A20682   5.815   4.286  11.152 -0.0266 -0.9267  0.5068
  181SLPC  H11B20683   5.727   4.325  11.012 -1.3750  0.3638  0.8649
  181SLPC     P20684   5.703   4.007  11.164  0.3728 -0.0368 -0.2450
  181SLPC   O1320685   5.823   4.010  11.257  0.1858  0.1605  0.7264
  181SLPC   O1420686   5.573   3.994  11.232 -0.3283  0.6415  0.0114
  181SLPC   O1220687   5.691   4.137  11.073 -0.2674 -0.2560  0.3534
  181SLPC   O1120688   5.712   3.885  11.063 -0.0874 -0.2440  0.3645
  181SLPC    C120689   5.592   3.857  10.986  0.3602  0.7550  0.1141
  181SLPC    HA20690   5.509   3.818  11.050  0.1969 -1.0091 -1.1133
  181SLPC    HB20691   5.564   3.950  10.931 -0.5783  0.1127 -0.5157
  181SLPC    C220692   5.616   3.751  10.879  0.6139 -0.2167  0.8090
  181SLPC    HS20693   5.656   3.663  10.934  0.6995 -1.1578 -0.6943
  181SLPC   O2120694   5.711   3.805  10.789  0.7210  0.7563 -0.7350
  181SLPC   C2120695   5.846   3.785  10.800  0.1928  0.0612  0.3304
  181SLPC   O2220696   5.896   3.692  10.862  0.0531 -0.0942 -0.1927
  181SLPC   C2220697   5.920   3.890  10.722  0.5895 -0.5442  0.0837
  181SLPC   H2R20698   5.972   3.833  10.643 -0.7111 -1.7003  0.0157
  181SLPC   H2S20699   5.846   3.948  10.662 -0.9946 -2.9047 -0.3682
  181SLPC    C320700   5.488   3.702  10.795 -0.3375 -0.1918 -0.3196
  181SLPC    HX20701   5.474   3.778  10.716 -0.0476 -1.6827 -1.8684
  181SLPC    HY20702   5.396   3.701  10.858  0.1287 -1.1442  0.3686
  181SLPC   O3120703   5.503   3.563  10.754  0.5705 -0.3343  0.0689
  181SLPC   C3120704   5.571   3.550  10.640  0.3667 -0.1465  0.2074
  181SLPC   O3220705   5.633   3.638  10.586 -0.2046 -0.2687  0.6146
  181SLPC   C3220706   5.553   3.398  10.593 -0.2212  0.2575 -0.1519
  181SLPC   H2X20707   5.579   3.337  10.682 -3.0573 -0.2577  0.4323
  181SLPC   H2Y20708   5.633   3.372  10.521  0.0390 -1.1870  0.6141
  181SLPC   C2320709   6.015   3.975  10.816  0.4999  0.0276  0.2954
  181SLPC   H3R20710   6.106   3.916  10.842 -0.9807 -0.8339  4.2251
  181SLPC   H3S20711   5.957   4.000  10.907  0.1097 -0.0234  0.0629
  181SLPC   C2420712   6.055   4.110  10.748  0.4682  0.3517  0.3849
  181SLPC   H4R20713   6.095   4.092  10.646  1.6903  1.0085  0.7284
  181SLPC   H4S20714   6.137   4.156  10.807  1.4123 -0.3524 -0.3178
  181SLPC   C2520715   5.940   4.209  10.753  0.1439 -0.2446 -0.6102
  181SLPC   H5R20716   5.899   4.202  10.856 -0.3147  1.1659 -0.6758
  181SLPC   H5S20717   5.858   4.177  10.686  1.0293 -1.9635 -0.9184
  181SLPC   C2620718   5.988   4.356  10.722 -0.2438 -0.0048 -0.6486
  181SLPC   H6R20719   6.051   4.344  10.632  2.0488  1.9196  0.5944
  181SLPC   H6S20720   6.064   4.393  10.794 -0.9624 -2.9695  1.8432
  181SLPC   C2720721   5.871   4.454  10.698 -0.3507  1.1493 -0.1834
  181SLPC   H7R20722   5.798   4.468  10.781 -2.9988 -0.2141 -2.1161
  181SLPC   H7S20723   5.830   4.413  10.604 -0.3612 -2.4324  1.2335
  181SLPC   C2820724   5.923   4.591  10.660 -0.4885  0.4946 -0.4698
  181SLPC   H8R20725   5.993   4.589  10.574 -1.2982 -1.1887 -1.1461
  181SLPC   H8S20726   5.974   4.630  10.751 -1.8675 -1.0274  1.0265
  181SLPC   C2920727   5.798   4.674  10.639 -0.6447  0.0733 -0.4198
  181SLPC   H9R20728   5.723   4.651  10.715 -1.2177 -1.0117 -1.2834
  181SLPC  C21020729   5.759   4.737  10.525  0.2133  0.0019 -0.2222
  181SLPC  H10R20730   5.665   4.795  10.528  0.3701  0.2654 -0.3557
  181SLPC  C21120731   5.828   4.744  10.390  0.0294 -0.0098 -0.6975
  181SLPC  H11R20732   5.787   4.662  10.327 -1.6807  1.0490 -1.0259
  181SLPC  H11S20733   5.938   4.728  10.400  0.1944  1.0373 -0.6390
  181SLPC  C21220734   5.820   4.891  10.332  0.5562  0.0707 -0.3416
  181SLPC  H12R20735   5.832   4.978  10.398 -1.4541  0.2744 -0.1792
  181SLPC  C21320736   5.788   4.927  10.203  0.1330 -0.8583  0.6487
  181SLPC  H13R20737   5.806   5.034  10.186  0.9425 -0.7580  1.9467
  181SLPC  C21420738   5.753   4.843  10.083 -0.0981 -0.4323  0.0488
  181SLPC  H14R20739   5.690   4.763  10.128  1.4936 -0.9592  1.4286
  181SLPC  H14S20740   5.840   4.800  10.029 -1.0547 -0.4221 -1.5717
  181SLPC  C21520741   5.678   4.923   9.977  0.0256 -0.7139  0.1637
  181SLPC  H15R20742   5.604   4.990  10.025 -0.2950  0.6269 -2.0330
  181SLPC  H15S20743   5.626   4.845   9.916 -0.5673 -1.2087  1.2797
  181SLPC  C21620744   5.779   5.003   9.880  0.0604 -0.0679  0.5281
  181SLPC  H16R20745   5.844   4.929   9.830  1.2997  0.9645  0.5497
  181SLPC  H16S20746   5.835   5.067   9.952  1.4105  0.2568 -0.7516
  181SLPC  C21720747   5.704   5.093   9.780  0.4163 -0.3229  0.1927
  181SLPC  H17R20748   5.652   5.038   9.699  1.0286 -1.2847  0.4419
  181SLPC  H17S20749   5.786   5.149   9.730  1.2278 -0.9957  0.7575
  181SLPC  C21820750   5.604   5.193   9.850  0.3765  0.1469 -0.0921
  181SLPC  H18R20751   5.653   5.230   9.943  0.9634 -1.2917  0.2042
  181SLPC  H18S20752   5.513   5.136   9.877  1.5305 -1.3335  0.8895
  181SLPC  H18T20753   5.579   5.275   9.780 -2.7666 -0.4117  0.2197
  181SLPC   C3320754   5.426   3.354  10.525 -0.3257  0.2641 -0.1680
  181SLPC   H3X20755   5.339   3.422  10.538 -0.6979 -0.5143  1.8564
  181SLPC   H3Y20756   5.396   3.266  10.585 -1.2046  1.3004  0.9778
  181SLPC   C3420757   5.454   3.309  10.385  0.9695 -0.2811 -0.2991
  181SLPC   H4X20758   5.368   3.255  10.340  1.1667 -0.4456 -0.4873
  181SLPC   H4Y20759   5.532   3.230  10.397  1.7080  0.5832  0.7636
  181SLPC   C3520760   5.502   3.430  10.302  0.3720  0.2909  0.7534
  181SLPC   H5X20761   5.594   3.478  10.342  0.2920 -0.9215  2.4822
  181SLPC   H5Y20762   5.420   3.504  10.315 -0.5533 -0.6123  0.2796
  181SLPC   C3620763   5.534   3.391  10.156 -0.2757  0.0642 -0.2789
  181SLPC   H6X20764   5.444   3.339  10.117 -0.2116  0.5168 -1.0652
  181SLPC   H6Y20765   5.621   3.322  10.156 -0.7740 -0.6391  1.8224
  181SLPC   C3720766   5.562   3.522  10.074 -0.1542  0.4182  0.1761
  181SLPC   H7X20767   5.664   3.550  10.109 -0.6973  2.1867  0.4026
  181SLPC   H7Y20768   5.486   3.595  10.105  0.5397  0.8299  0.9462
  181SLPC   C3820769   5.560   3.506   9.926  0.6324 -0.9914 -0.4811
  181SLPC   H8X20770   5.454   3.477   9.911  0.2739 -1.6788  2.5547
  181SLPC   H8Y20771   5.615   3.414   9.897  1.6316 -1.3823  2.3472
  181SLPC   C3920772   5.611   3.624   9.838 -0.9524  0.4763 -0.5914
  181SLPC   H9X20773   5.714   3.657   9.868 -0.6426 -1.4687  0.6362
  181SLPC   H9Y20774   5.549   3.712   9.864  2.4876  3.1241 -0.5468
  181SLPC  C31020775   5.590   3.597   9.688  0.0508 -0.5765 -0.1254
  181SLPC  H10X20776   5.486   3.564   9.667 -0.2716 -0.6033  1.4103
  181SLPC  H10Y20777   5.656   3.511   9.660  0.5417 -0.6159  1.0661
  181SLPC  C31120778   5.625   3.721   9.602  0.6187 -0.8781  0.7343
  181SLPC  H11X20779   5.733   3.744   9.613  0.6037 -1.6866  3.5999
  181SLPC  H11Y20780   5.578   3.795   9.671 -1.6315 -0.3792 -1.1949
  181SLPC  C31220781   5.587   3.731   9.455  0.2446  1.0370 -0.5024
  181SLPC  H12X20782   5.633   3.828   9.426  0.9834  0.5944 -0.8624
  181SLPC  H12Y20783   5.478   3.735   9.432  0.2852 -2.4113 -1.8814
  181SLPC  C31320784   5.634   3.610   9.366 -0.2227  0.3350 -0.5902
  181SLPC  H13X20785   5.604   3.626   9.260 -0.1671  0.2692 -0.6157
  181SLPC  H13Y20786   5.591   3.519   9.413 -1.5155  1.3483  0.2599
  181SLPC  C31420787   5.787   3.591   9.352  0.4952 -0.1107 -0.1231
  181SLPC  H14X20788   5.837   3.584   9.451 -2.2160  1.8393  1.4978
  181SLPC  H14Y20789   5.827   3.689   9.320 -0.4587  0.8063  1.3818
  181SLPC  C31520790   5.830   3.500   9.237 -0.4740  0.9473  0.6927
  181SLPC  H15X20791   5.941   3.497   9.241 -0.3838  1.6064 -0.9337
  181SLPC  H15Y20792   5.815   3.558   9.144  3.3758 -1.2309 -1.5387
  181SLPC  C31620793   5.776   3.357   9.237 -0.1389  0.0325  0.5962
  181SLPC  H16X20794   5.667   3.372   9.220 -0.1089 -2.2238 -2.6097
  181SLPC  H16Y20795   5.808   3.309   9.332  2.1121 -0.6780 -0.4471
  181SLPC  C31720796   5.827   3.274   9.120  0.4812 -1.0189 -0.0610
  181SLPC  H17X20797   5.770   3.179   9.118 -1.9204  0.3503 -2.0985
  181SLPC  H17Y20798   5.935   3.255   9.136  1.8447  2.0759 -3.8865
  181SLPC  C31820799   5.802   3.348   8.989 -0.0143  0.1387  0.0604
  181SLPC  H18X20800   5.830   3.278   8.907  0.4802 -0.1407  0.4592
  181SLPC  H18Y20801   5.865   3.437   8.970  0.0425  0.0222 -0.3020
  181SLPC  H18Z20802   5.693   3.369   8.980 -0.0897  1.0162  2.3283
  182SLPC     N20803   3.074   3.205  11.327 -0.5803 -0.0349  0.9503
  182SLPC   C1320804   3.012   3.094  11.253 -0.7185 -0.2396 -0.2479
  182SLPC  H13A20805   2.907   3.119  11.255 -0.2213  2.0990 -0.9638
  182SLPC  H13B20806   3.043   3.107  11.151  0.1029  2.0513  0.2203
  182SLPC  H13C20807   3.033   2.997  11.297 -1.0674  0.8491  2.5297
  182SLPC   C1420808   3.025   3.198  11.476 -0.4416 -0.3006 -0.1008
  182SLPC  H14A20809   3.074   3.279  11.529 -0.1481 -0.9336  0.6178
  182SLPC  H14B20810   2.917   3.203  11.478 -0.4618 -0.3127  2.0020
  182SLPC  H14C20811   3.061   3.103  11.513  1.9320  0.7046  0.4080
  182SLPC   C1520812   3.052   3.347  11.274 -0.4137  0.2089  0.6169
  182SLPC  H15A20813   3.094   3.346  11.175 -2.8241  1.5127 -0.4897
  182SLPC  H15B20814   2.945   3.356  11.266 -0.9946 -3.1228  2.6417
  182SLPC  H15C20815   3.090   3.426  11.339  1.9439 -0.7551  0.5342
  182SLPC   C1220816   3.224   3.185  11.333  0.2307  0.7643  0.2975
  182SLPC  H12A20817   3.242   3.096  11.391  1.0638  2.3445  2.5779
  182SLPC  H12B20818   3.263   3.273  11.381 -1.6202 -0.3096  4.2268
  182SLPC   C1120819   3.296   3.169  11.198  0.3895  0.2677  0.2861
  182SLPC  H11A20820   3.260   3.073  11.155  0.3084 -0.1384  1.2370
  182SLPC  H11B20821   3.406   3.150  11.206  0.7142  1.9787  0.1148
  182SLPC     P20822   3.342   3.302  10.977  0.1305 -0.0041 -0.5569
  182SLPC   O1320823   3.268   3.405  10.903  0.1596 -0.7188  0.6640
  182SLPC   O1420824   3.483   3.324  11.018 -0.3474 -0.6231 -0.6958
  182SLPC   O1220825   3.268   3.277  11.108 -0.2187  0.2667 -1.0349
  182SLPC   O1120826   3.318   3.168  10.910  0.0609 -0.2071 -0.0165
  182SLPC    C120827   3.191   3.109  10.881  0.0227  1.0257 -0.1949
  182SLPC    HA20828   3.180   3.018  10.944  0.8858  0.5865 -0.6692
  182SLPC    HB20829   3.105   3.177  10.899  1.3844  2.5921  0.7444
  182SLPC    C220830   3.177   3.064  10.730 -0.1247  0.1023 -0.0032
  182SLPC    HS20831   3.243   2.977  10.715  0.0273  0.7035 -3.6769
  182SLPC   O2120832   3.228   3.168  10.640  0.6956  0.1383 -0.4785
  182SLPC   C2120833   3.357   3.178  10.634  0.2356  0.0919 -0.5801
  182SLPC   O2220834   3.437   3.093  10.672  0.3638  0.4463 -0.5068
  182SLPC   C2220835   3.394   3.297  10.547 -0.6212 -0.4183 -0.3250
  182SLPC   H2R20836   3.310   3.368  10.555 -0.7225 -0.6102  0.3478
  182SLPC   H2S20837   3.488   3.341  10.587 -1.1940  0.3246  0.2283
  182SLPC    C320838   3.036   3.019  10.678 -0.6557 -0.4348  0.6359
  182SLPC    HX20839   2.963   3.049  10.757  0.5183  1.1696  1.1655
  182SLPC    HY20840   3.030   2.908  10.676 -0.3467 -0.4910  1.9912
  182SLPC   O3120841   2.997   3.075  10.546 -0.6233  0.3681 -0.3267
  182SLPC   C3120842   3.038   3.007  10.432 -0.5146 -0.0395  0.1661
  182SLPC   O3220843   3.095   2.896  10.439  0.3311 -0.6192 -0.1458
  182SLPC   C3220844   2.999   3.086  10.303  0.1821  0.0644 -0.4545
  182SLPC   H2X20845   3.038   3.190  10.313  1.8598 -0.5623 -0.1519
  182SLPC   H2Y20846   2.889   3.101  10.304  0.4161  2.0333 -0.9722
  182SLPC   C2320847   3.404   3.240  10.404 -0.3624 -0.4593  0.9133
  182SLPC   H3R20848   3.314   3.182  10.374 -0.1591 -0.4421  0.2563
  182SLPC   H3S20849   3.487   3.169  10.385 -0.0257  0.4531 -1.3503
  182SLPC   C2420850   3.412   3.356  10.296 -0.8747 -0.3234 -0.1784
  182SLPC   H4R20851   3.489   3.432  10.322 -1.8339  0.5668  0.0940
  182SLPC   H4S20852   3.321   3.419  10.290 -0.6895 -0.1608 -3.0673
  182SLPC   C2520853   3.436   3.297  10.159 -0.5726  0.7996  0.4851
  182SLPC   H5R20854   3.355   3.227  10.131  0.7752 -0.4883 -0.3023
  182SLPC   H5S20855   3.526   3.232  10.170 -1.5766 -0.6388  0.4010
  182SLPC   C2620856   3.459   3.392  10.043  0.5807  0.7517 -0.7563
  182SLPC   H6R20857   3.557   3.446  10.043 -0.1683  2.2020 -2.2055
  182SLPC   H6S20858   3.374   3.462  10.054 -1.4309 -1.6574 -0.1358
  182SLPC   C2720859   3.443   3.329   9.899  0.1812 -0.1301 -0.1347
  182SLPC   H7R20860   3.365   3.250   9.893  2.6770 -2.7213 -0.5045
  182SLPC   H7S20861   3.536   3.273   9.877 -0.2273 -1.6134  1.6765
  182SLPC   C2820862   3.415   3.434   9.793  0.1808  0.0334  0.0611
  182SLPC   H8R20863   3.328   3.497   9.822 -0.7561  0.7375 -3.7634
  182SLPC   H8S20864   3.386   3.370   9.707 -0.8651  0.2939  0.2085
  182SLPC   C2920865   3.526   3.534   9.767 -0.1736 -0.6021 -0.1735
  182SLPC   H9R20866   3.556   3.591   9.856 -0.4333 -0.1375 -0.3780
  182SLPC  C21020867   3.574   3.565   9.644 -0.3472 -0.0434 -0.1516
  182SLPC  H10R20868   3.645   3.648   9.636 -0.5015  0.2152  0.9627
  182SLPC  C21120869   3.539   3.491   9.514  0.4368 -0.0248  0.0005
  182SLPC  H11R20870   3.533   3.382   9.539  2.3648 -0.1009  0.3482
  182SLPC  H11S20871   3.620   3.511   9.441  0.8485  0.1973  0.5095
  182SLPC  C21220872   3.404   3.528   9.461 -0.3377 -0.8985 -0.2329
  182SLPC  H12R20873   3.336   3.533   9.547  1.1349  1.0536  0.9078
  182SLPC  C21320874   3.368   3.556   9.330  0.4479  0.1646 -0.5912
  182SLPC  H13R20875   3.261   3.575   9.317 -0.0466 -1.3547  0.8155
  182SLPC  C21420876   3.454   3.551   9.206 -0.2060 -0.1011  0.2015
  182SLPC  H14R20877   3.402   3.510   9.117  1.1412 -0.5728 -0.3810
  182SLPC  H14S20878   3.537   3.480   9.224  0.4381  0.1583 -1.5820
  182SLPC  C21520879   3.512   3.687   9.156 -0.0471  0.4903 -0.0701
  182SLPC  H15R20880   3.590   3.653   9.084  0.0192 -2.9884  1.4651
  182SLPC  H15S20881   3.569   3.746   9.231 -0.0890  1.9870 -1.1788
  182SLPC  C21620882   3.412   3.786   9.092  0.3692 -0.1907 -0.3760
  182SLPC  H16R20883   3.455   3.888   9.095  0.9287 -0.2404 -3.4336
  182SLPC  H16S20884   3.315   3.777   9.146 -0.8892 -2.1827 -2.7198
  182SLPC  C21720885   3.387   3.768   8.938  0.0741  0.0915 -0.0753
  182SLPC  H17R20886   3.282   3.793   8.914  0.4947  2.1061  0.0414
  182SLPC  H17S20887   3.403   3.662   8.907  0.8115  0.9600 -2.9978
  182SLPC  C21820888   3.477   3.864   8.858 -0.4247  0.2242  1.0885
  182SLPC  H18R20889   3.582   3.834   8.877 -0.3178 -0.4647 -0.4457
  182SLPC  H18S20890   3.468   3.972   8.883  1.0583  0.6703 -0.1379
  182SLPC  H18T20891   3.454   3.849   8.751  1.5303 -2.1738  0.9182
  182SLPC   C3320892   3.045   3.028  10.177  0.3351  0.5335  0.5341
  182SLPC   H3X20893   3.022   2.920  10.171  0.2639  0.5324  0.7906
  182SLPC   H3Y20894   3.156   3.022  10.165  0.1893  0.2537 -0.7823
  182SLPC   C3420895   2.989   3.103  10.058 -0.1466  0.7139  0.4343
  182SLPC   H4X20896   3.019   3.209  10.075 -0.8476  1.2401 -1.3284
  182SLPC   H4Y20897   2.880   3.097  10.038  0.0725  1.0080 -0.9770
  182SLPC   C3520898   3.072   3.070   9.929  0.0228  0.4515 -0.7064
  182SLPC   H5X20899   3.071   2.959   9.918  2.2495  0.3340 -0.2252
  182SLPC   H5Y20900   3.173   3.092   9.970  0.0079 -0.9528  0.1378
  182SLPC   C3620901   3.053   3.147   9.802  0.0022  0.1187  0.8544
  182SLPC   H6X20902   2.954   3.116   9.763 -0.3406  0.6963  1.2627
  182SLPC   H6Y20903   3.131   3.135   9.723 -1.2759  0.8956 -0.5689
  182SLPC   C3720904   3.042   3.299   9.831 -0.8792 -0.3611 -0.3287
  182SLPC   H7X20905   3.129   3.334   9.889  0.0227 -1.9449 -0.6681
  182SLPC   H7Y20906   2.947   3.307   9.888 -0.4567  0.5600  0.2563
  182SLPC   C3820907   3.024   3.390   9.708 -0.2648  0.8349 -0.2765
  182SLPC   H8X20908   2.935   3.361   9.648  0.3899  0.9339 -1.3159
  182SLPC   H8Y20909   3.117   3.371   9.649  2.0066  1.8518  2.7267
  182SLPC   C3920910   3.025   3.541   9.740 -0.3064  0.2409 -0.5789
  182SLPC   H9X20911   3.124   3.566   9.785 -0.7334  0.8203  0.0676
  182SLPC   H9Y20912   2.943   3.562   9.812  0.2046 -0.4294  0.2157
  182SLPC  C31020913   2.999   3.628   9.611 -0.7320 -0.0278  0.6464
  182SLPC  H10X20914   2.889   3.627   9.591 -0.5973  2.5234 -0.5751
  182SLPC  H10Y20915   3.055   3.594   9.522 -1.3995  0.2885  0.0982
  182SLPC  C31120916   3.029   3.780   9.637  0.5654 -0.2354  0.2450
  182SLPC  H11X20917   3.131   3.806   9.672 -0.0886  0.3256  1.8130
  182SLPC  H11Y20918   2.959   3.800   9.721 -1.3908  1.5374 -1.6756
  182SLPC  C31220919   3.008   3.877   9.520  0.2681 -0.4148  0.0166
  182SLPC  H12X20920   3.015   3.984   9.548  2.1574  0.1506 -2.3169
  182SLPC  H12Y20921   2.899   3.868   9.499  0.3649  0.1622 -0.7832
  182SLPC  C31320922   3.093   3.848   9.393 -0.2181  0.4567 -0.2666
  182SLPC  H13X20923   3.128   3.743   9.379  1.2387  0.9294 -0.3209
  182SLPC  H13Y20924   3.177   3.920   9.402  2.7938 -2.8650  0.8528
  182SLPC  C31420925   3.005   3.891   9.273  0.6784  0.3478 -0.2865
  182SLPC  H14X20926   2.954   3.985   9.304  0.8621  0.8220 -1.3817
  182SLPC  H14Y20927   2.929   3.811   9.266 -1.7552  2.6351 -2.2388
  182SLPC  C31520928   3.081   3.906   9.142 -0.1068  0.1590  0.0902
  182SLPC  H15X20929   3.092   3.800   9.108 -0.8976  0.6791 -1.9327
  182SLPC  H15Y20930   3.182   3.951   9.157  0.4889 -0.2261 -2.3134
  182SLPC  C31620931   3.015   3.987   9.036 -0.5120  0.6595  0.0431
  182SLPC  H16X20932   3.072   3.965   8.944  0.6526  0.2931  0.8257
  182SLPC  H16Y20933   3.021   4.097   9.050  0.8326  0.4962  0.8957
  182SLPC  C31720934   2.870   3.961   9.015 -0.0881 -0.1283  0.4821
  182SLPC  H17X20935   2.819   3.969   9.114  1.5360  3.0425  1.1777
  182SLPC  H17Y20936   2.860   3.857   8.977 -0.4978 -0.2125  0.8126
  182SLPC  C31820937   2.810   4.059   8.910 -0.0954  0.7346 -0.8346
  182SLPC  H18X20938   2.701   4.038   8.905  0.2433 -1.2522 -0.9018
  182SLPC  H18Y20939   2.850   4.041   8.807  1.1660  1.6515 -0.5200
  182SLPC  H18Z20940   2.820   4.163   8.945  0.3742 -0.3864  2.7595
  183SLPC     N20941   5.017   4.068  11.280  0.2331 -0.0756 -0.6677
  183SLPC   C1320942   4.937   4.028  11.409  0.2930  0.4668 -0.0823
  183SLPC  H13A20943   4.884   3.935  11.398 -1.8817  1.6353 -0.0847
  183SLPC  H13B20944   5.010   4.026  11.489 -0.8232  0.2825  0.9636
  183SLPC  H13C20945   4.858   4.098  11.433  0.7425  1.1449 -0.5354
  183SLPC   C1420946   5.120   3.962  11.243  0.1398 -0.6772 -0.6348
  183SLPC  H14A20947   5.138   3.966  11.136 -0.0326  0.7818 -0.6342
  183SLPC  H14B20948   5.215   3.989  11.287 -0.9375  0.2483  1.2444
  183SLPC  H14C20949   5.104   3.865  11.287  1.4907 -0.8315 -0.4399
  183SLPC   C1520950   5.088   4.190  11.324 -0.7564  0.2363 -0.3311
  183SLPC  H15A20951   5.024   4.271  11.354 -0.2965  0.7358 -0.6755
  183SLPC  H15B20952   5.151   4.165  11.408  2.3736  0.4810 -2.4291
  183SLPC  H15C20953   5.150   4.231  11.245  1.2580 -2.0243 -0.0362
  183SLPC   C1220954   4.922   4.090  11.165  0.1188 -0.8148 -0.6045
  183SLPC  H12A20955   4.843   4.158  11.195 -0.3009 -1.1269 -1.0002
  183SLPC  H12B20956   4.863   4.001  11.154 -1.2216 -0.0582  0.1922
  183SLPC   C1120957   4.978   4.138  11.025 -0.0740 -0.7042  0.0951
  183SLPC  H11A20958   4.885   4.154  10.967 -0.0460  0.4450  0.3453
  183SLPC  H11B20959   5.026   4.049  10.979  0.8898 -0.8113  1.2493
  183SLPC     P20960   5.028   4.394  11.015  0.4363  0.1995  0.2312
  183SLPC   O1320961   4.898   4.404  11.082  0.4556  0.0815  0.0618
  183SLPC   O1420962   5.132   4.480  11.057 -0.1440 -0.2427  0.3698
  183SLPC   O1220963   5.078   4.249  11.033  0.0304  0.1438  0.1597
  183SLPC   O1120964   5.005   4.397  10.862  0.0076 -0.8446 -0.3471
  183SLPC    C120965   5.119   4.389  10.777 -0.9422  0.2186 -0.2767
  183SLPC    HA20966   5.101   4.425  10.673  0.4094 -2.5923 -1.6220
  183SLPC    HB20967   5.210   4.448  10.801  0.5071 -1.5775 -0.9885
  183SLPC    C220968   5.169   4.244  10.747 -0.8757  0.3551 -0.8574
  183SLPC    HS20969   5.200   4.198  10.844  0.7270  2.5278 -0.2609
  183SLPC   O2120970   5.282   4.250  10.660 -0.1307 -1.0733 -0.7658
  183SLPC   C2120971   5.361   4.148  10.650 -0.5634 -0.0826  0.7099
  183SLPC   O2220972   5.342   4.030  10.681  0.3593 -0.0867  0.0135
  183SLPC   C2220973   5.499   4.200  10.613 -0.1199  0.6580  0.3873
  183SLPC   H2R20974   5.486   4.300  10.566 -0.1678 -0.9713 -3.4648
  183SLPC   H2S20975   5.557   4.215  10.707 -0.5546  2.8124  0.3760
  183SLPC    C320976   5.059   4.166  10.676 -0.5002  0.0450 -0.1480
  183SLPC    HX20977   4.971   4.161  10.745 -0.2604 -1.4115  0.0995
  183SLPC    HY20978   5.089   4.062  10.649  0.8819  0.0540  1.2285
  183SLPC   O3120979   5.015   4.238  10.565  0.2311 -0.4418 -0.8070
  183SLPC   C3120980   5.069   4.221  10.447  0.3255  0.4646  0.8284
  183SLPC   O3220981   5.155   4.138  10.423 -0.2617 -0.6613 -0.4124
  183SLPC   C3220982   5.005   4.319  10.347 -1.0007  0.3669 -0.0754
  183SLPC   H2X20983   5.073   4.406  10.339 -2.6119  1.6540 -0.4185
  183SLPC   H2Y20984   4.907   4.359  10.383 -0.7732  1.2574 -0.4287
  183SLPC   C2320985   5.561   4.099  10.514 -0.8182  0.3405 -0.2492
  183SLPC   H3R20986   5.549   3.996  10.553  1.6940 -1.2255 -3.1541
  183SLPC   H3S20987   5.668   4.129  10.509 -0.3890 -1.2892 -2.3977
  183SLPC   C2420988   5.503   4.118  10.378 -0.1959  0.1654  0.6466
  183SLPC   H4R20989   5.506   4.225  10.349 -0.1391  1.0615  3.6567
  183SLPC   H4S20990   5.393   4.100  10.376 -0.5558  2.1527 -0.9635
  183SLPC   C2520991   5.582   4.048  10.274 -0.2427  0.1940  0.1126
  183SLPC   H5R20992   5.588   3.941  10.304  1.3157  0.2595  0.1436
  183SLPC   H5S20993   5.689   4.080  10.276 -0.2319  0.1971  2.5814
  183SLPC   C2620994   5.527   4.056  10.130 -0.3339  0.9534 -0.1411
  183SLPC   H6R20995   5.418   4.038  10.143 -0.1061 -0.7233 -0.2558
  183SLPC   H6S20996   5.567   3.975  10.066 -0.3303  1.7816 -1.2051
  183SLPC   C2720997   5.536   4.185  10.048 -0.5807  0.6090 -0.4903
  183SLPC   H7R20998   5.643   4.209  10.035  0.3081 -1.8827  1.4096
  183SLPC   H7S20999   5.501   4.263  10.119 -1.3403 -1.1692  1.1996
  183SLPC   C2821000   5.456   4.170   9.917 -0.0629 -0.1140 -0.1388
  183SLPC   H8R21001   5.455   4.256   9.847  0.0899 -1.1902 -1.5090
  183SLPC   H8S21002   5.350   4.141   9.932  0.3362 -1.1299  0.9724
  183SLPC   C2921003   5.515   4.062   9.832 -0.2823  0.1779  0.4077
  183SLPC   H9R21004   5.499   3.956   9.857 -3.1941  0.8452  1.8513
  183SLPC  C21021005   5.579   4.086   9.712 -0.0886 -0.4213  0.5785
  183SLPC  H10R21006   5.619   3.994   9.667 -0.2189 -0.2879  0.1895
  183SLPC  C21121007   5.617   4.212   9.642 -0.2235  0.0448  0.0894
  183SLPC  H11R21008   5.718   4.203   9.596  0.3168  0.1934  1.2236
  183SLPC  H11S21009   5.620   4.299   9.711 -2.7413  0.0719  0.2376
  183SLPC  C21221010   5.518   4.251   9.536 -0.2110 -0.3706 -0.6093
  183SLPC  H12R21011   5.414   4.239   9.569 -0.1383 -1.7651 -0.8548
  183SLPC  C21321012   5.533   4.306   9.416 -0.1772  0.2425  0.0788
  183SLPC  H13R21013   5.444   4.318   9.352 -0.3528 -2.0223 -0.1600
  183SLPC  C21421014   5.653   4.342   9.342 -0.1706 -0.2307  0.1381
  183SLPC  H14R21015   5.735   4.372   9.411  0.3937 -2.0550  0.2922
  183SLPC  H14S21016   5.619   4.432   9.286 -0.9019 -1.0252 -0.7341
  183SLPC  C21521017   5.697   4.237   9.241  0.5061  0.3216  0.3209
  183SLPC  H15R21018   5.778   4.283   9.181  0.5160 -1.8710 -1.4489
  183SLPC  H15S21019   5.611   4.228   9.172 -0.1554  1.5247  0.9531
  183SLPC  C21621020   5.733   4.106   9.309 -0.2356  0.1654 -0.4958
  183SLPC  H16R21021   5.645   4.059   9.358  0.7326 -0.5648  0.5786
  183SLPC  H16S21022   5.809   4.129   9.387 -0.7448  1.7160 -0.4256
  183SLPC  C21721023   5.800   4.009   9.211 -0.3391 -0.2248 -0.2271
  183SLPC  H17R21024   5.859   3.931   9.264  0.5602 -0.5750 -1.6878
  183SLPC  H17S21025   5.877   4.062   9.150 -1.1254  1.0968 -0.1153
  183SLPC  C21821026   5.708   3.958   9.105 -0.9371  0.1324 -0.4208
  183SLPC  H18R21027   5.627   3.892   9.144  0.0835 -1.5726 -1.0624
  183SLPC  H18S21028   5.775   3.894   9.043 -1.1517 -0.6625  0.1424
  183SLPC  H18T21029   5.676   4.039   9.036  0.2145  1.3619  0.4348
  183SLPC   C3321030   4.992   4.258  10.203  0.0961 -0.2962 -0.7014
  183SLPC   H3X21031   4.936   4.163  10.197  0.9763 -0.9275  0.6519
  183SLPC   H3Y21032   5.097   4.231  10.178 -0.1411 -0.7057 -1.2419
  183SLPC   C3421033   4.944   4.365  10.105  0.5701 -0.0374  0.6202
  183SLPC   H4X21034   5.006   4.457  10.118  1.4713 -0.7117  1.2164
  183SLPC   H4Y21035   4.842   4.401  10.127  1.3570  3.0680 -0.1831
  183SLPC   C3521036   4.947   4.322   9.958  1.1654  0.6000 -0.6350
  183SLPC   H5X21037   4.883   4.404   9.919 -0.1291 -0.3133 -0.4893
  183SLPC   H5Y21038   4.899   4.223   9.943  1.7421 -0.1725  2.0659
  183SLPC   C3621039   5.092   4.320   9.915  0.0903 -0.5730 -0.1275
  183SLPC   H6X21040   5.152   4.236   9.955 -2.7662 -1.5944  2.4003
  183SLPC   H6Y21041   5.144   4.413   9.944 -0.0318 -0.5106 -0.1081
  183SLPC   C3721042   5.101   4.317   9.761  0.3958 -0.3803 -0.9286
  183SLPC   H7X21043   5.048   4.224   9.735 -1.6777  0.4103  0.2788
  183SLPC   H7Y21044   5.212   4.314   9.746  0.9584  1.6196  1.8812
  183SLPC   C3821045   5.041   4.439   9.696 -0.4932 -0.2219 -0.6485
  183SLPC   H8X21046   5.082   4.530   9.744 -0.3869  0.1833 -1.4893
  183SLPC   H8Y21047   4.931   4.446   9.709 -0.2561  1.7697  0.7749
  183SLPC   C3921048   5.084   4.455   9.545 -0.2827 -0.2289 -0.2118
  183SLPC   H9X21049   5.084   4.357   9.493 -2.0906 -1.4267  1.8718
  183SLPC   H9Y21050   5.191   4.481   9.564 -1.2299  3.1147  1.3946
  183SLPC  C31021051   5.018   4.566   9.468 -0.0108  0.6896  0.9674
  183SLPC  H10X21052   4.998   4.651   9.537  0.5832  0.2927  1.6345
  183SLPC  H10Y21053   4.931   4.523   9.413  1.4604 -1.3792  0.1468
  183SLPC  C31121054   5.121   4.609   9.359 -0.4955  0.0374  0.2686
  183SLPC  H11X21055   5.215   4.643   9.407 -0.1292  1.3310 -1.2998
  183SLPC  H11Y21056   5.078   4.700   9.311 -0.9125 -0.5173 -0.4315
  183SLPC  C31221057   5.137   4.499   9.251  0.3410 -0.0020 -0.3738
  183SLPC  H12X21058   5.040   4.446   9.249  0.0312  0.5642 -0.7215
  183SLPC  H12Y21059   5.211   4.417   9.263 -0.0374 -0.9019 -3.4614
  183SLPC  C31321060   5.168   4.555   9.113  0.8054  0.7553  0.4436
  183SLPC  H13X21061   5.231   4.647   9.116 -1.0629  2.2303  5.8224
  183SLPC  H13Y21062   5.068   4.581   9.071  0.1566 -2.3107 -0.1363
  183SLPC  C31421063   5.209   4.443   9.017 -0.3758 -0.0702  0.1957
  183SLPC  H14X21064   5.146   4.355   9.041 -0.1054 -0.4279 -0.3707
  183SLPC  H14Y21065   5.311   4.404   9.036 -0.6890 -0.8569  0.2944
  183SLPC  C31521066   5.201   4.484   8.870  0.3835 -0.5645 -0.2875
  183SLPC  H15X21067   5.101   4.522   8.840  0.0535  0.5782  2.0049
  183SLPC  H15Y21068   5.220   4.390   8.815 -1.8078 -0.8818 -0.5765
  183SLPC  C31621069   5.328   4.568   8.837 -0.1022  0.2343 -0.2866
  183SLPC  H16X21070   5.420   4.531   8.885 -0.9729 -1.1983  0.3338
  183SLPC  H16Y21071   5.303   4.665   8.885  0.8154  0.2296  0.2282
  183SLPC  C31721072   5.351   4.599   8.689  0.1838  0.9168 -0.3643
  183SLPC  H17X21073   5.256   4.580   8.634 -0.3448  1.1663  0.4611
  183SLPC  H17Y21074   5.425   4.522   8.658 -0.4513 -0.6430  1.7663
  183SLPC  C31821075   5.405   4.733   8.658 -0.0906 -0.4270  0.1227
  183SLPC  H18X21076   5.413   4.742   8.548 -2.5107 -0.1304 -0.0816
  183SLPC  H18Y21077   5.504   4.751   8.704  0.9843  1.3599 -2.6283
  183SLPC  H18Z21078   5.334   4.814   8.687  0.1896 -0.4453  0.8757
  184SLPC     N21079   6.521   1.448  11.154  0.6067  0.7259 -0.5201
  184SLPC   C1321080   6.386   1.503  11.181  0.0044  0.1176 -0.5868
  184SLPC  H13A21081   6.384   1.611  11.187  1.0886  0.0510  2.5848
  184SLPC  H13B21082   6.321   1.453  11.110 -1.3276  1.1473 -0.1291
  184SLPC  H13C21083   6.351   1.476  11.279  1.9055 -0.1520  0.0683
  184SLPC   C1421084   6.521   1.294  11.173  0.0342 -0.7127 -0.5244
  184SLPC  H14A21085   6.441   1.249  11.117  0.1149 -0.8941 -0.4942
  184SLPC  H14B21086   6.610   1.248  11.134 -0.2994  0.0278 -2.2861
  184SLPC  H14C21087   6.499   1.280  11.278  0.4812 -0.2543 -0.3641
  184SLPC   C1521088   6.605   1.502  11.268  0.8118  0.5568  0.4568
  184SLPC  H15A21089   6.614   1.610  11.264 -0.6722  0.6533 -1.6906
  184SLPC  H15B21090   6.558   1.480  11.363 -0.8417 -2.0268 -0.8566
  184SLPC  H15C21091   6.699   1.451  11.259  1.0139  1.0252 -0.1318
  184SLPC   C1221092   6.571   1.492  11.023  0.3291  0.2236  0.0798
  184SLPC  H12A21093   6.675   1.463  11.014  0.9543  2.3993 -0.3069
  184SLPC  H12B21094   6.580   1.599  11.020  1.7234  0.1249 -2.2214
  184SLPC   C1121095   6.494   1.445  10.897 -0.9217  0.1912 -0.4895
  184SLPC  H11A21096   6.525   1.339  10.892  1.1360  0.7514 -0.5169
  184SLPC  H11B21097   6.532   1.488  10.802  0.2996 -2.5415 -1.3117
  184SLPC     P21098   6.247   1.340  10.885 -0.1427 -0.1355 -0.4992
  184SLPC   O1321099   6.323   1.216  10.892 -0.4252  0.1416  0.3480
  184SLPC   O1421100   6.140   1.358  10.986 -0.2518 -0.0846  0.1098
  184SLPC   O1221101   6.354   1.458  10.902  0.0455 -0.5527  0.3116
  184SLPC   O1121102   6.182   1.373  10.743  0.2216 -0.0485 -0.0943
  184SLPC    C121103   6.118   1.497  10.730  0.2759  0.1373 -0.5159
  184SLPC    HA21104   6.007   1.485  10.727  0.1756  1.0350 -0.5671
  184SLPC    HB21105   6.129   1.566  10.816  1.9300  0.2174 -0.7588
  184SLPC    C221106   6.170   1.559  10.608  0.0310 -0.1903 -0.2140
  184SLPC    HS21107   6.126   1.661  10.604  0.2533 -0.0771  0.2379
  184SLPC   O2121108   6.140   1.482  10.493  0.2150  0.1673 -0.0222
  184SLPC   C2121109   6.014   1.510  10.440 -1.0221 -0.1736  0.1085
  184SLPC   O2221110   5.943   1.601  10.478 -0.5462 -0.0694  0.8223
  184SLPC   C2221111   6.002   1.418  10.324  0.5158  0.3993  0.6500
  184SLPC   H2R21112   6.094   1.418  10.262  0.0158  0.5827 -0.1055
  184SLPC   H2S21113   5.988   1.318  10.371 -1.8547  0.8530  1.0100
  184SLPC    C321114   6.317   1.579  10.611 -0.3911  0.0998 -0.1178
  184SLPC    HX21115   6.360   1.477  10.620  1.4052  0.9235  1.1383
  184SLPC    HY21116   6.339   1.630  10.707  1.0044  1.2471 -1.0174
  184SLPC   O3121117   6.361   1.658  10.499 -0.1183 -0.3255 -0.5151
  184SLPC   C3121118   6.419   1.591  10.406  0.7764 -0.5938 -0.3473
  184SLPC   O3221119   6.453   1.474  10.406 -0.0133  0.1401  0.1367
  184SLPC   C3221120   6.443   1.697  10.294  0.4270 -0.2313 -0.2045
  184SLPC   H2X21121   6.489   1.780  10.351 -0.1564 -0.9042  1.3166
  184SLPC   H2Y21122   6.335   1.718  10.279  0.1455 -0.4594  1.3082
  184SLPC   C2321123   5.863   1.452  10.249 -0.3280  0.3499  0.1173
  184SLPC   H3R21124   5.780   1.479  10.318 -0.6111 -1.5256  0.5837
  184SLPC   H3S21125   5.841   1.352  10.203 -1.5715  0.3117  0.7418
  184SLPC   C2421126   5.875   1.557  10.138 -0.4948  0.2381  0.1098
  184SLPC   H4R21127   5.905   1.646  10.199 -0.7885  0.6411 -0.3303
  184SLPC   H4S21128   5.776   1.568  10.089 -0.9072  1.5913  1.1830
  184SLPC   C2521129   5.985   1.529  10.028 -0.6455  0.8352 -0.1259
  184SLPC   H5R21130   6.045   1.442  10.063 -0.5919  0.7442 -0.4363
  184SLPC   H5S21131   6.059   1.611  10.027 -0.5430  0.8716  2.7874
  184SLPC   C2621132   5.941   1.514   9.882  0.7320 -0.1536  0.1710
  184SLPC   H6R21133   6.037   1.523   9.828 -0.8645  1.4513 -2.6154
  184SLPC   H6S21134   5.874   1.596   9.848 -0.5848 -2.3703 -3.0985
  184SLPC   C2721135   5.865   1.388   9.844  0.4206 -0.3515  0.0985
  184SLPC   H7R21136   5.763   1.391   9.888 -0.6203  0.8939 -2.2270
  184SLPC   H7S21137   5.914   1.303   9.897  0.6969  1.2526  2.6048
  184SLPC   C2821138   5.842   1.377   9.694 -0.9271 -0.4072 -0.2327
  184SLPC   H8R21139   5.789   1.468   9.658  0.2470  0.6150  0.5307
  184SLPC   H8S21140   5.780   1.289   9.670 -0.8941 -0.4740 -0.0749
  184SLPC   C2921141   5.973   1.355   9.617 -0.3238 -0.3801 -0.2588
  184SLPC   H9R21142   6.029   1.273   9.665 -1.1490 -0.0572  1.3248
  184SLPC  C21021143   6.034   1.424   9.521 -0.4474 -0.4966 -0.4628
  184SLPC  H10R21144   6.126   1.385   9.477 -0.0381  1.9039 -1.8872
  184SLPC  C21121145   5.980   1.550   9.457  0.5845  0.2563  0.8080
  184SLPC  H11R21146   5.983   1.639   9.524  0.4768  2.2347 -1.6417
  184SLPC  H11S21147   5.872   1.539   9.434  0.8855  0.3728 -0.8081
  184SLPC  C21221148   6.069   1.599   9.345  1.0497  0.8864 -0.0196
  184SLPC  H12R21149   6.158   1.651   9.382  0.8571  1.5569 -0.4729
  184SLPC  C21321150   6.051   1.560   9.217  0.3976  0.3194 -0.2149
  184SLPC  H13R21151   6.133   1.588   9.148  0.5524  1.3003  0.3519
  184SLPC  C21421152   5.946   1.474   9.157  0.5909 -0.2590  0.7431
  184SLPC  H14R21153   5.848   1.520   9.132 -0.0789 -1.9026  0.1952
  184SLPC  H14S21154   5.919   1.410   9.243  1.7559  0.0140  1.3283
  184SLPC  C21521155   5.984   1.382   9.035 -0.0750  0.0247 -0.1895
  184SLPC  H15R21156   5.901   1.314   9.004 -1.3950  1.5268 -0.0377
  184SLPC  H15S21157   6.075   1.324   9.064 -0.0250 -1.5870 -3.1166
  184SLPC  C21621158   6.015   1.465   8.904  0.3999  0.6877  0.0613
  184SLPC  H16R21159   6.089   1.404   8.848 -0.0775 -2.3006  2.4084
  184SLPC  H16S21160   6.080   1.551   8.930  2.4709 -0.8690  0.2990
  184SLPC  C21721161   5.903   1.487   8.804  0.0893 -0.2121  0.3922
  184SLPC  H17R21162   5.843   1.396   8.823  0.6141 -0.1174  2.9196
  184SLPC  H17S21163   5.946   1.484   8.702  1.9916 -2.0419  1.1836
  184SLPC  C21821164   5.820   1.614   8.845  0.5565 -0.0680 -0.1604
  184SLPC  H18R21165   5.878   1.704   8.817  2.1656 -0.9487  0.2556
  184SLPC  H18S21166   5.793   1.626   8.952 -3.0161 -0.1477 -0.9278
  184SLPC  H18T21167   5.721   1.613   8.793 -0.5146 -0.9257  1.7875
  184SLPC   C3321168   6.523   1.638  10.176 -0.4462 -0.0916  0.0996
  184SLPC   H3X21169   6.477   1.542  10.145 -1.7281  0.5521 -0.0661
  184SLPC   H3Y21170   6.627   1.617  10.209  0.1769  3.0767  0.4336
  184SLPC   C3421171   6.531   1.713  10.043 -0.5209 -0.9561 -0.3915
  184SLPC   H4X21172   6.620   1.683   9.983  0.2129 -0.5615  0.4861
  184SLPC   H4Y21173   6.550   1.820  10.066  1.8713 -1.4509  0.2561
  184SLPC   C3521174   6.406   1.698   9.953 -0.4403 -0.3659  0.2195
  184SLPC   H5X21175   6.317   1.704  10.020 -0.5575  1.0457 -0.0278
  184SLPC   H5Y21176   6.411   1.593   9.918  2.6176 -0.3130  0.2180
  184SLPC   C3621177   6.397   1.819   9.864 -0.2896 -0.5854 -0.0263
  184SLPC   H6X21178   6.501   1.835   9.829  0.4001 -2.2217  1.1337
  184SLPC   H6Y21179   6.367   1.907   9.925 -0.8754  0.0050 -1.1447
  184SLPC   C3721180   6.325   1.804   9.729 -0.3736  0.2895  0.3170
  184SLPC   H7X21181   6.217   1.796   9.753 -0.3013  1.1737  1.0429
  184SLPC   H7Y21182   6.352   1.702   9.696 -1.4260  1.0791 -3.4776
  184SLPC   C3821183   6.351   1.905   9.618 -0.3230 -0.1009 -0.0769
  184SLPC   H8X21184   6.462   1.892   9.610 -0.5500 -1.5055 -1.5160
  184SLPC   H8Y21185   6.327   2.005   9.659  1.2819 -0.4846  1.9923
  184SLPC   C3921186   6.288   1.879   9.482  0.1555 -0.4485 -0.1978
  184SLPC   H9X21187   6.178   1.895   9.487  0.0914 -0.7803 -0.4425
  184SLPC   H9Y21188   6.299   1.770   9.459  0.9961 -0.8354  1.8141
  184SLPC  C31021189   6.338   1.965   9.371 -0.5231  0.3818 -0.4048
  184SLPC  H10X21190   6.448   1.974   9.383 -0.6456  3.3022 -0.7961
  184SLPC  H10Y21191   6.298   2.068   9.384  0.0445  0.7156 -1.1854
  184SLPC  C31121192   6.308   1.915   9.222 -0.0263 -0.5578 -0.1642
  184SLPC  H11X21193   6.197   1.912   9.227 -0.1257  0.2962 -1.3778
  184SLPC  H11Y21194   6.354   1.814   9.213  3.0894  0.9118 -3.6804
  184SLPC  C31221195   6.380   2.002   9.121 -0.4042  0.0002  1.2934
  184SLPC  H12X21196   6.478   2.019   9.170 -0.1026  0.6726  0.4859
  184SLPC  H12Y21197   6.331   2.101   9.113  1.4638  0.9269  0.7930
  184SLPC  C31321198   6.396   1.952   8.973 -0.2214  0.1926 -0.2004
  184SLPC  H13X21199   6.299   1.974   8.923 -0.8485 -1.0162  0.4307
  184SLPC  H13Y21200   6.405   1.842   8.964  1.3083  0.4703 -3.4680
  184SLPC  C31421201   6.512   2.019   8.895 -0.1151 -0.4822 -0.4230
  184SLPC  H14X21202   6.601   1.971   8.940 -1.0652 -2.3339 -0.4316
  184SLPC  H14Y21203   6.523   2.127   8.921  0.9123  0.6022 -4.6389
  184SLPC  C31521204   6.508   2.006   8.746 -0.0903  0.4086  0.7715
  184SLPC  H15X21205   6.472   1.904   8.720 -2.6309  1.4878 -0.2547
  184SLPC  H15Y21206   6.609   2.012   8.700  1.2550  0.9694  3.5925
  184SLPC  C31621207   6.413   2.100   8.666  0.3477  0.1223 -0.0170
  184SLPC  H16X21208   6.312   2.083   8.710  0.5177 -1.1118 -0.0531
  184SLPC  H16Y21209   6.409   2.062   8.562 -2.8969 -0.2203  0.1218
  184SLPC  C31721210   6.464   2.244   8.660 -0.0389 -0.4256 -0.0034
  184SLPC  H17X21211   6.574   2.228   8.649 -0.3149 -1.9439 -0.6499
  184SLPC  H17Y21212   6.440   2.301   8.753 -0.6182 -0.6905  0.0108
  184SLPC  C31821213   6.415   2.329   8.551  0.4178 -0.7701  0.5125
  184SLPC  H18X21214   6.459   2.295   8.454  0.3718  1.2925 -0.2822
  184SLPC  H18Y21215   6.441   2.436   8.565 -0.9168 -0.1806 -1.1510
  184SLPC  H18Z21216   6.305   2.321   8.537  0.5070  0.9135 -1.8682
  185SLPC     N21217   6.523   5.600   6.753 -0.8336 -0.4041  0.3097
  185SLPC   C1321218   6.399   5.544   6.706 -0.0894  0.6034  0.0790
  185SLPC  H13A21219   6.321   5.558   6.779 -0.0905 -0.9469  0.4187
  185SLPC  H13B21220   6.367   5.592   6.614  2.2293  3.1686  0.4863
  185SLPC  H13C21221   6.412   5.437   6.699  1.8413  0.8637 -1.2417
  185SLPC   C1421222   6.618   5.570   6.640  0.0275 -0.2950 -0.6396
  185SLPC  H14A21223   6.722   5.589   6.660 -0.5416 -0.2184  2.8208
  185SLPC  H14B21224   6.599   5.468   6.611 -2.0180  0.0493 -0.6553
  185SLPC  H14C21225   6.585   5.629   6.556  2.2756  0.3517 -1.1203
  185SLPC   C1521226   6.579   5.537   6.873  0.1652 -0.4133 -0.1637
  185SLPC  H15A21227   6.510   5.549   6.955  0.9955  0.5656  0.4154
  185SLPC  H15B21228   6.593   5.430   6.859 -2.3308 -1.0152  1.1954
  185SLPC  H15C21229   6.668   5.588   6.906  0.4143 -0.5116 -0.6753
  185SLPC   C1221230   6.507   5.751   6.763  0.2316 -0.0663 -0.3460
  185SLPC  H12A21231   6.607   5.787   6.784  0.2542  1.4820 -2.7357
  185SLPC  H12B21232   6.440   5.767   6.847  0.2694  1.3100 -0.5508
  185SLPC   C1121233   6.448   5.833   6.648 -0.3964  0.0762  0.4534
  185SLPC  H11A21234   6.508   5.806   6.559 -0.9509  1.7230 -0.4629
  185SLPC  H11B21235   6.478   5.939   6.661 -1.2282  0.3788 -0.0622
  185SLPC     P21236   6.208   5.867   6.701  0.1533  0.1034  0.3144
  185SLPC   O1321237   6.229   6.013   6.713 -0.1669  0.1805  0.2641
  185SLPC   O1421238   6.074   5.830   6.643  0.3672 -0.0986  0.0426
  185SLPC   O1221239   6.321   5.809   6.604 -0.1237 -0.2774  0.0452
  185SLPC   O1121240   6.218   5.794   6.844 -0.5063  0.1091 -0.0341
  185SLPC    C121241   6.132   5.684   6.875 -0.0373 -0.0362 -0.5068
  185SLPC    HA21242   6.041   5.665   6.813 -1.4186  0.6202  1.2329
  185SLPC    HB21243   6.198   5.595   6.880  1.3022  0.9792  0.1975
  185SLPC    C221244   6.065   5.703   7.013  0.2931 -0.0430  0.0725
  185SLPC    HS21245   5.998   5.791   7.013 -0.0657 -0.3126  0.2202
  185SLPC   O2121246   6.172   5.709   7.106  0.1755  0.4765 -0.7349
  185SLPC   C2121247   6.208   5.835   7.148 -1.1549  0.7866  0.3771
  185SLPC   O2221248   6.149   5.935   7.130  0.4864 -0.2779  0.0982
  185SLPC   C2221249   6.360   5.829   7.188 -0.1611  0.2439  0.2848
  185SLPC   H2R21250   6.363   5.735   7.248  0.2000 -1.0285 -1.6362
  185SLPC   H2S21251   6.409   5.821   7.089 -1.8731  1.3239 -0.6860
  185SLPC    C321252   5.978   5.573   7.043  0.3670 -0.1130  0.3580
  185SLPC    HX21253   6.033   5.485   7.004  0.1892  1.2536 -3.4050
  185SLPC    HY21254   5.895   5.594   6.972 -1.2812 -1.3678  1.8488
  185SLPC   O3121255   5.944   5.565   7.178 -0.5731 -0.0636 -0.0414
  185SLPC   C3121256   5.825   5.524   7.216 -0.4192  0.2253  0.1463
  185SLPC   O3221257   5.735   5.503   7.136 -0.2576  0.2306  0.2709
  185SLPC   C3221258   5.814   5.523   7.366  0.0918 -0.0392 -0.1147
  185SLPC   H2X21259   5.874   5.612   7.396  0.5163  0.0734 -1.2377
  185SLPC   H2Y21260   5.871   5.434   7.400  0.9684  0.6922  0.3731
  185SLPC   C2321261   6.412   5.957   7.265  0.7568 -0.2958  0.2525
  185SLPC   H3R21262   6.385   6.041   7.198  2.7184 -0.1313 -0.3994
  185SLPC   H3S21263   6.521   5.949   7.283  0.6292  2.4499  2.9065
  185SLPC   C2421264   6.351   5.987   7.396  0.7639 -0.3471  0.7154
  185SLPC   H4R21265   6.364   5.900   7.464 -1.7382 -0.6875  0.8357
  185SLPC   H4S21266   6.244   6.012   7.379  1.7075  4.0487 -0.1437
  185SLPC   C2521267   6.416   6.095   7.474 -0.5888 -0.8117 -0.2214
  185SLPC   H5R21268   6.425   6.189   7.414  2.0856  0.4056  1.8794
  185SLPC   H5S21269   6.513   6.048   7.499 -1.3544 -2.9535 -1.0377
  185SLPC   C2621270   6.355   6.131   7.620  0.1916  0.5737  0.4598
  185SLPC   H6R21271   6.256   6.177   7.600  0.3622  0.6308 -0.2627
  185SLPC   H6S21272   6.436   6.199   7.654  1.1070 -0.0925 -0.3566
  185SLPC   C2721273   6.348   6.006   7.712 -0.4927  0.9371 -0.3551
  185SLPC   H7R21274   6.447   5.956   7.706 -0.1508  1.6014 -0.2713
  185SLPC   H7S21275   6.267   5.936   7.681 -0.9472  0.1227  2.4386
  185SLPC   C2821276   6.332   6.042   7.863  0.3730 -0.2983 -1.0674
  185SLPC   H8R21277   6.236   6.098   7.871  0.6992  0.0256  0.8926
  185SLPC   H8S21278   6.414   6.114   7.883  0.9180 -1.2675  0.3057
  185SLPC   C2921279   6.335   5.923   7.954 -0.5911 -0.6712  0.6306
  185SLPC   H9R21280   6.401   5.840   7.924 -0.6604 -0.2680 -0.7006
  185SLPC  C21021281   6.260   5.894   8.063 -0.4114  0.1061 -0.0179
  185SLPC  H10R21282   6.286   5.806   8.123 -3.3453 -0.6707  0.2765
  185SLPC  C21121283   6.155   5.986   8.122  0.0134 -0.4047  1.0313
  185SLPC  H11R21284   6.054   5.951   8.091 -0.1938  1.9805 -1.4431
  185SLPC  H11S21285   6.169   6.085   8.073  2.4669  0.2854  2.9049
  185SLPC  C21221286   6.149   6.008   8.266  0.1586  0.8059 -0.4756
  185SLPC  H12R21287   6.202   6.101   8.291 -0.9178  1.8694 -2.0064
  185SLPC  C21321288   6.098   5.923   8.359 -0.4169  0.2369 -0.7300
  185SLPC  H13R21289   6.100   5.956   8.464 -1.6141 -1.1438 -0.2267
  185SLPC  C21421290   6.031   5.794   8.327  0.4289 -0.4256 -0.9560
  185SLPC  H14R21291   6.094   5.714   8.369  0.4976 -0.4091 -1.0280
  185SLPC  H14S21292   6.021   5.781   8.218 -0.4734 -1.1253 -0.8017
  185SLPC  C21521293   5.889   5.789   8.396 -0.2047  0.2906  0.1097
  185SLPC  H15R21294   5.833   5.881   8.369  0.5918  0.8963  0.4899
  185SLPC  H15S21295   5.891   5.795   8.507  0.5045  0.5695  0.0879
  185SLPC  C21621296   5.813   5.661   8.354 -0.5833 -0.6187 -0.5382
  185SLPC  H16R21297   5.870   5.576   8.398 -0.0204 -1.4007 -2.6663
  185SLPC  H16S21298   5.813   5.656   8.243  2.3644 -2.5650 -0.5612
  185SLPC  C21721299   5.668   5.647   8.396  0.0474 -0.4211  0.5234
  185SLPC  H17R21300   5.628   5.551   8.356 -1.2208  0.6105 -0.8114
  185SLPC  H17S21301   5.620   5.733   8.345  1.1450  0.4884  0.9698
  185SLPC  C21821302   5.636   5.670   8.545 -0.2702 -0.3262  0.4375
  185SLPC  H18R21303   5.532   5.638   8.566 -0.7706  1.0853  0.2250
  185SLPC  H18S21304   5.653   5.780   8.553  2.0639 -0.5888 -0.0384
  185SLPC  H18T21305   5.709   5.623   8.615  1.2988  1.6803  0.2474
  185SLPC   C3321306   5.671   5.521   7.418 -0.6299  0.1800 -0.3170
  185SLPC   H3X21307   5.611   5.443   7.366  0.0595 -0.6958  0.1771
  185SLPC   H3Y21308   5.635   5.621   7.386  2.0287  0.8547 -1.4572
  185SLPC   C3421309   5.655   5.511   7.572 -0.0239  0.0749  0.0167
  185SLPC   H4X21310   5.553   5.548   7.599  0.1001  1.0636 -0.7600
  185SLPC   H4Y21311   5.731   5.571   7.627  0.3453 -1.2372  0.9660
  185SLPC   C3521312   5.685   5.374   7.635  0.9052  0.5835  0.6500
  185SLPC   H5X21313   5.782   5.332   7.600  0.1964  0.9126 -1.9381
  185SLPC   H5Y21314   5.620   5.294   7.592 -0.3726  2.0424 -0.2169
  185SLPC   C3621315   5.675   5.370   7.786  0.8437  0.5359 -0.5030
  185SLPC   H6X21316   5.734   5.455   7.826 -1.3389  1.8823  0.0079
  185SLPC   H6Y21317   5.732   5.279   7.813  1.0838 -0.5431 -4.1409
  185SLPC   C3721318   5.538   5.369   7.842 -0.2477 -0.0812  0.0368
  185SLPC   H7X21319   5.486   5.276   7.810 -1.2393  1.2610 -2.5803
  185SLPC   H7Y21320   5.479   5.450   7.794 -0.4037  0.1526  0.6203
  185SLPC   C3821321   5.535   5.383   7.998  0.2590  0.0633  0.2485
  185SLPC   H8X21322   5.604   5.463   8.031  1.0793  1.2687 -3.7753
  185SLPC   H8Y21323   5.547   5.276   8.026 -0.8526 -0.1165  0.0984
  185SLPC   C3921324   5.395   5.432   8.050 -0.1357  0.6217  0.5381
  185SLPC   H9X21325   5.317   5.363   8.010  1.6181 -0.5596 -1.0296
  185SLPC   H9Y21326   5.369   5.530   8.006 -2.4693  0.2791  0.9896
  185SLPC  C31021327   5.387   5.434   8.199  0.4730 -0.0082  0.2342
  185SLPC  H10X21328   5.446   5.518   8.242  1.6613 -1.7752  2.2425
  185SLPC  H10Y21329   5.425   5.335   8.233  1.1026  0.0917 -0.1751
  185SLPC  C31121330   5.251   5.455   8.253 -0.3153 -0.0507 -0.3050
  185SLPC  H11X21331   5.177   5.431   8.174 -0.8822  0.7043 -0.0188
  185SLPC  H11Y21332   5.224   5.557   8.288 -0.1767  0.1175 -0.6907
  185SLPC  C31221333   5.217   5.353   8.370 -0.0174  0.1667  0.2233
  185SLPC  H12X21334   5.235   5.249   8.334  4.4774  0.4073  1.2257
  185SLPC  H12Y21335   5.113   5.360   8.410  0.0228  1.1419  0.1727
  185SLPC  C31321336   5.321   5.365   8.488  0.2774  1.3099  0.0332
  185SLPC  H13X21337   5.333   5.472   8.515  0.4267  1.3836 -0.3263
  185SLPC  H13Y21338   5.421   5.322   8.465  0.3633 -0.4740  3.1614
  185SLPC  C31421339   5.275   5.292   8.613  0.2481 -0.4276 -0.3585
  185SLPC  H14X21340   5.291   5.182   8.606 -0.8337 -0.6464  0.3631
  185SLPC  H14Y21341   5.166   5.304   8.628  0.4444  0.8152  0.2687
  185SLPC  C31521342   5.346   5.357   8.736  0.1810  0.2125  0.2881
  185SLPC  H15X21343   5.309   5.461   8.751  2.0773  0.7889  1.2538
  185SLPC  H15Y21344   5.453   5.366   8.710  0.1785  0.3055  0.3076
  185SLPC  C31621345   5.327   5.293   8.877  0.4410 -0.2445  1.1707
  185SLPC  H16X21346   5.220   5.278   8.904  0.0166 -1.4932 -0.9646
  185SLPC  H16Y21347   5.381   5.359   8.949  3.6304  1.5444 -2.4828
  185SLPC  C31721348   5.391   5.147   8.882 -0.3948 -0.4506  0.1392
  185SLPC  H17X21349   5.497   5.162   8.853  0.0434 -1.4566  1.0940
  185SLPC  H17Y21350   5.355   5.074   8.806  1.7235  1.1752 -2.6136
  185SLPC  C31821351   5.378   5.077   9.019  0.4285  0.5162  0.5488
  185SLPC  H18X21352   5.270   5.074   9.043  0.3681  0.1602  0.2310
  185SLPC  H18Y21353   5.427   5.135   9.101  0.0824  0.9576  0.4482
  185SLPC  H18Z21354   5.418   4.974   9.026  1.3363  0.8814  1.0358
  186SLPC     N21355   2.187   0.669   5.841 -0.4443 -0.3761  0.0596
  186SLPC   C1321356   2.086   0.564   5.829  0.1257 -0.1840 -0.3373
  186SLPC  H13A21357   2.075   0.508   5.921 -3.3034  0.2681 -0.3609
  186SLPC  H13B21358   1.985   0.600   5.815  0.0606 -0.4505 -0.5550
  186SLPC  H13C21359   2.109   0.498   5.746  0.4074 -0.6395  0.0939
  186SLPC   C1421360   2.203   0.745   5.713  0.4704 -0.2739  0.3820
  186SLPC  H14A21361   2.227   0.677   5.632 -0.2222 -0.0335 -0.0432
  186SLPC  H14B21362   2.112   0.793   5.680  1.1257 -0.0081 -1.1191
  186SLPC  H14C21363   2.277   0.822   5.728 -1.0387  0.7442  3.3670
  186SLPC   C1521364   2.319   0.601   5.866 -0.0896 -0.2822 -0.6023
  186SLPC  H15A21365   2.326   0.559   5.965  0.4458  2.5204  0.6353
  186SLPC  H15B21366   2.345   0.538   5.782  2.9240 -0.1826  0.1271
  186SLPC  H15C21367   2.397   0.675   5.878  0.1163 -0.2767 -1.8539
  186SLPC   C1221368   2.162   0.758   5.965  0.1419 -0.3925  0.7135
  186SLPC  H12A21369   2.078   0.823   5.948 -0.7972 -1.4294  1.2426
  186SLPC  H12B21370   2.248   0.823   5.971 -0.8979  0.9722  1.2350
  186SLPC   C1121371   2.135   0.685   6.092  0.4242  0.4575  0.3875
  186SLPC  H11A21372   2.036   0.636   6.089  1.9452 -2.8038 -0.5335
  186SLPC  H11B21373   2.132   0.768   6.167  2.6736 -0.5029  1.6313
  186SLPC     P21374   2.217   0.469   6.217 -0.4038  0.7704  0.0902
  186SLPC   O1321375   2.146   0.374   6.130 -0.2462  0.0764  0.0956
  186SLPC   O1421376   2.343   0.425   6.280 -0.1517 -0.1455 -0.7439
  186SLPC   O1221377   2.243   0.600   6.131 -0.6924  0.2411 -0.5226
  186SLPC   O1121378   2.124   0.526   6.328  0.3513  0.6931 -0.1206
  186SLPC    C121379   2.176   0.620   6.426 -0.0508  0.1688  0.5906
  186SLPC    HA21380   2.265   0.679   6.395  0.0233  1.1004  2.4159
  186SLPC    HB21381   2.101   0.699   6.447  0.4975  0.3986  1.7328
  186SLPC    C221382   2.205   0.568   6.571  0.1196 -0.3923  0.3036
  186SLPC    HS21383   2.285   0.492   6.558  0.8068  0.2567  0.6363
  186SLPC   O2121384   2.090   0.512   6.629  0.7173  0.0036 -0.3891
  186SLPC   C2121385   2.111   0.409   6.715  0.2243  0.2518 -0.4635
  186SLPC   O2221386   2.213   0.344   6.723 -0.0919  0.3424  0.5053
  186SLPC   C2221387   1.984   0.382   6.801 -0.3285 -0.8264  0.3472
  186SLPC   H2R21388   1.893   0.396   6.737 -0.5143 -0.0755  0.7553
  186SLPC   H2S21389   1.981   0.281   6.846  0.3531 -1.0384 -0.0785
  186SLPC    C321390   2.265   0.693   6.642  0.1597  0.4990 -0.7655
  186SLPC    HX21391   2.185   0.769   6.653 -0.8801 -0.1530 -3.0885
  186SLPC    HY21392   2.347   0.731   6.578  1.0595  1.8800  1.1149
  186SLPC   O3121393   2.316   0.657   6.774  0.0843  0.3531 -0.1344
  186SLPC   C3121394   2.436   0.591   6.788  0.5410 -0.0018 -0.0998
  186SLPC   O3221395   2.511   0.579   6.694 -0.0249 -0.4413  0.0626
  186SLPC   C3221396   2.447   0.524   6.929 -0.4831 -0.4511  0.2675
  186SLPC   H2X21397   2.554   0.492   6.936 -0.0425  1.1810  1.5189
  186SLPC   H2Y21398   2.393   0.427   6.925 -3.4502  0.9945  1.8855
  186SLPC   C2321399   1.975   0.480   6.925  0.3756  0.6069  0.4167
  186SLPC   H3R21400   1.869   0.471   6.959  0.0211  0.1374 -0.7586
  186SLPC   H3S21401   1.991   0.587   6.901  2.2969  0.2472 -0.0846
  186SLPC   C2421402   2.059   0.436   7.042 -0.3460 -0.2705  0.6889
  186SLPC   H4R21403   2.168   0.457   7.032 -1.1131  3.6668 -1.2453
  186SLPC   H4S21404   2.057   0.330   7.075  0.1404 -1.0557 -1.6630
  186SLPC   C2521405   2.013   0.509   7.170 -0.4602 -0.0672  0.0330
  186SLPC   H5R21406   1.904   0.493   7.187 -0.9747  0.7497 -2.1364
  186SLPC   H5S21407   2.001   0.618   7.149  0.6390 -0.4373 -3.0539
  186SLPC   C2621408   2.089   0.474   7.303 -0.1338 -0.2085  0.9776
  186SLPC   H6R21409   2.195   0.473   7.268 -0.6560 -0.6145 -0.7237
  186SLPC   H6S21410   2.060   0.375   7.345 -1.6029  0.4750  1.6514
  186SLPC   C2721411   2.075   0.577   7.410  0.2706 -0.3851 -0.1392
  186SLPC   H7R21412   1.967   0.598   7.422  0.8323  3.8075 -0.8512
  186SLPC   H7S21413   2.108   0.678   7.377  0.8582 -0.9865 -1.4939
  186SLPC   C2821414   2.127   0.538   7.548  0.1598 -0.1048  0.0126
  186SLPC   H8R21415   2.089   0.436   7.573  1.7586 -0.9987 -1.0197
  186SLPC   H8S21416   2.077   0.592   7.630  1.1840 -1.6532  1.7287
  186SLPC   C2921417   2.272   0.536   7.564  0.7074 -0.0021 -0.1212
  186SLPC   H9R21418   2.327   0.487   7.482  1.1464 -0.8348  0.6438
  186SLPC  C21021419   2.339   0.578   7.676 -0.2815  1.3527 -0.5344
  186SLPC  H10R21420   2.446   0.574   7.651 -0.8248  1.6030 -3.2628
  186SLPC  C21121421   2.281   0.628   7.809  0.6841 -0.2324  0.0727
  186SLPC  H11R21422   2.247   0.535   7.860  1.0676 -0.8696 -0.8062
  186SLPC  H11S21423   2.193   0.694   7.789  0.7861  0.2437  1.1519
  186SLPC  C21221424   2.378   0.695   7.904 -0.1434  0.3080  0.3195
  186SLPC  H12R21425   2.483   0.698   7.871 -0.0357  1.1560  0.7314
  186SLPC  C21321426   2.348   0.736   8.031 -0.6994  0.2575  0.0543
  186SLPC  H13R21427   2.430   0.785   8.086  2.5280 -1.4290 -2.8820
  186SLPC  C21421428   2.212   0.728   8.087  0.7093  0.1643  0.0094
  186SLPC  H14R21429   2.128   0.699   8.020  0.0335  1.0943  0.4321
  186SLPC  H14S21430   2.169   0.824   8.122 -3.5698 -1.0880 -1.1531
  186SLPC  C21521431   2.210   0.616   8.192 -0.3185 -0.9229 -0.3780
  186SLPC  H15R21432   2.247   0.519   8.152  1.2455 -0.9739  1.0307
  186SLPC  H15S21433   2.103   0.610   8.221 -1.5735  0.5330 -4.1426
  186SLPC  C21621434   2.277   0.656   8.323 -1.0206 -0.8332  1.0618
  186SLPC  H16R21435   2.261   0.766   8.330  0.6488 -0.4924  0.0432
  186SLPC  H16S21436   2.385   0.633   8.330 -0.6926 -0.2162 -1.2511
  186SLPC  C21721437   2.209   0.601   8.438 -0.0888  0.7331  0.3694
  186SLPC  H17R21438   2.181   0.498   8.407  2.1901  0.3935 -0.7407
  186SLPC  H17S21439   2.119   0.661   8.465 -0.7852  0.4877 -1.3209
  186SLPC  C21821440   2.290   0.579   8.571  0.6674 -0.1818  0.2792
  186SLPC  H18R21441   2.222   0.534   8.645  0.7256 -0.0847  0.3926
  186SLPC  H18S21442   2.320   0.677   8.616 -0.5327  0.7693 -0.9195
  186SLPC  H18T21443   2.367   0.501   8.554  1.0012 -0.2032  1.7284
  186SLPC   C3321444   2.424   0.619   7.049  0.3286 -0.1004 -0.4005
  186SLPC   H3X21445   2.315   0.636   7.064  0.3088 -0.1079 -0.5334
  186SLPC   H3Y21446   2.468   0.719   7.028 -1.4455  1.4306  2.5123
  186SLPC   C3421447   2.490   0.553   7.170 -0.7346 -0.0034 -0.5464
  186SLPC   H4X21448   2.592   0.517   7.145  0.3322 -0.3271  3.5702
  186SLPC   H4Y21449   2.425   0.467   7.200  0.9269 -1.5174 -1.0938
  186SLPC   C3521450   2.502   0.650   7.289 -0.7185 -0.3918 -0.1287
  186SLPC   H5X21451   2.399   0.669   7.326 -0.6870 -2.2688  1.0142
  186SLPC   H5Y21452   2.553   0.739   7.247 -1.1820 -0.3470 -0.6079
  186SLPC   C3621453   2.593   0.599   7.405  0.7126 -0.7954 -1.1274
  186SLPC   H6X21454   2.567   0.497   7.440  3.0422 -1.0416  0.0804
  186SLPC   H6Y21455   2.580   0.674   7.486 -0.0990 -0.5050 -1.5148
  186SLPC   C3721456   2.743   0.605   7.382 -0.3231 -0.0382  0.1357
  186SLPC   H7X21457   2.766   0.712   7.363 -0.1322  0.1582  1.4008
  186SLPC   H7Y21458   2.773   0.550   7.290  1.6847 -0.7882  1.1991
  186SLPC   C3821459   2.829   0.543   7.492 -0.0884 -1.0201 -0.4654
  186SLPC   H8X21460   2.936   0.544   7.463 -0.1954 -1.2672 -0.8910
  186SLPC   H8Y21461   2.809   0.435   7.510 -1.3368 -0.5574  1.1886
  186SLPC   C3921462   2.820   0.612   7.629 -0.0196  0.5997  0.1735
  186SLPC   H9X21463   2.715   0.606   7.665  0.1160 -4.1320  0.4663
  186SLPC   H9Y21464   2.854   0.717   7.634  1.3506  0.2128 -0.3477
  186SLPC  C31021465   2.910   0.545   7.733 -0.2998  0.3848 -0.5801
  186SLPC  H10X21466   3.017   0.553   7.704  0.5822  1.6571  2.5618
  186SLPC  H10Y21467   2.892   0.441   7.769  1.3201  0.4631  0.5408
  186SLPC  C31121468   2.910   0.625   7.869 -0.1403  0.6169  0.1157
  186SLPC  H11X21469   2.812   0.646   7.916 -1.3283 -2.6946 -0.5795
  186SLPC  H11Y21470   2.956   0.723   7.845  1.0327  0.7943  2.6879
  186SLPC  C31221471   2.990   0.557   7.983 -0.2564  0.4832 -0.1396
  186SLPC  H12X21472   3.093   0.547   7.942 -0.0353 -0.5377  0.6370
  186SLPC  H12Y21473   2.949   0.457   8.006  0.5510  0.3234  0.6542
  186SLPC  C31321474   3.018   0.649   8.108 -0.2756 -0.1499  0.7263
  186SLPC  H13X21475   3.034   0.750   8.064  1.7715  0.0965  1.9080
  186SLPC  H13Y21476   3.104   0.608   8.164  0.6569 -0.0125 -0.5542
  186SLPC  C31421477   2.900   0.659   8.206 -0.0042  0.3450  0.8158
  186SLPC  H14X21478   2.801   0.686   8.163  0.0083 -1.3972 -0.4268
  186SLPC  H14Y21479   2.931   0.744   8.270 -0.2819  1.2248 -0.1833
  186SLPC  C31521480   2.877   0.533   8.285 -0.3370 -1.0009 -0.1876
  186SLPC  H15X21481   2.968   0.535   8.349 -1.4175  1.4049  1.4156
  186SLPC  H15Y21482   2.881   0.442   8.221  1.5134 -1.5943  0.6921
  186SLPC  C31621483   2.763   0.537   8.387 -0.3871 -0.1100 -0.7467
  186SLPC  H16X21484   2.672   0.513   8.328 -0.0198  0.4520 -1.5546
  186SLPC  H16Y21485   2.740   0.639   8.424 -0.9129 -0.4063 -0.2403
  186SLPC  C31721486   2.794   0.462   8.515  0.4892  0.2748  0.0874
  186SLPC  H17X21487   2.876   0.512   8.572 -0.3723  0.9059  0.8108
  186SLPC  H17Y21488   2.838   0.365   8.486 -1.0192 -0.6378  0.7298
  186SLPC  C31821489   2.670   0.458   8.597  0.3903  0.1468 -0.8391
  186SLPC  H18X21490   2.584   0.433   8.531 -2.0825 -0.4157  2.3493
  186SLPC  H18Y21491   2.657   0.556   8.647  2.5842  0.2294 -0.3240
  186SLPC  H18Z21492   2.678   0.381   8.677 -0.4428  0.2614 -0.6296
  187SLPC     N21493   2.391   3.761   6.141  0.0695 -0.4962  0.1056
  187SLPC   C1321494   2.398   3.862   6.025  0.4565  0.0610  0.2314
  187SLPC  H13A21495   2.360   3.960   6.049  0.2238  0.2930 -0.9804
  187SLPC  H13B21496   2.500   3.883   5.994  1.3428 -1.6454  1.8155
  187SLPC  H13C21497   2.338   3.832   5.940  0.1679 -0.0255  0.4651
  187SLPC   C1421498   2.461   3.828   6.254 -0.4547 -0.3443  0.3395
  187SLPC  H14A21499   2.393   3.896   6.304  0.7188  0.3552  1.0159
  187SLPC  H14B21500   2.482   3.749   6.325 -1.5012 -2.8576 -1.9611
  187SLPC  H14C21501   2.547   3.885   6.226 -0.1105  0.0982  2.1370
  187SLPC   C1521502   2.468   3.640   6.101 -0.0089 -0.8317 -0.5717
  187SLPC  H15A21503   2.505   3.586   6.188 -1.0116  2.9205  2.4400
  187SLPC  H15B21504   2.415   3.567   6.041  0.2110 -0.8313 -0.7680
  187SLPC  H15C21505   2.551   3.675   6.042  0.4228  0.7998  0.9119
  187SLPC   C1221506   2.251   3.731   6.182 -0.2225  0.1737  0.5192
  187SLPC  H12A21507   2.264   3.663   6.265 -0.4171 -0.1305  0.3060
  187SLPC  H12B21508   2.206   3.678   6.099  1.0771 -0.7641  0.3845
  187SLPC   C1121509   2.167   3.851   6.221  0.7150  0.1552 -0.1583
  187SLPC  H11A21510   2.063   3.814   6.231  1.0675 -0.2481  4.4446
  187SLPC  H11B21511   2.167   3.934   6.147 -0.1561  0.4832  0.2025
  187SLPC     P21512   2.124   4.021   6.416  0.0139 -0.1750  0.1829
  187SLPC   O1321513   2.203   4.065   6.534  0.0470  0.0988 -0.0701
  187SLPC   O1421514   2.078   4.123   6.323  0.1856  0.0888  1.1460
  187SLPC   O1221515   2.201   3.904   6.348 -0.6822  0.2960  0.6756
  187SLPC   O1121516   1.995   3.942   6.464  0.3841  0.0707  0.5440
  187SLPC    C121517   1.992   3.811   6.521  0.0304  0.2475  0.2127
  187SLPC    HA21518   1.924   3.754   6.455  1.1327  0.6772 -1.3509
  187SLPC    HB21519   2.089   3.756   6.519 -0.9994 -1.6388 -0.6866
  187SLPC    C221520   1.968   3.799   6.673 -0.2601 -0.0483 -0.4140
  187SLPC    HS21521   1.932   3.694   6.686  0.2926 -0.1330  0.5072
  187SLPC   O2121522   1.868   3.885   6.726  0.0703  0.1456  0.7125
  187SLPC   C2121523   1.806   3.848   6.839  0.1946 -0.0112 -0.6507
  187SLPC   O2221524   1.800   3.737   6.887 -0.6873 -0.3237 -0.3307
  187SLPC   C2221525   1.737   3.965   6.907  0.4149 -0.3526  0.0697
  187SLPC   H2R21526   1.780   4.059   6.867 -0.0273 -1.1265 -2.4175
  187SLPC   H2S21527   1.629   3.957   6.884  0.2768  1.8320 -0.2123
  187SLPC    C321528   2.099   3.821   6.753  0.5991 -0.6337  0.6261
  187SLPC    HX21529   2.144   3.920   6.729  0.3261 -0.7937 -0.6674
  187SLPC    HY21530   2.171   3.758   6.696  0.7874  1.0261 -1.1034
  187SLPC   O3121531   2.089   3.793   6.892 -0.1327 -0.1156  0.5543
  187SLPC   C3121532   2.091   3.661   6.925  0.1400 -0.2802  0.0956
  187SLPC   O3221533   2.118   3.570   6.851  0.4458 -0.6711  0.4090
  187SLPC   C3221534   2.057   3.637   7.078 -0.6955  0.2232 -0.1154
  187SLPC   H2X21535   1.946   3.640   7.077 -0.6765  2.2770 -0.7387
  187SLPC   H2Y21536   2.090   3.722   7.141 -0.1817 -1.1522  1.5287
  187SLPC   C2321537   1.772   3.950   7.057  0.0122  0.7595  0.0368
  187SLPC   H3R21538   1.880   3.934   7.077 -0.2892 -1.7428  0.0067
  187SLPC   H3S21539   1.722   3.862   7.103 -1.6753  1.6263 -0.0468
  187SLPC   C2421540   1.725   4.079   7.131  0.6774  0.0473  0.1786
  187SLPC   H4R21541   1.617   4.100   7.111  0.8640  0.4942 -0.3701
  187SLPC   H4S21542   1.774   4.166   7.082 -0.3644 -0.1856 -1.3641
  187SLPC   C2521543   1.741   4.079   7.284  0.0464 -0.0878 -0.0090
  187SLPC   H5R21544   1.848   4.053   7.299 -0.2153 -0.6007  1.0312
  187SLPC   H5S21545   1.682   3.999   7.334  1.2918 -0.2145  1.3216
  187SLPC   C2621546   1.700   4.208   7.354  0.6217 -0.4124 -0.2403
  187SLPC   H6R21547   1.589   4.217   7.354  0.6088 -0.1233  1.4164
  187SLPC   H6S21548   1.731   4.296   7.295 -0.5314  2.0888  2.5822
  187SLPC   C2721549   1.758   4.221   7.498 -0.1247  0.4320  0.9516
  187SLPC   H7R21550   1.866   4.246   7.486  0.2405 -1.8730 -1.4462
  187SLPC   H7S21551   1.762   4.121   7.545 -1.2702 -0.1856 -0.2334
  187SLPC   C2821552   1.691   4.321   7.587  0.2893  0.0777 -0.1473
  187SLPC   H8R21553   1.693   4.421   7.540  0.8610 -0.2047 -0.7415
  187SLPC   H8S21554   1.753   4.328   7.679  1.6793  0.8687 -1.1203
  187SLPC   C2921555   1.546   4.289   7.614  0.4032 -0.5400 -0.0404
  187SLPC   H9R21556   1.480   4.275   7.528 -0.0540 -3.7285  0.7160
  187SLPC  C21021557   1.489   4.281   7.743  0.8099 -0.1150 -0.5144
  187SLPC  H10R21558   1.382   4.257   7.747  0.9311 -0.5961 -0.0307
  187SLPC  C21121559   1.564   4.298   7.879  0.0429 -0.2525  0.1446
  187SLPC  H11R21560   1.490   4.306   7.962  1.2749  3.6651  1.0688
  187SLPC  H11S21561   1.600   4.402   7.870 -0.7287  0.0487  0.4510
  187SLPC  C21221562   1.662   4.184   7.893 -0.1741 -0.2308 -0.0467
  187SLPC  H12R21563   1.625   4.084   7.865 -2.9274  1.3943 -2.7159
  187SLPC  C21321564   1.795   4.206   7.933 -0.6371  0.4922 -1.6737
  187SLPC  H13R21565   1.859   4.120   7.960  2.4817  1.5436 -4.9874
  187SLPC  C21421566   1.855   4.335   7.980  0.2045 -0.3056 -0.0494
  187SLPC  H14R21567   1.805   4.429   7.948 -0.6660 -0.4469  0.8463
  187SLPC  H14S21568   1.948   4.341   7.920 -0.9491  0.3010 -1.9030
  187SLPC  C21521569   1.876   4.353   8.130  0.0466  1.0684  0.0805
  187SLPC  H15R21570   1.934   4.272   8.179 -2.0614  0.1939  1.2804
  187SLPC  H15S21571   1.781   4.353   8.187 -0.3818  0.4099 -0.6096
  187SLPC  C21621572   1.952   4.486   8.155  0.5229  0.7416 -0.2904
  187SLPC  H16R21573   1.934   4.499   8.263  0.8999 -1.6085  0.1016
  187SLPC  H16S21574   1.915   4.569   8.091  0.6497  0.2373 -1.0327
  187SLPC  C21721575   2.105   4.474   8.141 -0.0681  0.1163  0.1127
  187SLPC  H17R21576   2.123   4.432   8.039 -2.2941  0.4059 -0.4504
  187SLPC  H17S21577   2.134   4.397   8.215  1.7625 -0.4067 -1.0841
  187SLPC  C21821578   2.192   4.594   8.174 -0.0836  0.3221 -0.4326
  187SLPC  H18R21579   2.161   4.681   8.111 -2.8654 -0.3710 -0.1416
  187SLPC  H18S21580   2.298   4.570   8.153  0.8668  1.9918  2.0163
  187SLPC  H18T21581   2.166   4.635   8.274 -1.0503  1.2518 -1.0321
  187SLPC   C3321582   2.106   3.504   7.135  0.1042  0.5910  0.9171
  187SLPC   H3X21583   2.217   3.504   7.138  0.0954  1.0444  1.4082
  187SLPC   H3Y21584   2.075   3.426   7.062 -1.3684  2.4069 -0.4928
  187SLPC   C3421585   2.048   3.464   7.272  0.0955  0.5800  0.6811
  187SLPC   H4X21586   2.008   3.363   7.252 -0.7222  1.1328 -0.5576
  187SLPC   H4Y21587   1.961   3.528   7.299 -0.9034  0.1924 -1.4166
  187SLPC   C3521588   2.145   3.462   7.391  0.1143 -0.1804 -1.0956
  187SLPC   H5X21589   2.199   3.559   7.389 -0.2414  0.1653  1.9068
  187SLPC   H5Y21590   2.225   3.391   7.362  0.1022 -0.0786 -1.3815
  187SLPC   C3621591   2.092   3.448   7.533  0.0973 -0.6055 -0.0573
  187SLPC   H6X21592   2.034   3.354   7.542 -1.2220  0.1980  0.1299
  187SLPC   H6Y21593   2.021   3.533   7.542  0.0080 -0.4252 -2.0612
  187SLPC   C3721594   2.187   3.453   7.653  0.0845  0.1778 -0.0062
  187SLPC   H7X21595   2.260   3.369   7.655  0.1827  0.2261  2.9150
  187SLPC   H7Y21596   2.244   3.549   7.651 -0.2753  0.6839  4.0654
  187SLPC   C3821597   2.119   3.436   7.787  0.2597 -0.1950  0.3923
  187SLPC   H8X21598   2.029   3.371   7.781  0.0594  0.2271 -1.8708
  187SLPC   H8Y21599   2.088   3.536   7.825  0.9334  0.7156 -1.3757
  187SLPC   C3921600   2.205   3.373   7.892  0.4343  0.6705 -0.1174
  187SLPC   H9X21601   2.284   3.449   7.910 -1.0405  2.1397  0.4842
  187SLPC   H9Y21602   2.255   3.280   7.859  1.4316  0.1369  2.6512
  187SLPC  C31021603   2.134   3.341   8.024  0.2668  0.1126 -1.0655
  187SLPC  H10X21604   2.094   3.238   8.028  2.4890 -0.7675  0.9968
  187SLPC  H10Y21605   2.042   3.403   8.032 -1.1913 -1.8309 -1.9879
  187SLPC  C31121606   2.215   3.363   8.159  0.1800  0.5473  0.5826
  187SLPC  H11X21607   2.148   3.348   8.246 -0.2037  1.1542  0.4010
  187SLPC  H11Y21608   2.257   3.466   8.163  2.1649 -0.2654  1.7546
  187SLPC  C31221609   2.316   3.254   8.175  0.0790  0.2564  0.9703
  187SLPC  H12X21610   2.393   3.251   8.096  1.1072  0.1998  1.9430
  187SLPC  H12Y21611   2.263   3.157   8.168  0.6152 -0.0970  1.6441
  187SLPC  C31321612   2.390   3.250   8.307 -0.2228 -0.7018 -0.5577
  187SLPC  H13X21613   2.321   3.281   8.389 -2.4028 -0.8807 -2.2437
  187SLPC  H13Y21614   2.464   3.331   8.292  1.2200 -2.2148 -1.8382
  187SLPC  C31421615   2.451   3.113   8.343 -0.1870 -0.5032  0.4215
  187SLPC  H14X21616   2.494   3.060   8.254 -1.8886 -1.4398  0.1160
  187SLPC  H14Y21617   2.378   3.041   8.385 -0.8764  1.1366  2.1712
  187SLPC  C31521618   2.550   3.107   8.461 -0.3646 -0.2010  0.3651
  187SLPC  H15X21619   2.572   3.001   8.483 -2.4213 -0.3979  1.7871
  187SLPC  H15Y21620   2.502   3.144   8.554 -0.3615  1.2943 -0.1879
  187SLPC  C31621621   2.677   3.190   8.434 -0.2720  0.0436 -0.2531
  187SLPC  H16X21622   2.656   3.299   8.428  0.7421  0.2101 -1.2925
  187SLPC  H16Y21623   2.722   3.166   8.335  0.7830 -0.1270  0.2527
  187SLPC  C31721624   2.795   3.178   8.531  0.2880  0.4271 -0.1079
  187SLPC  H17X21625   2.794   3.072   8.565 -0.0541  0.6631  0.6373
  187SLPC  H17Y21626   2.775   3.228   8.628 -1.4581  0.1272 -0.2861
  187SLPC  C31821627   2.933   3.205   8.467  0.1621 -0.2157 -0.5669
  187SLPC  H18X21628   2.935   3.168   8.362  0.6729 -2.4092  0.1764
  187SLPC  H18Y21629   3.018   3.167   8.527  0.6054  2.0348  0.3264
  187SLPC  H18Z21630   2.946   3.315   8.467  0.8091 -0.2853  0.5682
  188SLPC     N21631   1.943   5.955   5.966  0.6066  0.4197 -0.3580
  188SLPC   C1321632   1.872   5.890   5.844 -0.3805  0.5266  0.2078
  188SLPC  H13A21633   1.892   5.784   5.859  0.2426  0.6209  0.0463
  188SLPC  H13B21634   1.766   5.907   5.850 -0.2379  0.9102  4.5113
  188SLPC  H13C21635   1.908   5.921   5.747  0.7617  0.5994  0.6365
  188SLPC   C1421636   1.920   6.100   5.962  0.2152  0.2017  1.1601
  188SLPC  H14A21637   1.949   6.152   6.053  0.6067  2.0015  0.0495
  188SLPC  H14B21638   1.970   6.147   5.879 -2.1309 -1.2991 -1.2467
  188SLPC  H14C21639   1.817   6.123   5.940  0.4980  0.5333  0.1410
  188SLPC   C1521640   2.084   5.916   5.950 -0.1165  0.6274 -1.0521
  188SLPC  H15A21641   2.141   5.956   5.867 -1.0829 -1.2553 -2.7179
  188SLPC  H15B21642   2.129   5.943   6.044 -0.7918 -0.2164 -0.4688
  188SLPC  H15C21643   2.098   5.809   5.953 -1.7763  0.3797 -1.1063
  188SLPC   C1221644   1.890   5.900   6.094  0.2470 -0.8789  0.2771
  188SLPC  H12A21645   1.876   5.793   6.098 -0.9282 -0.7158  1.6788
  188SLPC  H12B21646   1.783   5.914   6.101 -0.4632 -3.4936 -3.1153
  188SLPC   C1121647   1.955   5.954   6.227 -0.1183  0.6693  0.1341
  188SLPC  H11A21648   1.903   5.910   6.316  0.4917 -0.0012  0.1649
  188SLPC  H11B21649   1.953   6.065   6.229  0.0619  0.6688  0.5114
  188SLPC     P21650   2.134   5.770   6.286  0.1588 -0.2551  0.2668
  188SLPC   O1321651   2.032   5.663   6.255  0.2238 -0.3374  1.0132
  188SLPC   O1421652   2.270   5.737   6.236  0.0897 -0.1027  0.5314
  188SLPC   O1221653   2.093   5.911   6.229  0.0194 -0.1343 -0.0264
  188SLPC   O1121654   2.139   5.799   6.433 -0.1538  0.3483  0.0029
  188SLPC    C121655   2.201   5.913   6.489 -0.0405 -1.0407 -0.7149
  188SLPC    HA21656   2.311   5.899   6.497  0.4420  1.6155 -1.5642
  188SLPC    HB21657   2.190   6.011   6.437  0.1773  0.6923  2.2349
  188SLPC    C221658   2.157   5.950   6.634 -0.1527  0.5691  0.0912
  188SLPC    HS21659   2.221   6.039   6.652 -2.1891  1.8880  1.1767
  188SLPC   O2121660   2.181   5.842   6.729 -0.0735 -0.2411  0.0140
  188SLPC   C2121661   2.235   5.874   6.846 -0.3705  0.2424  0.5478
  188SLPC   O2221662   2.259   5.985   6.881 -0.0918 -0.4705  0.4343
  188SLPC   C2221663   2.315   5.747   6.888 -0.2108  0.0135  0.1999
  188SLPC   H2R21664   2.328   5.685   6.797  0.0320 -1.9376  1.5026
  188SLPC   H2S21665   2.415   5.780   6.926 -0.7337  0.3307  1.3433
  188SLPC    C321666   2.007   6.011   6.643 -0.5387  0.1587 -0.1810
  188SLPC    HX21667   1.937   5.929   6.615 -0.0474 -0.2106 -0.3331
  188SLPC    HY21668   2.008   6.086   6.561 -0.0054 -0.7618 -1.0355
  188SLPC   O3121669   1.981   6.075   6.768 -0.1850  0.3680 -0.5684
  188SLPC   C3121670   1.942   5.996   6.873  0.1951 -0.0904  0.4596
  188SLPC   O3221671   1.950   5.876   6.864  0.7034  0.0493 -0.5415
  188SLPC   C3221672   1.907   6.073   6.999 -0.0566 -0.1406  0.0408
  188SLPC   H2X21673   1.816   6.133   6.975  1.2399  1.3104 -1.4283
  188SLPC   H2Y21674   1.981   6.155   7.007 -1.9585  1.5099  2.4315
  188SLPC   C2321675   2.237   5.678   6.998 -0.3255 -0.2114 -0.5325
  188SLPC   H3R21676   2.244   5.567   7.002 -0.6636 -0.2802 -1.5771
  188SLPC   H3S21677   2.131   5.695   6.971 -1.1955  0.0774  2.6324
  188SLPC   C2421678   2.252   5.732   7.142  0.1507 -0.6635 -0.4070
  188SLPC   H4R21679   2.222   5.839   7.144 -1.8975 -1.1907  1.8025
  188SLPC   H4S21680   2.360   5.729   7.168 -0.4014  0.7486  2.3658
  188SLPC   C2521681   2.154   5.668   7.240 -0.6563  0.6275  0.3455
  188SLPC   H5R21682   2.164   5.558   7.229 -0.3286  0.7942 -1.1359
  188SLPC   H5S21683   2.047   5.684   7.214 -0.9252 -0.9588  0.3850
  188SLPC   C2621684   2.192   5.695   7.387  0.6904  0.7488 -0.0478
  188SLPC   H6R21685   2.296   5.660   7.407  0.5241 -0.2847 -0.8885
  188SLPC   H6S21686   2.117   5.638   7.445 -0.8812  0.1395 -2.4933
  188SLPC   C2721687   2.173   5.844   7.425  0.3115 -0.0998 -0.1904
  188SLPC   H7R21688   2.085   5.895   7.381  0.6193  1.7417  1.2274
  188SLPC   H7S21689   2.257   5.904   7.383  0.1335  1.5509  1.6743
  188SLPC   C2821690   2.173   5.878   7.579  0.1303 -0.0818  0.4726
  188SLPC   H8R21691   2.097   5.812   7.626 -0.4634  0.7014  0.6344
  188SLPC   H8S21692   2.151   5.985   7.600 -0.7002 -0.7997  3.6858
  188SLPC   C2921693   2.305   5.856   7.648  0.1662  0.1028 -0.4508
  188SLPC   H9R21694   2.395   5.878   7.590  0.8484 -2.1325 -0.3272
  188SLPC  C21021695   2.306   5.805   7.776 -0.2776  0.4242  0.6166
  188SLPC  H10R21696   2.409   5.793   7.814  0.2592  1.6133 -0.3967
  188SLPC  C21121697   2.195   5.762   7.872 -0.5215 -0.0038  0.4371
  188SLPC  H11R21698   2.139   5.676   7.829 -0.1416 -0.0309 -0.0152
  188SLPC  H11S21699   2.122   5.845   7.884 -0.5130  0.0758 -0.0529
  188SLPC  C21221700   2.249   5.731   8.009  0.5282  0.1539  0.9309
  188SLPC  H12R21701   2.239   5.627   8.042 -1.1404  0.4646  1.4857
  188SLPC  C21321702   2.318   5.809   8.092 -0.5435  0.6300 -0.4056
  188SLPC  H13R21703   2.342   5.774   8.193  0.2064  1.3180 -0.3373
  188SLPC  C21421704   2.356   5.955   8.059 -1.5441  0.0534 -0.1520
  188SLPC  H14R21705   2.272   6.026   8.076 -1.2843 -0.1929  2.7885
  188SLPC  H14S21706   2.405   5.967   7.960  0.1769  1.0277  0.7631
  188SLPC  C21521707   2.458   6.016   8.158 -0.0040  0.4308 -0.1111
  188SLPC  H15R21708   2.419   6.050   8.256  1.4341 -2.1079  1.4769
  188SLPC  H15S21709   2.489   6.114   8.118 -0.8170  0.4222 -0.7866
  188SLPC  C21621710   2.575   5.926   8.183  0.2503 -0.5649 -0.6773
  188SLPC  H16R21711   2.595   5.882   8.083 -1.6351  0.1756 -1.4310
  188SLPC  H16S21712   2.555   5.842   8.253  0.9178 -0.1287  0.0550
  188SLPC  C21721713   2.692   6.001   8.252  0.0764  0.3633  0.0913
  188SLPC  H17R21714   2.737   6.061   8.170 -1.5470 -0.4711 -1.4633
  188SLPC  H17S21715   2.767   5.931   8.295 -0.4776  0.3953  1.1518
  188SLPC  C21821716   2.664   6.089   8.373 -0.1978  0.1106 -0.3151
  188SLPC  H18R21717   2.614   6.185   8.346  3.2794  1.5965 -2.1599
  188SLPC  H18S21718   2.758   6.127   8.418 -0.4198  0.6635 -0.3000
  188SLPC  H18T21719   2.624   6.037   8.463  1.7301 -1.3600 -0.2582
  188SLPC   C3321720   1.893   5.996   7.136  0.2170  0.4840 -0.5095
  188SLPC   H3X21721   1.913   6.064   7.222 -1.2964  0.8143 -0.3854
  188SLPC   H3Y21722   1.975   5.921   7.135  0.3562  0.5698 -2.9073
  188SLPC   C3421723   1.757   5.927   7.154  0.6914 -0.0807 -0.3604
  188SLPC   H4X21724   1.753   5.854   7.071 -0.8283  1.1872 -1.4583
  188SLPC   H4Y21725   1.674   6.000   7.139 -1.4402 -2.3209 -0.1034
  188SLPC   C3521726   1.734   5.872   7.295  0.3888  0.1512  0.5125
  188SLPC   H5X21727   1.814   5.802   7.329  0.4706  1.1810  2.5905
  188SLPC   H5Y21728   1.641   5.814   7.280  0.7494 -0.4621  0.6068
  188SLPC   C3621729   1.721   5.980   7.404  0.6217  0.7846  0.2816
  188SLPC   H6X21730   1.617   6.017   7.409  1.0411  1.8178  2.4211
  188SLPC   H6Y21731   1.789   6.063   7.374  2.1047 -0.3438  0.4359
  188SLPC   C3721732   1.752   5.922   7.546  0.4378  0.3612  0.3098
  188SLPC   H7X21733   1.847   5.868   7.530 -0.1050 -1.5563  2.9055
  188SLPC   H7Y21734   1.673   5.857   7.588  1.2449 -1.3728 -0.7523
  188SLPC   C3821735   1.771   6.027   7.649  0.5865  0.3687 -0.7514
  188SLPC   H8X21736   1.680   6.080   7.684  1.2920  0.7704  0.5449
  188SLPC   H8Y21737   1.846   6.103   7.620 -0.1424  1.8520  1.0419
  188SLPC   C3921738   1.831   5.963   7.781  0.5728 -0.3586  0.0112
  188SLPC   H9X21739   1.932   5.924   7.759  0.3365 -1.4743  0.7807
  188SLPC   H9Y21740   1.758   5.885   7.813 -0.1629  0.7698  1.1624
  188SLPC  C31021741   1.860   6.061   7.894 -0.4171 -0.6474  0.2380
  188SLPC  H10X21742   1.775   6.128   7.920  0.1608 -0.3260  1.3473
  188SLPC  H10Y21743   1.947   6.124   7.864 -1.4825  0.4858 -0.5858
  188SLPC  C31121744   1.899   5.989   8.025 -0.1460 -0.3537  1.0001
  188SLPC  H11X21745   1.968   5.907   7.996  1.4296  1.0726  0.6024
  188SLPC  H11Y21746   1.806   5.946   8.067 -1.2283  1.6205  0.7295
  188SLPC  C31221747   1.970   6.072   8.136  0.0107  0.6165 -0.4149
  188SLPC  H12X21748   1.905   6.155   8.171  1.1948  0.5084  2.2864
  188SLPC  H12Y21749   2.067   6.112   8.100 -0.0578  0.7123 -0.4952
  188SLPC  C31321750   2.002   5.976   8.253 -0.8440 -0.2949  0.5050
  188SLPC  H13X21751   2.046   5.880   8.220 -2.0196 -1.3783  1.9199
  188SLPC  H13Y21752   1.911   5.947   8.309 -1.6928  0.9847 -0.1563
  188SLPC  C31421753   2.070   6.049   8.370 -0.2082 -0.3746  0.4495
  188SLPC  H14X21754   1.993   6.107   8.425  1.3112 -0.4902  2.8532
  188SLPC  H14Y21755   2.140   6.121   8.324 -1.7526 -0.5743 -2.5185
  188SLPC  C31521756   2.132   5.952   8.467 -0.1895 -0.2906  0.0712
  188SLPC  H15X21757   2.205   5.885   8.415 -1.6459 -1.5411 -0.4278
  188SLPC  H15Y21758   2.048   5.893   8.510  0.1545  0.9762  2.6790
  188SLPC  C31621759   2.204   6.031   8.583  0.1787 -0.6003  0.1175
  188SLPC  H16X21760   2.121   6.074   8.643 -1.2341  0.4902 -2.4486
  188SLPC  H16Y21761   2.265   6.112   8.538  0.1641 -0.5062  0.2676
  188SLPC  C31721762   2.298   5.950   8.679 -0.3614 -0.4626 -0.1640
  188SLPC  H17X21763   2.362   6.018   8.739 -1.5960 -1.0984  1.9642
  188SLPC  H17Y21764   2.372   5.902   8.611  3.1477  0.2048  2.8412
  188SLPC  C31821765   2.221   5.848   8.772 -1.0114 -0.9433 -1.0423
  188SLPC  H18X21766   2.188   5.764   8.708  0.3876 -1.3260 -1.2895
  188SLPC  H18Y21767   2.122   5.897   8.790 -1.2578 -1.5771 -0.6153
  188SLPC  H18Z21768   2.278   5.805   8.857  0.9728 -1.2726 -2.4731
  189SLPC     N21769   4.113   1.658   6.047  0.3423  0.8770 -0.2272
  189SLPC   C1321770   4.038   1.657   5.919  0.3782  0.3514  0.6824
  189SLPC  H13A21771   4.019   1.555   5.890 -2.9497  1.1926 -0.6139
  189SLPC  H13B21772   3.940   1.704   5.916 -0.3369 -0.7787  3.5618
  189SLPC  H13C21773   4.094   1.720   5.851  2.2331 -1.0130  0.8678
  189SLPC   C1421774   4.017   1.619   6.155  0.2426 -0.1983 -0.0282
  189SLPC  H14A21775   3.995   1.514   6.141 -2.8115  0.2591  0.4732
  189SLPC  H14B21776   4.060   1.632   6.253  3.0003  0.3194 -1.2116
  189SLPC  H14C21777   3.927   1.676   6.136  0.0199 -0.5016  0.1103
  189SLPC   C1521778   4.151   1.797   6.077 -0.1720  0.2819 -0.1153
  189SLPC  H15A21779   4.227   1.791   6.153  1.0736 -1.9317 -1.4410
  189SLPC  H15B21780   4.205   1.837   5.992 -0.3151 -2.5714 -1.6936
  189SLPC  H15C21781   4.069   1.861   6.104 -1.8236 -1.1424 -1.5189
  189SLPC   C1221782   4.223   1.561   6.042 -0.0822  0.9109  0.1685
  189SLPC  H12A21783   4.289   1.581   5.958 -1.0515  0.2402 -0.7735
  189SLPC  H12B21784   4.189   1.463   6.013  0.7328  0.7427 -0.2812
  189SLPC   C1121785   4.316   1.528   6.165  0.9471  0.3301  0.3895
  189SLPC  H11A21786   4.337   1.627   6.211 -0.9417  1.6533 -1.4020
  189SLPC  H11B21787   4.410   1.481   6.128 -0.0277 -0.8281 -0.7192
  189SLPC     P21788   4.335   1.389   6.386 -0.2510  0.1245 -0.0508
  189SLPC   O1321789   4.258   1.282   6.459 -0.4480  0.7868 -0.3659
  189SLPC   O1421790   4.479   1.354   6.349  0.5986 -0.7957 -0.5746
  189SLPC   O1221791   4.250   1.440   6.261 -0.0342  0.2891 -0.4409
  189SLPC   O1121792   4.337   1.514   6.482  0.3801 -0.3855  0.1188
  189SLPC    C121793   4.202   1.570   6.501  0.7425  0.3561 -0.1347
  189SLPC    HA21794   4.151   1.596   6.406 -0.5195 -0.3383  0.3268
  189SLPC    HB21795   4.135   1.490   6.539  0.4759  0.4354 -0.4394
  189SLPC    C221796   4.203   1.676   6.616  0.6097 -0.2166 -0.5937
  189SLPC    HS21797   4.262   1.756   6.567  1.5346 -1.6407 -1.9393
  189SLPC   O2121798   4.278   1.625   6.728 -0.4535  0.3358  0.6297
  189SLPC   C2121799   4.300   1.718   6.817 -0.0119  0.0796 -0.4356
  189SLPC   O2221800   4.273   1.838   6.805 -0.1405  0.5160 -0.2154
  189SLPC   C2221801   4.378   1.661   6.932  0.2626 -0.4290  0.1018
  189SLPC   H2R21802   4.484   1.692   6.916 -0.0010  0.0825 -0.7385
  189SLPC   H2S21803   4.344   1.717   7.022 -2.5228  3.2238 -2.8713
  189SLPC    C321804   4.052   1.705   6.660 -0.2475  0.0036  0.1010
  189SLPC    HX21805   4.009   1.735   6.562  1.1706 -1.1934 -0.9408
  189SLPC    HY21806   4.041   1.788   6.733  2.0103  2.0007 -1.6750
  189SLPC   O3121807   3.976   1.582   6.699 -0.1859 -0.0627 -0.6984
  189SLPC   C3121808   3.986   1.554   6.828  0.1377  0.0247 -0.0565
  189SLPC   O3221809   4.056   1.613   6.909  0.3819 -0.5219  0.1004
  189SLPC   C3221810   3.883   1.441   6.861 -0.5553 -0.2688  0.0631
  189SLPC   H2X21811   3.939   1.346   6.851  2.0063  1.2564 -0.9381
  189SLPC   H2Y21812   3.806   1.452   6.782  1.5596  0.0848 -2.0638
  189SLPC   C2321813   4.371   1.504   6.962  0.3482 -0.1575  0.8676
  189SLPC   H3R21814   4.432   1.444   6.891  1.0280  0.4676  0.9079
  189SLPC   H3S21815   4.265   1.473   6.969 -0.9532  3.2117 -1.5017
  189SLPC   C2421816   4.432   1.479   7.101  1.1155 -0.1129  0.0282
  189SLPC   H4R21817   4.422   1.370   7.121  0.8237 -0.1512 -0.3320
  189SLPC   H4S21818   4.368   1.533   7.174  0.3802  0.0436 -0.7243
  189SLPC   C2521819   4.583   1.513   7.112  0.0487 -0.1504  0.1032
  189SLPC   H5R21820   4.603   1.622   7.109  0.9253 -0.3148 -0.4650
  189SLPC   H5S21821   4.639   1.466   7.028  1.0295  0.0932  0.6032
  189SLPC   C2621822   4.642   1.467   7.254  0.0682 -0.3008 -0.1498
  189SLPC   H6R21823   4.738   1.522   7.272 -0.4342  0.6801 -0.3957
  189SLPC   H6S21824   4.656   1.357   7.254  0.0220 -0.3112  0.8161
  189SLPC   C2721825   4.553   1.502   7.370 -0.4838 -0.0091 -0.0820
  189SLPC   H7R21826   4.471   1.428   7.365 -0.2840 -0.2165 -0.2936
  189SLPC   H7S21827   4.523   1.605   7.339  1.3488  1.1040  1.6022
  189SLPC   C2821828   4.610   1.492   7.513  0.7228  0.4130 -0.3632
  189SLPC   H8R21829   4.703   1.553   7.518  0.7947  0.2256  0.7977
  189SLPC   H8S21830   4.646   1.392   7.543 -0.7616  0.3240  1.3139
  189SLPC   C2921831   4.512   1.545   7.611  0.5644  0.3537 -0.9085
  189SLPC   H9R21832   4.444   1.622   7.572  0.6505  0.8195 -0.1519
  189SLPC  C21021833   4.514   1.527   7.743  0.7246  0.1493  0.3138
  189SLPC  H10R21834   4.433   1.575   7.800  1.3022 -0.1370  1.4038
  189SLPC  C21121835   4.611   1.438   7.816 -0.6073 -0.3486  0.1510
  189SLPC  H11R21836   4.688   1.390   7.751  2.9092  1.9884  2.2042
  189SLPC  H11S21837   4.554   1.349   7.850 -2.0310 -0.1005 -1.4922
  189SLPC  C21221838   4.695   1.500   7.928 -0.1937  0.4306 -0.0300
  189SLPC  H12R21839   4.800   1.468   7.927 -0.0642  0.7903  0.9921
  189SLPC  C21321840   4.666   1.591   8.024 -0.1633  0.3420  0.3717
  189SLPC  H13R21841   4.747   1.619   8.093 -1.0650  1.5397  0.9850
  189SLPC  C21421842   4.535   1.657   8.053 -0.0455  0.8337 -0.1370
  189SLPC  H14R21843   4.441   1.623   8.005  0.4043  1.1605 -1.2732
  189SLPC  H14S21844   4.539   1.764   8.024  1.2789  0.7761 -0.2554
  189SLPC  C21521845   4.517   1.643   8.202  0.2255  0.5974  0.9467
  189SLPC  H15R21846   4.600   1.692   8.257  0.3417  1.7550 -0.2104
  189SLPC  H15S21847   4.518   1.541   8.244 -3.7600 -0.5765 -1.2200
  189SLPC  C21621848   4.385   1.702   8.253  0.3530 -0.8441  0.3076
  189SLPC  H16R21849   4.301   1.644   8.208 -1.0460  0.7197  0.7987
  189SLPC  H16S21850   4.373   1.810   8.228 -0.2280 -0.6493  1.3661
  189SLPC  C21721851   4.370   1.694   8.403 -0.3574  0.1370 -0.1208
  189SLPC  H17R21852   4.455   1.745   8.455 -0.4843  0.1685  0.0564
  189SLPC  H17S21853   4.375   1.585   8.422  2.2423 -0.0620 -1.4931
  189SLPC  C21821854   4.256   1.773   8.463  0.0384  0.1222 -0.0944
  189SLPC  H18R21855   4.237   1.759   8.572 -0.0518  0.3097 -0.0868
  189SLPC  H18S21856   4.158   1.747   8.418  0.1493 -0.2363 -0.1328
  189SLPC  H18T21857   4.273   1.878   8.433 -0.6621 -0.3085 -2.1716
  189SLPC   C3321858   3.833   1.459   7.008  0.1733 -0.4501 -0.3483
  189SLPC   H3X21859   3.744   1.392   7.011 -0.8501  0.8914  0.2500
  189SLPC   H3Y21860   3.783   1.557   7.023  0.1312 -0.1724 -2.0852
  189SLPC   C3421861   3.932   1.428   7.119  0.7104  0.0616  0.1092
  189SLPC   H4X21862   3.880   1.463   7.211  1.0828  0.8590  0.0303
  189SLPC   H4Y21863   4.023   1.492   7.112  1.4789 -0.9314  0.7336
  189SLPC   C3521864   3.984   1.284   7.136  0.2077 -0.8947  0.0333
  189SLPC   H5X21865   4.025   1.244   7.042  1.7803  0.3380  0.1473
  189SLPC   H5Y21866   3.892   1.228   7.164 -1.1695  2.7600  4.0263
  189SLPC   C3621867   4.087   1.271   7.250 -0.5823 -0.0383 -0.0860
  189SLPC   H6X21868   4.166   1.348   7.237 -0.2797 -0.6285 -1.9387
  189SLPC   H6Y21869   4.134   1.170   7.242 -1.9047 -0.6892  0.0577
  189SLPC   C3721870   4.016   1.293   7.387  0.2653  0.2659 -0.6819
  189SLPC   H7X21871   3.961   1.201   7.418  1.2404  0.4683  1.9607
  189SLPC   H7Y21872   3.951   1.382   7.375  1.1763  1.2251  1.0488
  189SLPC   C3821873   4.113   1.330   7.492 -0.1443  0.2361 -0.1340
  189SLPC   H8X21874   4.148   1.433   7.472  0.3357  0.4429  1.5650
  189SLPC   H8Y21875   4.195   1.255   7.494  0.9847  1.4031 -1.2154
  189SLPC   C3921876   4.050   1.323   7.632  0.0231 -0.2212 -0.7255
  189SLPC   H9X21877   3.992   1.230   7.647  1.1947 -0.7152  1.0879
  189SLPC   H9Y21878   3.989   1.415   7.626  0.1695  0.0414  1.2655
  189SLPC  C31021879   4.145   1.333   7.753  0.7055 -0.4763 -0.4995
  189SLPC  H10X21880   4.214   1.414   7.723  0.4012  0.0240  0.1145
  189SLPC  H10Y21881   4.197   1.236   7.768 -0.2932 -0.7329  1.6447
  189SLPC  C31121882   4.070   1.372   7.885  0.2379 -0.1418  0.0177
  189SLPC  H11X21883   4.008   1.281   7.895  0.1515 -1.0947 -5.6307
  189SLPC  H11Y21884   4.002   1.458   7.867  0.3507  0.2194  1.2790
  189SLPC  C31221885   4.159   1.404   8.004  0.0272 -0.1169  0.4126
  189SLPC  H12X21886   4.205   1.505   7.988  2.0381 -1.0103  0.1862
  189SLPC  H12Y21887   4.245   1.333   8.002 -1.3434 -1.8435  0.6713
  189SLPC  C31321888   4.094   1.396   8.138  0.2740 -0.6001  0.6328
  189SLPC  H13X21889   4.164   1.441   8.211 -0.2365  0.1865  0.6575
  189SLPC  H13Y21890   4.069   1.293   8.170  0.7936 -0.6072  1.0178
  189SLPC  C31421891   3.966   1.494   8.147  0.2972 -0.3299  0.0031
  189SLPC  H14X21892   3.899   1.463   8.065  0.3116 -1.4265  0.3992
  189SLPC  H14Y21893   4.019   1.591   8.132  1.1143 -0.6475  0.7513
  189SLPC  C31521894   3.909   1.487   8.288  0.0621  0.2441  0.0144
  189SLPC  H15X21895   3.832   1.566   8.284 -0.9841 -0.7590 -0.3116
  189SLPC  H15Y21896   3.989   1.517   8.360  1.8106  0.4248 -1.8964
  189SLPC  C31621897   3.845   1.347   8.328  0.4205  1.0263  0.6335
  189SLPC  H16X21898   3.813   1.362   8.433  0.4997 -0.2923  0.8553
  189SLPC  H16Y21899   3.928   1.274   8.329 -0.0716  0.4471  0.1439
  189SLPC  C31721900   3.730   1.306   8.239 -0.4172 -0.7521 -0.3083
  189SLPC  H17X21901   3.682   1.214   8.278  2.5960 -1.5074  1.9768
  189SLPC  H17Y21902   3.768   1.286   8.137 -0.1509  0.9450 -0.5773
  189SLPC  C31821903   3.616   1.414   8.226  0.0962 -0.0610 -0.0177
  189SLPC  H18X21904   3.570   1.449   8.321  0.2042  1.3931 -0.4857
  189SLPC  H18Y21905   3.532   1.383   8.160 -0.3774  0.8108  0.1659
  189SLPC  H18Z21906   3.653   1.507   8.178 -1.1072  1.3928  1.7295
  190SLPC     N21907   5.819   0.782   6.169 -0.5482 -0.1603 -0.1835
  190SLPC   C1321908   5.921   0.825   6.278 -0.3105  0.0549 -0.4258
  190SLPC  H13A21909   6.011   0.849   6.223 -1.2323  0.8470 -1.6507
  190SLPC  H13B21910   5.883   0.914   6.328 -0.4015  0.6367 -1.4947
  190SLPC  H13C21911   5.948   0.745   6.344 -1.1674  0.2906  0.2316
  190SLPC   C1421912   5.892   0.681   6.093 -0.4006 -0.2456 -0.2255
  190SLPC  H14A21913   5.930   0.603   6.157 -2.5048 -1.4668 -0.3401
  190SLPC  H14B21914   5.822   0.626   6.031  1.1279  0.0879 -2.3493
  190SLPC  H14C21915   5.972   0.715   6.029 -0.9249  0.5589 -0.4788
  190SLPC   C1521916   5.788   0.895   6.085  0.2862 -0.4278  0.0814
  190SLPC  H15A21917   5.879   0.919   6.033 -1.0277 -0.6940 -2.5050
  190SLPC  H15B21918   5.705   0.866   6.021 -0.0581 -1.9321  1.1466
  190SLPC  H15C21919   5.776   0.983   6.147  1.4513 -0.9583  1.0993
  190SLPC   C1221920   5.694   0.720   6.241 -0.3629  0.2604 -0.6414
  190SLPC  H12A21921   5.623   0.684   6.169 -0.1172  1.5916 -1.6045
  190SLPC  H12B21922   5.641   0.794   6.299  1.0030  0.8469 -0.0916
  190SLPC   C1121923   5.717   0.611   6.347 -0.0980  0.0299  0.4521
  190SLPC  H11A21924   5.617   0.571   6.375 -1.1302  0.8389 -1.8499
  190SLPC  H11B21925   5.767   0.654   6.436  1.4968 -0.1031 -0.3351
  190SLPC     P21926   5.878   0.404   6.404  0.2668  0.0928  0.0528
  190SLPC   O1321927   5.867   0.263   6.364 -0.3417 -0.1019 -0.0952
  190SLPC   O1421928   6.018   0.453   6.416 -0.6030 -0.4235 -0.5081
  190SLPC   O1221929   5.802   0.502   6.304  0.0820 -0.2373  0.4300
  190SLPC   O1121930   5.816   0.411   6.545 -0.2419  0.0867 -0.9104
  190SLPC    C121931   5.684   0.368   6.583 -0.3943  0.0373  0.3577
  190SLPC    HA21932   5.615   0.371   6.496  0.4411  0.0894 -0.3138
  190SLPC    HB21933   5.687   0.259   6.604 -0.6317  0.0292  0.3517
  190SLPC    C221934   5.622   0.444   6.704  0.0235  0.4298 -0.2587
  190SLPC    HS21935   5.630   0.551   6.676 -0.0941  0.0758 -1.7073
  190SLPC   O2121936   5.696   0.412   6.827 -0.8400  0.3761  0.4916
  190SLPC   C2121937   5.702   0.511   6.918 -0.0367  0.1408  0.4413
  190SLPC   O2221938   5.671   0.626   6.897  0.4857 -0.0142 -0.0154
  190SLPC   C2221939   5.735   0.451   7.054 -0.7257  0.1833  0.0312
  190SLPC   H2R21940   5.673   0.359   7.054  0.1829 -0.4671 -1.3418
  190SLPC   H2S21941   5.842   0.421   7.056 -0.7877 -0.1254 -0.9090
  190SLPC    C321942   5.465   0.413   6.704 -0.2928 -0.1308 -0.4869
  190SLPC    HX21943   5.460   0.303   6.718  0.1944 -0.2796 -1.4188
  190SLPC    HY21944   5.425   0.450   6.607  0.7206  1.4776 -0.3328
  190SLPC   O3121945   5.403   0.464   6.825  0.4245 -0.4959  0.1554
  190SLPC   C3121946   5.367   0.592   6.825  0.1292  0.3283 -0.0995
  190SLPC   O3221947   5.388   0.677   6.742 -0.7684  0.3576  0.5613
  190SLPC   C3221948   5.270   0.605   6.940  1.3753  0.9049  0.3522
  190SLPC   H2X21949   5.185   0.550   6.895  0.3878  1.2891  1.6973
  190SLPC   H2Y21950   5.245   0.713   6.950 -1.6262  0.2607  0.7641
  190SLPC   C2321951   5.711   0.553   7.173 -0.6887  0.1939  0.0912
  190SLPC   H3R21952   5.611   0.599   7.164 -0.3978  0.8475  0.1664
  190SLPC   H3S21953   5.793   0.628   7.165 -1.7216  1.0828 -3.4592
  190SLPC   C2421954   5.717   0.494   7.315  0.0369  0.3214 -0.3501
  190SLPC   H4R21955   5.664   0.398   7.329 -0.7884  0.9015  0.7295
  190SLPC   H4S21956   5.677   0.561   7.394  1.0253  2.1588 -1.3344
  190SLPC   C2521957   5.865   0.474   7.350 -0.6154 -0.6238 -0.1464
  190SLPC   H5R21958   5.929   0.564   7.339 -2.7827  1.2162  1.3456
  190SLPC   H5S21959   5.905   0.403   7.274  2.9447  0.2034  0.7588
  190SLPC   C2621960   5.888   0.430   7.496  0.2349  0.7198 -0.5592
  190SLPC   H6R21961   5.822   0.343   7.514  2.2585 -0.7985 -0.0917
  190SLPC   H6S21962   5.867   0.519   7.559 -0.6459  0.4601 -0.4728
  190SLPC   C2721963   6.034   0.380   7.526 -0.2882  0.3109 -0.0942
  190SLPC   H7R21964   6.113   0.458   7.539 -0.0706  0.5026 -2.1925
  190SLPC   H7S21965   6.065   0.304   7.451 -0.8124 -0.3240  0.3249
  190SLPC   C2821966   6.030   0.319   7.674 -0.5326 -0.9879  0.2557
  190SLPC   H8R21967   5.988   0.217   7.684  0.3085 -1.2148  1.8572
  190SLPC   H8S21968   5.971   0.377   7.747  0.7273 -2.3576  2.4730
  190SLPC   C2921969   6.173   0.302   7.727 -0.1253 -0.1632 -0.3864
  190SLPC   H9R21970   6.247   0.257   7.660  1.1061 -1.6440  1.8679
  190SLPC  C21021971   6.223   0.352   7.844 -0.3348 -0.1890 -0.5784
  190SLPC  H10R21972   6.324   0.317   7.870 -0.7979 -1.3828 -0.3073
  190SLPC  C21121973   6.144   0.408   7.957  0.4376  0.5637 -0.5963
  190SLPC  H11R21974   6.045   0.441   7.919 -1.0548 -2.1558  0.6543
  190SLPC  H11S21975   6.205   0.493   7.995 -0.8443  0.7171  1.2695
  190SLPC  C21221976   6.114   0.321   8.074  0.7632  0.0739 -0.8284
  190SLPC  H12R21977   6.021   0.265   8.054  1.8756 -0.6558 -4.6945
  190SLPC  C21321978   6.180   0.308   8.190  0.1897  0.9628  0.1318
  190SLPC  H13R21979   6.150   0.226   8.256  0.8281  0.4044 -0.2522
  190SLPC  C21421980   6.300   0.383   8.245 -0.6220  0.1028  0.3884
  190SLPC  H14R21981   6.373   0.382   8.161 -0.9410 -1.5411  0.0961
  190SLPC  H14S21982   6.351   0.318   8.320 -0.8510  0.8632  1.2301
  190SLPC  C21521983   6.258   0.520   8.309 -0.0389  0.0780 -0.5896
  190SLPC  H15R21984   6.201   0.499   8.402 -0.6627  1.1774 -0.7032
  190SLPC  H15S21985   6.185   0.564   8.238  0.7825  0.5167 -1.1884
  190SLPC  C21621986   6.373   0.609   8.359 -0.1142  0.9182 -0.0361
  190SLPC  H16R21987   6.420   0.652   8.268 -1.3281  1.1696 -0.5555
  190SLPC  H16S21988   6.451   0.549   8.411  0.3201  0.7410 -0.8633
  190SLPC  C21721989   6.308   0.713   8.450  0.3236 -0.2183  0.3603
  190SLPC  H17R21990   6.250   0.668   8.533 -1.0068 -1.6222 -1.2603
  190SLPC  H17S21991   6.244   0.768   8.377 -2.1756 -2.1494  0.9569
  190SLPC  C21821992   6.412   0.818   8.501  0.1849  0.5626  0.0198
  190SLPC  H18R21993   6.358   0.915   8.509  1.9591  1.7090 -1.0950
  190SLPC  H18S21994   6.491   0.838   8.425  0.3333 -0.1579 -0.0247
  190SLPC  H18T21995   6.458   0.783   8.595  0.0754  0.1615 -0.0750
  190SLPC   C3321996   5.318   0.558   7.085 -0.0798 -0.2489  0.5320
  190SLPC   H3X21997   5.415   0.611   7.095 -0.1173 -0.0750  0.0022
  190SLPC   H3Y21998   5.339   0.449   7.075  1.3401  0.0157  0.5041
  190SLPC   C3421999   5.223   0.598   7.192  0.4239 -0.4434  0.4990
  190SLPC   H4X22000   5.140   0.524   7.192  0.9664 -1.0804 -0.1252
  190SLPC   H4Y22001   5.177   0.697   7.171  0.2570 -0.2490  1.7476
  190SLPC   C3522002   5.281   0.607   7.332  0.0345 -0.4120  0.6530
  190SLPC   H5X22003   5.381   0.654   7.335 -0.1958  0.3896 -1.5958
  190SLPC   H5Y22004   5.297   0.509   7.381 -0.4851  0.0885  1.8671
  190SLPC   C3622005   5.187   0.682   7.429 -0.5551 -0.4804 -0.1661
  190SLPC   H6X22006   5.082   0.649   7.408 -2.0127  2.9518  1.1053
  190SLPC   H6Y22007   5.190   0.789   7.401  1.0249 -0.5061 -0.1514
  190SLPC   C3722008   5.199   0.639   7.580 -0.6061 -0.7403  0.0406
  190SLPC   H7X22009   5.193   0.528   7.578 -0.4900 -0.7438 -2.0894
  190SLPC   H7Y22010   5.129   0.674   7.659  0.3969 -0.2340  0.7329
  190SLPC   C3822011   5.339   0.667   7.641 -0.1726  0.0781  0.1232
  190SLPC   H8X22012   5.413   0.647   7.560 -1.1831  1.6272 -1.2275
  190SLPC   H8Y22013   5.349   0.609   7.735  0.0820 -0.2922 -0.1268
  190SLPC   C3922014   5.347   0.817   7.662  0.1393  0.0520  0.4200
  190SLPC   H9X22015   5.261   0.865   7.713  1.0526 -0.3110  2.3558
  190SLPC   H9Y22016   5.355   0.872   7.565 -0.8872  2.0378  1.4013
  190SLPC  C31022017   5.473   0.862   7.744 -0.2417  0.3881  0.3932
  190SLPC  H10X22018   5.500   0.969   7.730 -1.1060  0.6073  0.3428
  190SLPC  H10Y22019   5.556   0.797   7.710 -1.8819 -1.4112 -0.3691
  190SLPC  C31122020   5.431   0.845   7.889 -0.2463 -0.0003  0.9974
  190SLPC  H11X22021   5.421   0.741   7.926 -4.3241 -0.7885 -1.6387
  190SLPC  H11Y22022   5.332   0.894   7.900 -0.0527  0.8853 -0.7910
  190SLPC  C31222023   5.523   0.924   7.981 -0.7677 -0.5802  0.0497
  190SLPC  H12X22024   5.540   1.023   7.933 -0.1447 -0.4016  0.6144
  190SLPC  H12Y22025   5.622   0.875   7.987 -1.5304 -2.2625 -0.6201
  190SLPC  C31322026   5.487   0.935   8.122  0.0205 -0.2343 -0.7618
  190SLPC  H13X22027   5.472   0.835   8.169  0.6978  0.4263  0.9698
  190SLPC  H13Y22028   5.394   0.995   8.133 -0.4475 -1.2961  1.7442
  190SLPC  C31422029   5.599   1.002   8.208  0.2026  0.1066 -0.4017
  190SLPC  H14X22030   5.628   1.081   8.135 -0.6039  0.2719 -0.5581
  190SLPC  H14Y22031   5.675   0.923   8.229  0.5656 -0.1819 -2.5287
  190SLPC  C31522032   5.550   1.060   8.338 -0.7271  0.0833  0.2919
  190SLPC  H15X22033   5.481   1.144   8.312  2.2025  2.1177 -1.4424
  190SLPC  H15Y22034   5.640   1.104   8.385  0.0428  0.7633 -1.7042
  190SLPC  C31622035   5.488   0.957   8.432 -0.0438 -0.4622 -0.2518
  190SLPC  H16X22036   5.572   0.893   8.466 -0.3145 -0.0791  1.2200
  190SLPC  H16Y22037   5.408   0.904   8.375 -1.4966  0.6742  0.6458
  190SLPC  C31722038   5.425   1.009   8.572  0.2078 -0.5795 -1.2300
  190SLPC  H17X22039   5.345   1.084   8.556  1.8823  1.9747  1.5709
  190SLPC  H17Y22040   5.513   1.057   8.620  0.3892 -0.5910 -1.5463
  190SLPC  C31822041   5.368   0.897   8.667 -0.3596 -0.1277 -0.3020
  190SLPC  H18X22042   5.343   0.934   8.769 -1.7892 -2.8962  0.4678
  190SLPC  H18Y22043   5.456   0.831   8.684 -0.1791  0.2069  0.1001
  190SLPC  H18Z22044   5.292   0.825   8.631  1.4178 -1.6601 -1.1683
  191SLPC     N22045   1.544   2.955   5.954 -0.1654  0.4917 -0.9376
  191SLPC   C1322046   1.440   2.955   6.067 -0.0810 -0.1128 -0.2736
  191SLPC  H13A22047   1.342   2.950   6.021  0.0653 -1.0605 -0.5107
  191SLPC  H13B22048   1.438   2.872   6.136  0.8752  2.5735  3.2601
  191SLPC  H13C22049   1.462   3.039   6.130 -0.4429 -1.8721  2.3784
  191SLPC   C1422050   1.540   3.095   5.887  0.0136  0.4526  0.1603
  191SLPC  H14A22051   1.443   3.130   5.855 -0.4889 -1.2216 -0.2137
  191SLPC  H14B22052   1.585   3.179   5.939  1.1857  0.7494 -1.2869
  191SLPC  H14C22053   1.609   3.082   5.805  0.3299  1.0779  0.3176
  191SLPC   C1522054   1.511   2.849   5.854  0.0487  0.8432 -0.1926
  191SLPC  H15A22055   1.570   2.855   5.763  0.1544 -0.0507 -0.1966
  191SLPC  H15B22056   1.533   2.751   5.895 -5.1383 -0.1310  0.8800
  191SLPC  H15C22057   1.405   2.860   5.838  0.5216  4.3042 -1.7871
  191SLPC   C1222058   1.684   2.938   6.014  0.4427 -0.3557  0.1912
  191SLPC  H12A22059   1.711   3.023   6.075 -0.1688 -1.8054  2.6187
  191SLPC  H12B22060   1.757   2.927   5.935  1.6734  0.4683  1.1839
  191SLPC   C1122061   1.700   2.822   6.125  0.5535  0.3992  0.2985
  191SLPC  H11A22062   1.659   2.863   6.219 -0.2820  1.8934 -0.6719
  191SLPC  H11B22063   1.807   2.795   6.134  0.1647 -0.9003  1.3168
  191SLPC     P22064   1.695   2.589   6.015 -0.1364  0.1163  0.2290
  191SLPC   O1322065   1.604   2.565   5.902 -0.2332  0.1535 -0.0683
  191SLPC   O1422066   1.834   2.625   5.993 -0.2509 -0.0829 -0.1498
  191SLPC   O1222067   1.628   2.705   6.091  0.6130  0.3941  0.7228
  191SLPC   O1122068   1.686   2.470   6.126  0.3220 -0.2445 -0.7592
  191SLPC    C122069   1.630   2.490   6.251  0.0560 -0.6208 -0.2420
  191SLPC    HA22070   1.548   2.565   6.249  1.5594  1.1552  1.1139
  191SLPC    HB22071   1.588   2.394   6.287  0.5393 -1.1408 -1.0479
  191SLPC    C222072   1.733   2.550   6.351 -0.6370 -1.1071 -0.0433
  191SLPC    HS22073   1.787   2.634   6.302  0.6401 -0.5369  2.2003
  191SLPC   O2122074   1.829   2.457   6.396  0.2935 -0.2655  0.2249
  191SLPC   C2122075   1.935   2.504   6.450 -0.5936  0.3538  0.1366
  191SLPC   O2222076   1.978   2.622   6.444  0.2675  0.5848 -0.4103
  191SLPC   C2222077   2.000   2.399   6.523  0.9045  0.4754 -0.8569
  191SLPC   H2R22078   1.933   2.358   6.601 -1.6613  2.2597 -1.9951
  191SLPC   H2S22079   2.028   2.317   6.454 -0.7506  0.4809 -1.5732
  191SLPC    C322080   1.665   2.609   6.470 -0.4032  0.3353 -0.6093
  191SLPC    HX22081   1.610   2.523   6.513  1.4342 -0.8809 -0.6226
  191SLPC    HY22082   1.585   2.677   6.432  0.1232 -0.0757 -2.5765
  191SLPC   O3122083   1.745   2.667   6.576  0.6544  0.0082  0.5611
  191SLPC   C3122084   1.770   2.799   6.574 -0.1635  0.4643  0.1775
  191SLPC   O3222085   1.726   2.879   6.489  0.0311  0.3498 -0.0242
  191SLPC   C3222086   1.839   2.837   6.703  0.0971  0.0128 -0.0531
  191SLPC   H2X22087   1.854   2.947   6.710  0.1082 -0.0324  0.6152
  191SLPC   H2Y22088   1.941   2.794   6.694  0.7444  1.3795  0.4817
  191SLPC   C2322089   2.137   2.446   6.587 -0.4427  0.0551  0.1355
  191SLPC   H3R22090   2.188   2.512   6.514 -0.6526 -0.8458 -0.8533
  191SLPC   H3S22091   2.201   2.357   6.598  2.2484  1.8385 -0.2591
  191SLPC   C2422092   2.126   2.495   6.735  0.4150  0.0893 -0.1530
  191SLPC   H4R22093   2.071   2.427   6.803 -1.1265  1.0061 -0.4314
  191SLPC   H4S22094   2.067   2.589   6.731  0.9450  0.4233 -0.2066
  191SLPC   C2522095   2.263   2.538   6.777 -1.0466 -0.2342 -0.4818
  191SLPC   H5R22096   2.299   2.605   6.696 -0.0069 -0.8082 -0.5039
  191SLPC   H5S22097   2.325   2.446   6.773  0.1520  0.5970 -2.4744
  191SLPC   C2622098   2.266   2.615   6.909 -0.5164 -0.2472 -0.1929
  191SLPC   H6R22099   2.208   2.562   6.987  1.6055  0.7706  2.2004
  191SLPC   H6S22100   2.219   2.713   6.883  2.5464  1.5348  0.5531
  191SLPC   C2722101   2.402   2.642   6.976  0.6356  1.1545  0.3692
  191SLPC   H7R22102   2.476   2.684   6.905 -0.3557  2.1960 -0.0787
  191SLPC   H7S22103   2.449   2.548   7.013  1.6439  0.8810 -1.4780
  191SLPC   C2822104   2.407   2.743   7.094 -0.8244 -0.5394 -0.0202
  191SLPC   H8R22105   2.358   2.840   7.070 -0.6312 -0.2419  0.7651
  191SLPC   H8S22106   2.514   2.763   7.116 -1.1714  1.3844  0.0599
  191SLPC   C2922107   2.337   2.694   7.216  0.5300 -0.1886 -0.6215
  191SLPC   H9R22108   2.233   2.728   7.231  0.8285  0.0771  0.9554
  191SLPC  C21022109   2.386   2.619   7.317  0.7339 -0.3999 -0.3534
  191SLPC  H10R22110   2.313   2.586   7.392  2.2185 -1.3928  0.6948
  191SLPC  C21122111   2.525   2.565   7.325  0.3640  0.1496  0.5257
  191SLPC  H11R22112   2.582   2.625   7.398  1.8127 -1.6935  1.0029
  191SLPC  H11S22113   2.581   2.589   7.232  0.1030  2.0258  0.8099
  191SLPC  C21222114   2.529   2.422   7.363 -0.3726  0.5997  0.2634
  191SLPC  H12R22115   2.490   2.357   7.283  0.8433 -0.8940  0.8237
  191SLPC  C21322116   2.586   2.362   7.473  0.7885 -0.1888 -0.0126
  191SLPC  H13R22117   2.575   2.253   7.468  0.7312 -0.1688 -0.4000
  191SLPC  C21422118   2.652   2.432   7.593 -0.4541  0.3924 -0.0293
  191SLPC  H14R22119   2.651   2.543   7.589 -1.2881  0.4244  0.7026
  191SLPC  H14S22120   2.757   2.398   7.601 -0.0308  1.9413  1.8390
  191SLPC  C21522121   2.587   2.395   7.733  0.7133 -0.3840 -0.6210
  191SLPC  H15R22122   2.646   2.448   7.811 -0.2242 -1.2026  0.6909
  191SLPC  H15S22123   2.594   2.284   7.728  1.6340 -0.3158 -1.1837
  191SLPC  C21622124   2.448   2.452   7.758  0.2392 -0.5312 -0.0590
  191SLPC  H16R22125   2.403   2.406   7.849  0.6596  1.8629  1.4235
  191SLPC  H16S22126   2.385   2.420   7.671 -0.2447 -1.5385  0.6388
  191SLPC  C21722127   2.430   2.608   7.757 -0.6643 -0.2042 -0.4159
  191SLPC  H17R22128   2.463   2.657   7.663 -0.6884  0.6668  0.0201
  191SLPC  H17S22129   2.502   2.645   7.834 -1.0842 -0.5688  0.1599
  191SLPC  C21822130   2.292   2.665   7.783  0.1840 -0.0252  0.4403
  191SLPC  H18R22131   2.308   2.774   7.791 -0.2911  0.1538 -0.7665
  191SLPC  H18S22132   2.246   2.624   7.875 -3.3073  1.1552 -0.6256
  191SLPC  H18T22133   2.224   2.645   7.697  2.9244  0.4204 -1.9728
  191SLPC   C3322134   1.766   2.798   6.828  0.2437 -0.5634  0.0628
  191SLPC   H3X22135   1.750   2.688   6.828 -3.6034 -0.1240  0.0006
  191SLPC   H3Y22136   1.662   2.834   6.819 -0.0452 -1.7953 -2.8941
  191SLPC   C3422137   1.826   2.840   6.968  0.8739  0.4616  0.1303
  191SLPC   H4X22138   1.844   2.949   6.963  2.6114  0.1736 -0.4387
  191SLPC   H4Y22139   1.916   2.781   6.997  1.0518  0.0234 -1.2450
  191SLPC   C3522140   1.722   2.809   7.068 -0.5735  0.6035 -0.4868
  191SLPC   H5X22141   1.698   2.702   7.051 -4.1914  1.6167 -3.0603
  191SLPC   H5Y22142   1.629   2.866   7.045 -0.8489  0.5334  0.4339
  191SLPC   C3622143   1.758   2.846   7.210  0.7161 -0.4277  0.4380
  191SLPC   H6X22144   1.747   2.956   7.211 -0.0373 -0.4900  2.5349
  191SLPC   H6Y22145   1.863   2.823   7.240  1.7384  2.6718 -0.4616
  191SLPC   C3722146   1.662   2.784   7.315 -0.4487  0.2691  0.1194
  191SLPC   H7X22147   1.684   2.675   7.306  2.8461  0.8966 -0.5478
  191SLPC   H7Y22148   1.553   2.800   7.298 -1.1164 -0.7717  2.8855
  191SLPC   C3822149   1.697   2.826   7.460  0.5539  0.2242 -0.1260
  191SLPC   H8X22150   1.658   2.930   7.471 -1.4165 -0.3764 -0.8451
  191SLPC   H8Y22151   1.807   2.826   7.474  0.5961  0.6096 -0.4252
  191SLPC   C3922152   1.607   2.752   7.559  0.0438 -0.4763  0.3341
  191SLPC   H9X22153   1.632   2.646   7.540 -2.8982 -1.2481  0.2210
  191SLPC   H9Y22154   1.500   2.779   7.546  0.3000  0.4467  0.0609
  191SLPC  C31022155   1.641   2.794   7.709  0.6641  0.0783 -0.4624
  191SLPC  H10X22156   1.698   2.889   7.699 -0.8400  0.9637 -1.0144
  191SLPC  H10Y22157   1.717   2.723   7.748 -0.1604 -0.0528  0.9789
  191SLPC  C31122158   1.514   2.821   7.792  0.3694  0.3333  0.1246
  191SLPC  H11X22159   1.445   2.734   7.785  0.1361  0.4595  0.7413
  191SLPC  H11Y22160   1.469   2.913   7.750 -0.5272 -0.7214 -1.3435
  191SLPC  C31222161   1.561   2.837   7.940 -0.1035  0.6394 -0.2000
  191SLPC  H12X22162   1.628   2.925   7.946 -1.2611  1.4749  1.1237
  191SLPC  H12Y22163   1.626   2.748   7.950 -1.9316 -0.8556 -1.0306
  191SLPC  C31322164   1.449   2.833   8.044 -0.0140 -0.0074  0.1660
  191SLPC  H13X22165   1.375   2.757   8.012 -0.6961  1.0087 -0.7255
  191SLPC  H13Y22166   1.401   2.932   8.029 -1.1506 -0.4823  0.5471
  191SLPC  C31422167   1.489   2.819   8.191 -0.0516 -0.0421 -0.4219
  191SLPC  H14X22168   1.576   2.882   8.219  0.5787 -1.3410  0.6079
  191SLPC  H14Y22169   1.531   2.717   8.207  2.8249  0.4970 -3.5393
  191SLPC  C31522170   1.376   2.855   8.286  0.1824  0.7505 -0.3703
  191SLPC  H15X22171   1.408   2.861   8.392 -2.1043  0.4265  0.4084
  191SLPC  H15Y22172   1.293   2.781   8.294 -0.0386  0.7969 -1.9244
  191SLPC  C31622173   1.320   2.996   8.274  0.3083  0.2383  0.4203
  191SLPC  H16X22174   1.276   3.013   8.174  1.6456 -2.5693 -0.7266
  191SLPC  H16Y22175   1.398   3.074   8.288  0.1524  0.7673 -1.4691
  191SLPC  C31722176   1.217   3.020   8.384 -0.1313 -0.2791  0.4287
  191SLPC  H17X22177   1.146   2.936   8.400 -0.8680 -0.3773 -2.6540
  191SLPC  H17Y22178   1.148   3.099   8.348 -0.5668 -1.9262 -2.7502
  191SLPC  C31822179   1.278   3.072   8.513 -0.4250 -0.1778 -0.2178
  191SLPC  H18X22180   1.346   2.997   8.559  1.3202  1.0411 -0.6828
  191SLPC  H18Y22181   1.195   3.096   8.583 -0.0381 -1.2309  0.6200
  191SLPC  H18Z22182   1.339   3.164   8.500  0.7759 -0.9336 -0.0475
  192SLPC     N22183   2.302   1.859   6.229 -0.3820 -0.3007 -0.0144
  192SLPC   C1322184   2.376   1.760   6.311  0.0970 -0.7058 -0.4983
  192SLPC  H13A22185   2.304   1.701   6.366  0.3999  0.2522  1.0019
  192SLPC  H13B22186   2.458   1.702   6.270  0.7597 -0.2838  0.1923
  192SLPC  H13C22187   2.426   1.819   6.386 -2.7688  0.7289  0.4241
  192SLPC   C1422188   2.196   1.935   6.302 -0.0308  0.3335  0.2141
  192SLPC  H14A22189   2.234   1.963   6.399 -1.6544 -1.3527  1.4046
  192SLPC  H14B22190   2.160   2.024   6.253 -0.3933 -0.6714 -1.4464
  192SLPC  H14C22191   2.110   1.877   6.332 -0.1105  0.6453  0.5936
  192SLPC   C1522192   2.244   1.783   6.110 -0.2474 -0.1296 -0.8628
  192SLPC  H15A22193   2.172   1.716   6.154 -1.6547  1.3779 -0.7978
  192SLPC  H15B22194   2.194   1.861   6.055 -0.8363  1.5665  1.8786
  192SLPC  H15C22195   2.322   1.734   6.053  0.6690 -0.5092  0.6547
  192SLPC   C1222196   2.401   1.961   6.167  0.1027 -0.5031 -1.0228
  192SLPC  H12A22197   2.362   1.992   6.071  0.4051 -0.1332 -1.0328
  192SLPC  H12B22198   2.490   1.907   6.136 -1.2817 -3.1141 -0.7118
  192SLPC   C1122199   2.453   2.084   6.258 -0.3269  0.5313 -0.3403
  192SLPC  H11A22200   2.373   2.158   6.279 -2.4102 -1.9422  1.0639
  192SLPC  H11B22201   2.539   2.127   6.201  2.4936  0.0819  3.1921
  192SLPC     P22202   2.653   2.036   6.420 -0.0169  0.0831  0.1506
  192SLPC   O1322203   2.667   1.969   6.549 -0.4244  0.2945 -0.7483
  192SLPC   O1422204   2.735   1.976   6.311  0.1672 -0.5472 -0.4474
  192SLPC   O1222205   2.498   2.038   6.383  0.0610  0.0068 -0.1594
  192SLPC   O1122206   2.701   2.184   6.431  0.2417  0.2202 -0.1808
  192SLPC    C122207   2.626   2.264   6.529 -0.5762  0.3193 -0.6111
  192SLPC    HA22208   2.577   2.344   6.469  0.6358  1.1668 -0.4886
  192SLPC    HB22209   2.543   2.210   6.580 -2.6078  3.0153 -0.8457
  192SLPC    C222210   2.711   2.332   6.635 -0.5603  0.8723  0.4312
  192SLPC    HS22211   2.794   2.390   6.590 -1.2263  0.5243 -1.3494
  192SLPC   O2122212   2.753   2.242   6.733  0.0188  0.7889 -0.3704
  192SLPC   C2122213   2.857   2.161   6.707  0.0582 -0.2892  0.0623
  192SLPC   O2222214   2.929   2.163   6.608  0.2432 -0.5504  0.2622
  192SLPC   C2222215   2.876   2.060   6.817  0.2168 -0.0639  0.4269
  192SLPC   H2R22216   2.805   1.978   6.793 -0.6108  1.0371 -0.9998
  192SLPC   H2S22217   2.972   2.006   6.803 -0.5683 -1.2746 -0.4972
  192SLPC    C322218   2.619   2.439   6.702 -0.2737  0.0092  0.0330
  192SLPC    HX22219   2.526   2.382   6.726 -0.5108 -0.0250 -0.9192
  192SLPC    HY22220   2.591   2.518   6.629  2.2330  0.1282 -0.8694
  192SLPC   O3122221   2.655   2.492   6.829 -0.0429 -0.4276  0.0543
  192SLPC   C3122222   2.767   2.567   6.819 -0.5165  0.7953 -0.5360
  192SLPC   O3222223   2.833   2.593   6.719  0.0601 -0.0592 -0.2712
  192SLPC   C3222224   2.800   2.613   6.957  0.3795  0.1699 -0.1232
  192SLPC   H2X22225   2.818   2.529   7.029 -0.6085 -0.2194 -0.3164
  192SLPC   H2Y22226   2.706   2.663   6.989 -0.3607  0.0962 -2.0808
  192SLPC   C2322227   2.849   2.118   6.961  0.6883 -0.2586 -0.0901
  192SLPC   H3R22228   2.847   2.033   7.032  2.0829 -1.0309 -0.9158
  192SLPC   H3S22229   2.752   2.172   6.963  1.9651  2.2068 -0.1354
  192SLPC   C2422230   2.961   2.217   7.015 -0.2937 -0.1650 -0.3706
  192SLPC   H4R22231   2.963   2.305   6.947  0.7636  1.9958  2.2894
  192SLPC   H4S22232   3.065   2.177   7.016 -0.0043  0.4805  2.2642
  192SLPC   C2522233   2.939   2.278   7.151 -0.4184  0.4120  0.3936
  192SLPC   H5R22234   2.841   2.331   7.151  0.2633  1.7624 -0.7302
  192SLPC   H5S22235   3.018   2.356   7.162 -0.6186  0.5594  0.8005
  192SLPC   C2622236   2.956   2.183   7.271 -0.1029  0.4688 -0.1505
  192SLPC   H6R22237   3.062   2.150   7.269  0.2942  1.6908 -2.0659
  192SLPC   H6S22238   2.885   2.098   7.261 -0.2450  0.4037  1.1928
  192SLPC   C2722239   2.942   2.259   7.411 -0.5310  0.2045  0.0063
  192SLPC   H7R22240   2.850   2.319   7.422  0.0678  0.9883  0.8662
  192SLPC   H7S22241   3.029   2.327   7.424 -1.4911  1.2842  0.9897
  192SLPC   C2822242   2.967   2.165   7.537 -0.2855  0.1958  0.4654
  192SLPC   H8R22243   3.018   2.222   7.618 -0.7130 -0.3208  1.1106
  192SLPC   H8S22244   3.033   2.087   7.494  0.0331  2.0122 -2.6514
  192SLPC   C2922245   2.836   2.108   7.590  0.2538  0.5540  0.3638
  192SLPC   H9R22246   2.769   2.077   7.508  1.4812  0.4969 -0.6483
  192SLPC  C21022247   2.793   2.094   7.723 -0.0133  0.3638  0.9264
  192SLPC  H10R22248   2.694   2.049   7.740 -0.0881 -0.0337 -0.4421
  192SLPC  C21122249   2.863   2.135   7.849 -0.3758  0.2010  0.7743
  192SLPC  H11R22250   2.943   2.209   7.826 -0.4160 -0.2588 -0.9343
  192SLPC  H11S22251   2.916   2.050   7.896 -1.0108  0.1100  1.3373
  192SLPC  C21222252   2.761   2.193   7.937  0.9227 -1.0640 -0.7587
  192SLPC  H12R22253   2.740   2.297   7.905  0.3621 -1.3686 -1.4087
  192SLPC  C21322254   2.707   2.141   8.050 -0.7518  0.0548 -0.2063
  192SLPC  H13R22255   2.629   2.196   8.105 -1.1048 -3.3693  3.1776
  192SLPC  C21422256   2.724   2.008   8.119 -0.2709  0.5771  0.9459
  192SLPC  H14R22257   2.782   1.945   8.049 -1.8274 -0.7158  0.7567
  192SLPC  H14S22258   2.630   1.950   8.128  0.0425  0.1475  1.4759
  192SLPC  C21522259   2.812   2.008   8.243  0.1981 -0.1159 -0.0462
  192SLPC  H15R22260   2.807   1.907   8.291  1.4342 -0.5065 -0.6877
  192SLPC  H15S22261   2.771   2.073   8.323  0.3056  0.1486 -0.2067
  192SLPC  C21622262   2.952   2.046   8.214 -0.5780  0.0953 -0.4857
  192SLPC  H16R22263   2.960   2.142   8.158 -1.2856  1.5626  1.7835
  192SLPC  H16S22264   2.994   1.969   8.145  1.2447  1.8221 -1.4409
  192SLPC  C21722265   3.042   2.047   8.341  0.6425  0.9709 -0.1106
  192SLPC  H17R22266   3.006   2.133   8.403  0.9753 -0.1833  1.7741
  192SLPC  H17S22267   3.026   1.954   8.399 -1.4746  0.5832 -1.2259
  192SLPC  C21822268   3.189   2.066   8.317 -0.7367  0.6076 -1.0783
  192SLPC  H18R22269   3.207   2.163   8.266 -0.5882  0.0914 -2.0228
  192SLPC  H18S22270   3.236   1.998   8.242 -0.2402 -0.8783  0.5153
  192SLPC  H18T22271   3.234   2.068   8.419 -0.3358  1.7830 -1.2561
  192SLPC   C3322272   2.906   2.726   6.968  0.3520  0.1459  0.6781
  192SLPC   H3X22273   2.856   2.822   6.943  2.1938  1.2617  1.0762
  192SLPC   H3Y22274   2.992   2.704   6.901  1.4162  0.8756  1.7646
  192SLPC   C3422275   2.960   2.729   7.113 -0.0025  0.6680 -0.0247
  192SLPC   H4X22276   3.051   2.793   7.113  1.9833 -1.8441 -3.4889
  192SLPC   H4Y22277   2.991   2.627   7.143 -0.5579  1.0360  1.9668
  192SLPC   C3522278   2.866   2.771   7.226 -0.7821 -0.3181 -0.1027
  192SLPC   H5X22279   2.933   2.743   7.310  2.3146  0.6374 -2.1072
  192SLPC   H5Y22280   2.776   2.708   7.243 -0.3516 -0.8428  0.2586
  192SLPC   C3622281   2.839   2.920   7.226  0.0120  0.1495  0.5759
  192SLPC   H6X22282   2.787   2.944   7.131 -1.7261 -0.4978  1.3357
  192SLPC   H6Y22283   2.937   2.973   7.232  0.2649 -0.3918  1.3151
  192SLPC   C3722284   2.747   2.963   7.337 -0.5056  0.0923  0.1471
  192SLPC   H7X22285   2.787   2.954   7.439 -0.6714 -0.8278  0.1479
  192SLPC   H7Y22286   2.661   2.892   7.329 -0.9491  0.3958  1.9325
  192SLPC   C3822287   2.677   3.099   7.319 -0.1544  0.8072 -0.1553
  192SLPC   H8X22288   2.653   3.106   7.211  1.1555 -0.1124 -0.5312
  192SLPC   H8Y22289   2.757   3.167   7.355  0.8772 -0.1427 -0.5808
  192SLPC   C3922290   2.549   3.118   7.408  0.5124  0.0098 -0.1931
  192SLPC   H9X22291   2.462   3.055   7.380  0.3996 -0.0169  0.1989
  192SLPC   H9Y22292   2.524   3.226   7.400  0.5939  0.0303 -0.1705
  192SLPC  C31022293   2.583   3.091   7.558 -0.6649 -0.1949  0.1022
  192SLPC  H10X22294   2.678   3.148   7.564 -2.3557  2.8739 -0.1423
  192SLPC  H10Y22295   2.595   2.982   7.571 -1.2643 -0.1956  0.7278
  192SLPC  C31122296   2.471   3.143   7.652 -0.3220  0.3825  0.2363
  192SLPC  H11X22297   2.391   3.066   7.655  0.1407 -0.4587 -3.4148
  192SLPC  H11Y22298   2.442   3.241   7.608  0.4754 -0.1441 -1.5790
  192SLPC  C31222299   2.528   3.146   7.796 -0.0033 -0.2176  0.1215
  192SLPC  H12X22300   2.469   3.210   7.866 -0.2320  0.5917 -0.7834
  192SLPC  H12Y22301   2.633   3.179   7.785  0.1671 -0.8464 -0.2057
  192SLPC  C31322302   2.535   3.014   7.871  0.9522  0.6875 -0.8339
  192SLPC  H13X22303   2.569   2.942   7.793  1.5271 -0.1317  0.1481
  192SLPC  H13Y22304   2.431   2.984   7.893  0.7859  0.5185 -1.8074
  192SLPC  C31422305   2.633   3.015   7.986 -0.0806  0.0182  0.2667
  192SLPC  H14X22306   2.594   3.086   8.061  1.1580  0.1487  0.8072
  192SLPC  H14Y22307   2.735   3.039   7.949 -1.2199  1.9995 -1.8735
  192SLPC  C31522308   2.633   2.874   8.053  1.0712  0.4142 -0.0214
  192SLPC  H15X22309   2.616   2.796   7.976 -2.9476  0.7061  0.3754
  192SLPC  H15Y22310   2.545   2.880   8.120  1.4758  0.4035  0.5183
  192SLPC  C31622311   2.758   2.837   8.139 -0.3294  0.6912  0.2146
  192SLPC  H16X22312   2.782   2.930   8.195  1.8774  2.1725 -2.8778
  192SLPC  H16Y22313   2.843   2.821   8.070 -0.3420  2.5933 -0.3094
  192SLPC  C31722314   2.753   2.721   8.238  0.4556  0.3876  0.1907
  192SLPC  H17X22315   2.685   2.739   8.324 -0.3569 -0.4115 -0.2790
  192SLPC  H17Y22316   2.859   2.702   8.268  1.0416 -0.3465 -2.1408
  192SLPC  C31822317   2.696   2.594   8.177 -0.2669  0.3480 -0.3090
  192SLPC  H18X22318   2.590   2.614   8.150 -0.0243  0.9276 -0.8746
  192SLPC  H18Y22319   2.716   2.508   8.244  2.9435  1.1552 -0.0515
  192SLPC  H18Z22320   2.735   2.560   8.078  0.0716 -1.4254  0.3963
  193SOD    SOD22321   3.588   5.161  10.857  0.4630 -0.0016 -0.2121
  194SOD    SOD22322   4.068   3.419  17.092  0.6059  0.1178 -0.3514
  195SOD    SOD22323   5.692   6.685   6.617 -0.2730 -0.3568 -0.3972
  196SOD    SOD22324   1.067   3.965  12.273 -0.5667  0.1122  0.2351
  197SOD    SOD22325   0.842   2.576   3.765  0.9850  0.4743 -0.1803
  198SOD    SOD22326   3.635   5.356  12.913 -0.0117  0.0532 -0.0483
  199SOD    SOD22327   6.095   5.678  13.473 -0.2240  0.3570 -0.1801
  200SOD    SOD22328   2.246   4.885   6.678  0.1115 -0.5871 -0.1313
  201SOD    SOD22329   1.156   6.255   2.034 -0.2609 -0.0335  0.0368
  202SOD    SOD22330   6.492   6.112   4.373 -0.6770  0.1118 -0.4968
  203SOD    SOD22331   0.430   2.390  14.258  0.0160  0.1192  0.1143
  204SOD    SOD22332   2.905   1.671  15.909 -0.1350 -0.2688 -0.4223
  205SOD    SOD22333   4.031   1.957  15.473  0.3123  0.0465 -0.2142
  206SOD    SOD22334   4.010   4.760  12.212  0.3805  0.0526 -0.2728
  207SOD    SOD22335   4.304   0.278  16.905  0.3626 -0.1359 -0.4760
  208SOD    SOD22336   1.539   4.499   4.609  0.1089 -0.0504 -0.5010
  209SOD    SOD22337   3.123   2.048  15.388  0.2695 -0.2802  0.0309
  210SOD    SOD22338   6.212   0.907  14.562 -0.4281 -0.2200 -0.0438
  211SOD    SOD22339   1.802   4.895   0.236  0.0682 -0.2632  0.5840
  212SOD    SOD22340   1.042   0.606   4.378  0.4000 -0.0819  0.2262
  213SOD    SOD22341   4.050   2.538   3.328 -0.3802  0.3143  0.6068
  214SOD    SOD22342   3.682   5.696  12.805 -0.5211  0.3282 -0.2952
  215SOD    SOD22343   5.115   4.559  14.394 -0.4969 -0.0488  0.4880
  216SOD    SOD22344   3.055   1.656   6.187  0.2807 -0.4710 -0.5015
  217SOD    SOD22345   3.920   0.770  10.357  0.6007  0.2610  0.0674
  218SOD    SOD22346   5.311   2.606  14.322 -0.0886 -0.2956 -0.2237
  219SOD    SOD22347   3.366   0.367   5.597  0.6563  0.3697  0.1369
  220SOD    SOD22348   5.910   6.170   3.946  0.1394 -0.4461 -0.8340
  221SOD    SOD22349   2.451   3.649   3.636  0.4760  0.5409 -0.3720
  222SOD    SOD22350   1.042   2.018   2.078 -0.2997  0.5377  0.1683
  223SOD    SOD22351   6.152   2.850  12.834 -0.0312  0.2392  0.1083
  224SOD    SOD22352   5.859   5.171   2.615 -0.1055  0.3675  0.3589
  225SOD    SOD22353   3.691   1.091   5.710  0.2405 -0.1338  0.6647
  226SOD    SOD22354   0.246   1.364  10.884 -0.0415  0.0803 -0.3330
  227SOD    SOD22355   2.252   3.368  11.279 -0.5015  0.6210  0.2120
  228SOD    SOD22356   0.452   3.120   1.110 -0.1526 -0.0782  0.2680
  229SOD    SOD22357   4.407   1.814  10.813 -0.3536  0.1995 -0.3815
  230SOD    SOD22358   2.584   6.449  15.085 -0.3641  0.0036  0.1404
  231SOD    SOD22359   2.933   0.832   4.055 -0.5095 -0.1568  0.2402
  232SOD    SOD22360   0.318   5.046  16.354 -0.3032  0.6236  0.4400
  233SOD    SOD22361   0.661   1.073   2.862 -0.4053  0.2839 -0.6519
  234SOD    SOD22362   3.196   3.677  14.697 -0.3067 -0.0257  0.2592
  235SOD    SOD22363   2.917   0.170   5.485  0.3795 -0.3378  0.0162
  236SOD    SOD22364   1.196   3.048  10.833  0.2934 -0.3179 -0.1095
  237SOD    SOD22365   5.547   5.940   5.568  0.0293  0.1180  0.5142
  238SOD    SOD22366   5.669   1.795  10.787 -0.2849  0.0201  0.0050
  239SOD    SOD22367   3.639   6.514   3.512  0.2036 -0.1977  0.0645
  240SOD    SOD22368   6.205   1.205   6.415 -0.1739  0.1164 -0.0360
  241SOD    SOD22369   2.140   4.522   5.192 -0.5433  0.5412  0.6075
  242SOD    SOD22370   2.010   3.196   0.472 -0.1937  0.3208  0.1751
  243SOD    SOD22371   5.298   0.956  14.319  0.2969 -0.2379  0.2171
  244SOD    SOD22372   5.880   2.326   0.094  0.3133  0.3154 -0.1205
  245SOD    SOD22373   2.726   4.850   2.240 -0.4146  0.0648 -0.0261
  246SOD    SOD22374   2.470   5.670  11.686 -0.3395  0.4357 -0.5254
  247SOD    SOD22375   3.825   3.469   3.435 -0.7397  0.0821  0.8001
  248SOD    SOD22376   2.731   4.240   2.347 -0.1045 -0.3813  0.0371
  249SOD    SOD22377   5.274   3.468  16.040  0.1278 -0.0409  0.2065
  250SOD    SOD22378   1.102   3.798  13.763  0.1681 -0.2191  0.2765
  251SOD    SOD22379   1.047   1.510   6.365  0.2633 -0.0514  0.6403
  252SOD    SOD22380   4.897   2.462  11.350 -0.4780 -0.0556  0.1387
  253SOD    SOD22381   0.816   6.058  15.414 -0.1947 -0.1507  0.3028
  254SOD    SOD22382   4.177   5.133   4.629  0.1125 -0.1821 -0.1489
  255SOD    SOD22383   4.359   2.839  16.542  0.2254 -0.7051  0.4069
  256SOD    SOD22384   1.354   5.777   3.465  0.0486  0.1408 -0.3369
  257SOD    SOD22385   4.323   4.885   5.208 -0.1274 -0.0262  0.5465
  258SOD    SOD22386   4.766   6.142  14.999 -0.0256  0.2511  0.4994
  259SOD    SOD22387   0.515   1.918   2.262 -0.3691  0.3276  0.4332
  260SOD    SOD22388   0.339   1.305   4.711  0.7922 -0.2077 -0.8080
  261SOD    SOD22389   5.608   3.440   5.270  0.2302 -0.4659  0.0578
  262SOD    SOD22390   4.985   2.554   6.750  0.1688 -0.3169  0.0906
  263SOD    SOD22391   3.388   1.575  12.554 -0.0686  0.0390  0.1137
  264SOD    SOD22392   1.460   3.090   3.711 -0.1225 -0.2888  0.4259
  265SOD    SOD22393   1.221   1.681  17.022 -0.0549  0.2069 -0.2611
  266CLA    CLA22394   3.502   0.255   3.453 -0.1854  0.0503 -0.0832
  267CLA    CLA22395   0.158   5.640   0.600 -0.3217  0.1602 -0.0529
  268CLA    CLA22396   4.050   0.312  17.338  0.2973 -0.0376  0.4590
  269CLA    CLA22397   2.800   2.552  13.902 -0.7733 -0.1008  0.2077
  270CLA    CLA22398   6.374   6.195  15.421 -0.0578  0.1859 -0.1231
  271CLA    CLA22399   6.019   0.293  13.855 -0.0787  0.1985 -0.4252
  272CLA    CLA22400   0.576   2.726   2.071  0.0341 -0.0692 -0.0101
  273CLA    CLA22401   4.047   3.647   4.480  0.5063 -0.1519  0.0502
  274CLA    CLA22402   1.280   0.043   4.942  0.3669  0.0980 -0.3011
  275CLA    CLA22403   3.993   1.513   3.550  0.2614  0.0684 -0.3208
  276CLA    CLA22404   3.625   5.482  12.446  0.1413  0.0065 -0.0602
  277CLA    CLA22405   1.225   2.762   5.679  0.1828 -0.0465  0.4857
  278CLA    CLA22406   0.431   0.807   0.550 -0.2098 -0.2273 -0.4548
  279CLA    CLA22407   0.128   0.983   2.896 -0.0601  0.2032  0.0322
  280CLA    CLA22408   1.413   3.313  15.039 -0.3676 -0.0586 -0.3991
  281CLA    CLA22409   1.020   6.029  14.735  0.0627  0.0278  0.2273
  282CLA    CLA22410   1.458   4.349   3.270 -0.3279 -0.3206 -0.0112
  283CLA    CLA22411   2.714   4.242   4.192 -0.0788 -0.2195 -0.2610
  284CLA    CLA22412   1.467   5.926  11.380  0.0306  0.1766  0.0243
  285CLA    CLA22413   4.468   6.751   3.283 -0.0273 -0.0158  0.3051
  286CLA    CLA22414   3.048   3.657  14.174  0.3247  0.4195  0.3241
  287CLA    CLA22415   5.070   4.404   4.342 -0.1946 -0.0869 -0.2688
  288CLA    CLA22416   4.263   5.388  13.725 -0.4871  0.4332  0.2269
  289CLA    CLA22417   1.650   5.837   0.430  0.3728  0.5350 -0.1375
  290CLA    CLA22418   3.495   6.432   3.992  0.0033 -0.2038  0.3784
  291CLA    CLA22419   1.815   1.579   1.251 -0.1648 -0.0637 -0.0910
  292CLA    CLA22420   0.554   2.682  11.892  0.3499 -0.0890 -0.2833
  293CLA    CLA22421   3.618   2.855  14.457  0.3828 -0.0591  0.5585
  294CLA    CLA22422   0.248   3.142  14.384 -0.1788 -0.0783 -0.5873
  295CLA    CLA22423   3.264   3.942  16.425  0.0763  0.4777  0.1145
  296CLA    CLA22424   5.940   1.120  14.971  0.3074 -0.0304  0.1929
  297CLA    CLA22425   1.155   0.390   2.105  0.0340 -0.0410  0.1108
  298CLA    CLA22426   2.634   6.759  14.337  0.0427  0.1505 -0.1372
  299CLA    CLA22427   1.840   4.331  17.023 -0.0080 -0.3682  0.3874
  300CLA    CLA22428   3.663   2.585   2.802 -0.2193 -0.7698 -0.1146
  301CLA    CLA22429   5.449   2.222  14.471  0.0458 -0.1306  0.5036
  302CLA    CLA22430   5.840   1.470   0.224  0.4367 -0.3402 -0.1156
  303CLA    CLA22431   1.256   4.231   2.097 -0.3546  0.0643  0.3153
  304CLA    CLA22432   3.609   2.682  16.871 -0.0285 -0.0553 -0.3193
  305CLA    CLA22433   1.971   2.635   3.439 -0.1532 -0.0790  0.0004
  306CLA    CLA22434   5.409   6.301   3.962  0.2354  0.0384 -0.1576
  307CLA    CLA22435   2.456   1.012  17.282 -0.5251 -0.1415 -0.2554
  308CLA    CLA22436   3.202   6.206   3.482  0.0749  0.2481 -0.0100
  309CLA    CLA22437   0.050   0.026  11.987 -0.6224 -0.3641  0.0300
  310CLA    CLA22438   4.692   1.631  14.779 -0.1719 -0.2138 -0.1743
  311CLA    CLA22439   2.299   3.197   0.315  0.4878 -0.0803  0.3781
  312CLA    CLA22440   2.811   2.800  15.118 -0.2702  0.5102  0.1563
  313CLA    CLA22441   0.807   2.014   3.464  0.3086  0.1266  0.1250
  314CLA    CLA22442   0.694   5.706   4.466  0.0670 -0.0948  0.2152
  315CLA    CLA22443   2.747   6.367  15.712  0.0649 -0.0250 -0.3548
  316CLA    CLA22444   3.895   3.006   1.831 -0.3340 -0.3406  0.0863
  317CLA    CLA22445   4.177   5.248   0.532 -0.2942  0.2723  0.1434
  318CLA    CLA22446   2.653   1.421  15.634  0.1762 -0.1463  0.1566
  319TIP3   OH222447   1.857   4.271   5.660 -0.0133 -0.5127  0.0820
  319TIP3    H122448   1.933   4.218   5.683  0.5861 -0.1724 -1.0739
  319TIP3    H222449   1.794   4.253   5.730  1.0313 -0.9763  0.9326
  320TIP3   OH222450   5.005   1.031   3.506  0.1300 -0.4657 -0.7611
  320TIP3    H122451   4.934   1.030   3.442 -1.8821 -0.5136  1.3594
  320TIP3    H222452   4.986   0.957   3.563  1.5667 -0.1030  0.2220
  321TIP3   OH222453   3.162   0.574   3.708  0.8140 -0.4469 -0.7451
  321TIP3    H122454   3.235   0.514   3.724  2.5653  1.7014 -0.1641
  321TIP3    H222455   3.175   0.605   3.618  2.1271  1.7505  0.1218
  322TIP3   OH222456   3.982   2.223  11.077 -0.2391  0.4198 -0.1624
  322TIP3    H122457   3.963   2.310  11.040 -0.7255  0.5889  0.4639
  322TIP3    H222458   3.899   2.196  11.116  0.3998  0.4732  1.2571
  323TIP3   OH222459   3.999   6.147   2.408 -0.0444  0.5158  0.4636
  323TIP3    H122460   3.918   6.098   2.391 -0.1210  1.1853 -1.3820
  323TIP3    H222461   3.988   6.181   2.496 -1.9103  0.7985  0.1710
  324TIP3   OH222462   4.748   4.518  14.743  0.0756  0.3119  0.3866
  324TIP3    H122463   4.668   4.480  14.705  1.5483 -3.4824  0.6394
  324TIP3    H222464   4.750   4.607  14.709 -2.6085 -0.4386 -2.2560
  325TIP3   OH222465   2.398   5.377   1.369  0.5287  0.1244 -0.2309
  325TIP3    H122466   2.394   5.305   1.431 -0.7773 -0.0793 -0.5201
  325TIP3    H222467   2.317   5.425   1.382  0.7816  0.7770 -0.9522
  326TIP3   OH222468   4.223   1.748  11.998  0.5481 -0.5095  0.3990
  326TIP3    H122469   4.294   1.766  12.059  0.8327  1.2167 -0.3584
  326TIP3    H222470   4.150   1.721  12.053  0.9803  0.3729  1.4449
  327TIP3   OH222471   1.257   3.611  13.588  0.0570  0.3396 -0.4598
  327TIP3    H122472   1.299   3.646  13.667 -0.6886  1.4264 -0.5151
  327TIP3    H222473   1.252   3.517  13.602  2.2734  0.1818 -0.3432
  328TIP3   OH222474   6.390   4.140  13.847  0.1258  0.2261  0.3401
  328TIP3    H122475   6.409   4.221  13.800  2.4977  0.0511  0.8734
  328TIP3    H222476   6.474   4.094  13.851 -1.0013 -1.9466  0.6749
  329TIP3   OH222477   0.736   1.406  10.263 -0.1582  0.0635  0.2897
  329TIP3    H122478   0.647   1.376  10.243 -0.0317 -0.7012  0.8161
  329TIP3    H222479   0.778   1.415  10.178 -0.5258 -0.2720  0.0675
  330TIP3   OH222480   3.621   2.834  16.593  0.4304 -0.1757 -0.1481
  330TIP3    H122481   3.534   2.853  16.560  0.4804  1.3620  0.5324
  330TIP3    H222482   3.607   2.778  16.669  0.1681 -1.4543 -1.1064
  331TIP3   OH222483   5.484   3.781   3.661 -0.0839 -0.7213  0.8310
  331TIP3    H122484   5.465   3.853   3.720 -2.1658 -1.1024  0.6929
  331TIP3    H222485   5.410   3.778   3.601  1.4327 -1.0305 -1.1573
  332TIP3   OH222486   0.991   0.050   1.076  0.3205  0.6295 -0.7182
  332TIP3    H122487   0.940   0.055   0.995  1.9788  0.6188 -1.8088
  332TIP3    H222488   1.043  -0.030   1.067 -0.9034 -0.4770  1.2841
  333TIP3   OH222489   0.382   0.374  11.473  0.3695  0.3308  0.1887
  333TIP3    H122490   0.427   0.290  11.475 -0.5708 -0.2333 -1.0582
  333TIP3    H222491   0.435   0.428  11.414 -0.4764 -0.2951 -1.1860
  334TIP3   OH222492   4.929   2.981  12.725  0.2210  0.5610 -0.1974
  334TIP3    H122493   4.980   2.982  12.806  0.2645 -1.8904 -0.0983
  334TIP3    H222494   4.990   3.009  12.657  0.6113  1.2023  0.4080
  335TIP3   OH222495   2.099   4.654  14.544 -0.2659  0.1601  0.1357
  335TIP3    H122496   2.070   4.661  14.635 -1.2485 -1.8337  0.0447
  335TIP3    H222497   2.022   4.621  14.497  0.2092  1.1826 -1.4456
  336TIP3   OH222498   4.128   5.475  12.531 -0.2614 -0.2035 -0.0244
  336TIP3    H122499   4.177   5.508  12.456 -1.2281  1.2186 -0.0623
  336TIP3    H222500   4.077   5.402  12.497  1.3113 -1.3028 -0.1222
  337TIP3   OH222501   1.413   5.955   4.508 -0.4331  0.2350  0.1901
  337TIP3    H122502   1.351   6.002   4.563  0.4490  0.6088  0.8851
  337TIP3    H222503   1.390   5.863   4.519 -0.4028  0.3226  1.0040
  338TIP3   OH222504   2.172   1.379   0.277  0.6177  0.4229 -0.3994
  338TIP3    H122505   2.224   1.410   0.203  0.9254  0.0840 -0.3264
  338TIP3    H222506   2.229   1.394   0.353 -0.1638  1.9314 -0.0652
  339TIP3   OH222507   3.251   3.188   5.904 -0.1378  0.2160  0.3512
  339TIP3    H122508   3.311   3.177   5.831 -1.8820 -0.2005 -1.0926
  339TIP3    H222509   3.284   3.264   5.951  2.5005 -1.0114  0.6849
  340TIP3   OH222510   3.977   4.974   3.012  0.5614  0.2049  0.2004
  340TIP3    H122511   4.039   4.903   3.027  0.9251  0.7232  1.2374
  340TIP3    H222512   4.002   5.042   3.075 -0.7497  0.6174  0.3083
  341TIP3   OH222513   0.369   1.325   3.968  0.7686  0.4879 -0.0890
  341TIP3    H122514   0.327   1.410   3.975 -1.8808 -0.7267  0.0928
  341TIP3    H222515   0.373   1.306   3.875 -1.1236 -0.2636 -0.0534
  342TIP3   OH222516   3.665   5.181   6.390 -0.2538  1.1234  0.1993
  342TIP3    H122517   3.711   5.107   6.430 -1.5374  1.4605  2.4485
  342TIP3    H222518   3.586   5.143   6.353  0.8121  0.8545 -1.9933
  343TIP3   OH222519   4.209   0.514  15.609  0.1504  0.2058 -0.0833
  343TIP3    H122520   4.288   0.562  15.587  0.6744 -0.4099  0.4059
  343TIP3    H222521   4.237   0.423  15.617 -0.5258  0.0293  0.4557
  344TIP3   OH222522   6.493   0.861   4.751 -0.1210  0.2611 -0.2688
  344TIP3    H122523   6.479   0.801   4.677  2.3842 -0.1831 -0.4725
  344TIP3    H222524   6.429   0.834   4.816 -0.0168 -1.7222 -0.9214
  345TIP3   OH222525   3.115   6.046  15.472  0.0499 -0.0001 -0.0875
  345TIP3    H122526   3.079   6.134  15.461 -0.0196  0.1740  1.3943
  345TIP3    H222527   3.044   5.996  15.512 -0.7150 -1.3792 -2.9128
  346TIP3   OH222528   4.409   5.272  13.200  0.6362 -0.2170 -0.2779
  346TIP3    H122529   4.363   5.281  13.283  1.1355 -1.5043  0.1656
  346TIP3    H222530   4.485   5.329  13.207  0.3194  0.1839 -0.1156
  347TIP3   OH222531   2.120   4.519  15.041  0.5399 -0.8834  0.2445
  347TIP3    H122532   2.081   4.483  14.962  0.3839  0.1010 -0.1503
  347TIP3    H222533   2.063   4.491  15.112  0.3283 -1.2513 -0.0710
  348TIP3   OH222534   0.678   4.503  11.700  0.1623  0.6262 -0.2901
  348TIP3    H122535   0.768   4.529  11.678  0.6556  0.6668  1.5716
  348TIP3    H222536   0.623   4.574  11.667  0.8634  0.9078 -0.8927
  349TIP3   OH222537   4.637   3.816  16.806  0.3492 -0.5413 -0.4291
  349TIP3    H122538   4.675   3.897  16.774 -0.9403 -0.3139 -1.5024
  349TIP3    H222539   4.681   3.747  16.755  1.3815 -0.5331  0.4242
  350TIP3   OH222540   3.263   0.268   1.770 -0.5287  0.1186  0.0799
  350TIP3    H122541   3.202   0.210   1.815 -0.2449  0.5432  1.0389
  350TIP3    H222542   3.343   0.263   1.821 -0.5568  1.4932  0.3152
  351TIP3   OH222543   5.104   1.646  12.455  0.2303 -0.4163  0.2910
  351TIP3    H122544   5.037   1.696  12.409 -0.2600 -0.1703  1.2409
  351TIP3    H222545   5.157   1.606  12.386 -0.5191 -0.1101 -0.4702
  352TIP3   OH222546   1.215   4.358   4.769  0.1345  0.2338 -0.2065
  352TIP3    H122547   1.176   4.366   4.856 -0.3595  3.8692 -0.5809
  352TIP3    H222548   1.148   4.395   4.710  1.9341  1.5083 -1.5717
  353TIP3   OH222549   3.083   4.430  16.900 -0.3108  0.0489  0.1758
  353TIP3    H122550   3.076   4.341  16.934 -3.2247 -0.4007 -1.3269
  353TIP3    H222551   3.163   4.430  16.848  0.3074 -1.3316  1.0739
  354TIP3   OH222552   3.304   4.487   0.771 -0.3493 -0.8061 -0.5181
  354TIP3    H122553   3.317   4.562   0.713 -1.9148 -0.1199 -0.0373
  354TIP3    H222554   3.381   4.489   0.829  0.5942 -0.7550 -1.7466
  355TIP3   OH222555   2.302   4.270  14.015 -0.0634 -0.5565 -0.4157
  355TIP3    H122556   2.387   4.289  14.054 -0.2560 -0.0708 -0.2198
  355TIP3    H222557   2.263   4.356  14.000 -0.2459 -0.7541 -1.1141
  356TIP3   OH222558   0.394   0.472   0.519 -0.6902  0.5153 -0.0015
  356TIP3    H122559   0.311   0.425   0.527 -1.2600  1.5898  0.7836
  356TIP3    H222560   0.372   0.563   0.542  0.5284  1.0018 -0.6642
  357TIP3   OH222561   2.776   2.123  13.848  0.3326 -0.0542 -0.3132
  357TIP3    H122562   2.804   2.032  13.835 -0.3049 -0.1268 -1.2625
  357TIP3    H222563   2.681   2.117  13.862  0.6250  0.2186  2.5094
  358TIP3   OH222564   6.641   2.908  16.829  0.5501 -0.3580 -0.1748
  358TIP3    H122565   6.723   2.954  16.849 -0.7889  1.3072  2.0872
  358TIP3    H222566   6.668   2.825  16.790  3.2794  0.2557  0.2098
  359TIP3   OH222567   5.860   5.483  13.086 -0.2504  0.6556  0.6155
  359TIP3    H122568   5.901   5.561  13.048 -1.4957  0.0908 -2.1341
  359TIP3    H222569   5.787   5.464  13.028 -0.0059 -2.5659  1.2045
  360TIP3   OH222570   3.032   0.994  12.888 -0.0580 -0.3697  0.4730
  360TIP3    H122571   2.943   1.031  12.887  0.7733  1.8058 -0.9881
  360TIP3    H222572   3.077   1.043  12.957  0.8558  0.9493 -0.9844
  361TIP3   OH222573   5.996   2.733  17.328  0.2756 -0.5922  0.4833
  361TIP3    H122574   6.034   2.735  17.416 -0.0140  1.4528  0.6023
  361TIP3    H222575   6.071   2.724  17.270  0.7132  0.5966  0.8418
  362TIP3   OH222576   2.653   2.836   1.235  0.0149  0.2904 -0.5404
  362TIP3    H122577   2.728   2.886   1.202 -0.2987  2.4437  1.7353
  362TIP3    H222578   2.579   2.896   1.229 -0.3988  0.1981  2.2024
  363TIP3   OH222579   5.153   0.515   4.894 -0.1893  0.7730 -0.6833
  363TIP3    H122580   5.188   0.469   4.818 -0.6442 -0.1125 -0.3715
  363TIP3    H222581   5.220   0.504   4.961 -0.7377 -0.3306 -0.2972
  364TIP3   OH222582   6.170   1.797  14.250  0.2378 -0.0070  0.5467
  364TIP3    H122583   6.206   1.718  14.209  0.4205  1.4532 -2.3307
  364TIP3    H222584   6.076   1.793  14.232  0.3062  0.6215  0.0428
  365TIP3   OH222585   2.627   4.787  15.290 -0.4599  0.2873  0.1033
  365TIP3    H122586   2.542   4.744  15.283 -0.2861  0.1568 -1.7542
  365TIP3    H222587   2.655   4.800  15.199  1.9156 -0.4993  0.6301
  366TIP3   OH222588   4.227   2.173   4.780 -0.0011  0.8269 -0.2211
  366TIP3    H122589   4.283   2.160   4.704 -1.1311  1.0988 -1.1392
  366TIP3    H222590   4.157   2.109   4.770 -0.1695  0.8703  0.5937
  367TIP3   OH222591   3.393   2.059  16.894 -0.0465  0.9553 -0.4910
  367TIP3    H122592   3.432   2.032  16.977  2.8676  0.8613 -1.7734
  367TIP3    H222593   3.351   1.980  16.859  0.4370  0.4806 -0.0076
  368TIP3   OH222594   0.683   0.413   5.640 -0.3792  0.2064  0.5834
  368TIP3    H122595   0.608   0.408   5.581  1.0580  0.3179 -1.3805
  368TIP3    H222596   0.697   0.507   5.652 -1.3186  0.1816  2.0340
  369TIP3   OH222597   5.798   4.570   4.934  0.0956  0.3243  0.0280
  369TIP3    H122598   5.857   4.504   4.898  0.4925  1.4266 -1.4241
  369TIP3    H222599   5.829   4.652   4.897 -1.9563  1.0182 -0.2703
  370TIP3   OH222600   5.361   5.041   5.338 -0.0699 -1.0086 -0.3732
  370TIP3    H122601   5.441   5.044   5.285 -0.8161 -0.7555 -1.5068
  370TIP3    H222602   5.312   4.967   5.304 -0.5853 -0.8136 -0.0697
  371TIP3   OH222603   3.478   2.943   5.133 -0.5487  0.5444 -0.1586
  371TIP3    H122604   3.461   3.037   5.127 -0.6321  0.6749  1.6578
  371TIP3    H222605   3.409   2.910   5.190 -0.6024 -0.6566 -0.8968
  372TIP3   OH222606   3.018   2.829  12.493 -0.2338  0.8059  0.0739
  372TIP3    H122607   2.925   2.852  12.501 -0.5142 -0.3631  0.4077
  372TIP3    H222608   3.019   2.755  12.433  0.3217 -0.1336  1.2052
  373TIP3   OH222609   2.194   6.463  17.137  0.0518  0.1015 -0.2968
  373TIP3    H122610   2.250   6.541  17.142  0.3768 -0.0470 -1.4714
  373TIP3    H222611   2.243   6.402  17.082 -0.3277 -0.8382  0.3880
  374TIP3   OH222612   1.874   4.514   4.174  0.1152 -0.3611  0.3294
  374TIP3    H122613   1.793   4.555   4.204  0.9142  2.3855 -0.8669
  374TIP3    H222614   1.862   4.500   4.080  1.1128  0.4609  0.0512
  375TIP3   OH222615   1.999   0.858   0.104 -0.3009 -0.6515  0.4752
  375TIP3    H122616   2.038   0.777   0.072  2.0968  0.6169 -0.0992
  375TIP3    H222617   2.007   0.919   0.031 -2.2059  0.0997  0.8368
  376TIP3   OH222618   0.277   2.723  13.110  0.2155 -0.3026  0.0230
  376TIP3    H122619   0.317   2.653  13.058 -0.8388  0.5833 -2.1261
  376TIP3    H222620   0.189   2.692  13.129  0.4207 -0.3915  0.8824
  377TIP3   OH222621   5.535   2.088   5.557  0.3104 -0.1248  0.4016
  377TIP3    H122622   5.479   2.104   5.632  0.0052 -0.2500  0.2025
  377TIP3    H222623   5.504   2.150   5.490 -1.7385 -2.3172 -0.8328
  378TIP3   OH222624   6.347   0.147   3.529  0.5592 -0.4695 -0.0599
  378TIP3    H122625   6.407   0.219   3.507 -0.6572  0.6428  0.1031
  378TIP3    H222626   6.312   0.118   3.445 -0.9022  0.9349 -0.0027
  379TIP3   OH222627   6.362   4.796  11.462 -0.0079 -0.6174  0.9846
  379TIP3    H122628   6.325   4.737  11.527 -1.1096 -0.8752  0.1475
  379TIP3    H222629   6.363   4.746  11.381  1.1597 -0.2317  0.7447
  380TIP3   OH222630   4.822   4.723  12.504 -0.2416 -0.2064 -0.1186
  380TIP3    H122631   4.756   4.654  12.493  0.0229 -0.4799 -0.0172
  380TIP3    H222632   4.817   4.774  12.423 -2.0902  1.1092  0.7716
  381TIP3   OH222633   4.242   4.858  16.101  0.0422 -0.4092 -0.8425
  381TIP3    H122634   4.322   4.814  16.073  1.4910  1.2254  0.4328
  381TIP3    H222635   4.188   4.789  16.139  1.0883 -1.4835 -1.2623
  382TIP3   OH222636   0.550   2.873  13.895  0.1353  0.1943  0.3361
  382TIP3    H122637   0.483   2.901  13.957  1.0523 -0.2493  1.5804
  382TIP3    H222638   0.543   2.777  13.894  0.0171  0.2030 -0.3923
  383TIP3   OH222639   1.079   3.302  16.998 -0.5679 -0.0064 -0.7754
  383TIP3    H122640   1.052   3.389  17.028 -1.0097  0.3028 -2.0195
  383TIP3    H222641   1.173   3.299  17.015 -0.5085  0.7938 -0.8901
  384TIP3   OH222642   4.345   0.680   3.528 -0.0708 -0.6146  0.1332
  384TIP3    H122643   4.378   0.720   3.608  0.3295 -0.3349 -0.1671
  384TIP3    H222644   4.293   0.749   3.486  0.7280 -0.3385 -0.4507
  385TIP3   OH222645   2.184   2.057   4.375 -0.3181  0.0852  0.4265
  385TIP3    H122646   2.243   1.995   4.332 -1.2296 -0.6260  0.1724
  385TIP3    H222647   2.099   2.042   4.334 -0.4682  1.8241  0.0595
  386TIP3   OH222648   2.128   0.319   2.103 -0.0104 -0.1192 -0.3616
  386TIP3    H122649   2.181   0.341   2.180  0.5334  1.5377 -1.1484
  386TIP3    H222650   2.120   0.224   2.105  1.8580 -0.3012  0.5450
  387TIP3   OH222651   5.500   4.649  15.079 -0.4635 -0.7223  0.6440
  387TIP3    H122652   5.571   4.624  15.137 -1.4374 -2.4516  1.1618
  387TIP3    H222653   5.539   4.650  14.992  0.6860  0.5393  1.1341
  388TIP3   OH222654   6.306   3.209   4.277 -0.1536 -0.2294 -0.1837
  388TIP3    H122655   6.399   3.212   4.253  0.3803 -3.1351  1.0073
  388TIP3    H222656   6.305   3.230   4.370 -0.4294 -1.6050  0.1568
  389TIP3   OH222657   0.685   6.046  11.855  0.1770  0.3015 -0.3116
  389TIP3    H122658   0.601   6.059  11.811  0.2991 -0.7259 -0.8793
  389TIP3    H222659   0.665   5.996  11.933  0.3670 -0.7923 -0.9493
  390TIP3   OH222660   3.922   1.689   5.459  0.4934 -0.5652  0.0777
  390TIP3    H122661   4.005   1.695   5.507 -0.1713 -2.0657  1.5202
  390TIP3    H222662   3.874   1.618   5.503 -0.8565 -0.8838 -1.7997
  391TIP3   OH222663   0.122   5.560   6.933 -0.5599  0.2132 -0.2593
  391TIP3    H122664   0.139   5.629   6.997 -3.4134  1.4429 -0.6784
  391TIP3    H222665   0.134   5.602   6.848  1.9060 -1.0588 -0.6364
  392TIP3   OH222666   3.428   3.313   4.219  0.3949  0.0022 -0.6820
  392TIP3    H122667   3.497   3.361   4.265  0.1860  0.0969 -0.4643
  392TIP3    H222668   3.364   3.291   4.287 -0.1265  0.5147 -0.9941
  393TIP3   OH222669   0.722   5.510  14.407 -0.2883 -0.5696  0.8353
  393TIP3    H122670   0.721   5.417  14.384 -1.3028 -0.4936  0.5428
  393TIP3    H222671   0.800   5.544  14.362 -0.1634 -1.1843  0.5735
  394TIP3   OH222672   6.458   3.102  13.007 -0.3189  0.1530  0.1359
  394TIP3    H122673   6.548   3.082  12.983 -0.7534 -2.2494  0.2237
  394TIP3    H222674   6.465   3.166  13.078  1.4090 -1.2616  1.3157
  395TIP3   OH222675   5.911   0.788  14.051 -0.1964 -0.2687  0.1453
  395TIP3    H122676   5.919   0.695  14.074 -1.0592 -0.3135  0.2843
  395TIP3    H222677   5.984   0.804  13.992  0.0786 -0.9913  0.2755
  396TIP3   OH222678   3.369   1.547  12.979 -0.4060 -0.0426 -0.1917
  396TIP3    H122679   3.333   1.476  13.032 -1.5297  0.2297 -0.5637
  396TIP3    H222680   3.464   1.542  12.994 -0.5764 -0.8252  0.7581
  397TIP3   OH222681   1.370   1.072  13.817  0.1113  0.1751 -0.4098
  397TIP3    H122682   1.288   1.033  13.787  0.6317 -1.1715 -0.1509
  397TIP3    H222683   1.431   0.999  13.823  1.1982  1.0717 -0.1029
  398TIP3   OH222684   5.631   6.232  11.585  0.2149  0.6202 -0.6973
  398TIP3    H122685   5.706   6.287  11.564  1.1373 -0.6597 -0.8583
  398TIP3    H222686   5.625   6.171  11.512  0.5217 -0.8317  0.4419
  399TIP3   OH222687   2.130   3.825  16.550  0.0151 -0.1943  0.3390
  399TIP3    H122688   2.163   3.743  16.514  0.5148  0.8399 -1.7393
  399TIP3    H222689   2.039   3.829  16.521 -0.1325 -0.2032  0.7955
  400TIP3   OH222690   4.346   4.120  12.648  0.2205 -0.5114 -0.3210
  400TIP3    H122691   4.387   4.142  12.732  1.8645  0.2822 -1.2843
  400TIP3    H222692   4.260   4.161  12.651 -0.5768 -2.1447  1.7324
  401TIP3   OH222693   0.947   3.723   2.646  0.2905  0.4533 -0.1049
  401TIP3    H122694   0.898   3.662   2.590 -1.7037  2.0558 -0.2333
  401TIP3    H222695   0.919   3.701   2.734  0.0561  0.7645 -0.1010
  402TIP3   OH222696   2.662   1.903  13.393 -0.0372 -0.4704  0.2285
  402TIP3    H122697   2.569   1.915  13.411  0.3029  0.4241  1.4990
  402TIP3    H222698   2.698   1.870  13.475  1.4320  2.9122  1.0872
  403TIP3   OH222699   2.426   5.793   1.807  0.0915  0.1891  0.1522
  403TIP3    H122700   2.411   5.887   1.816 -0.3574  0.0250  1.1834
  403TIP3    H222701   2.412   5.776   1.714 -0.2253  1.0731  0.0256
  404TIP3   OH222702   1.124   1.123  12.594  0.1669  0.4058 -0.5267
  404TIP3    H122703   1.196   1.061  12.584  0.4398  0.6292  0.0302
  404TIP3    H222704   1.125   1.174  12.513  1.2228  1.0224 -0.1434
  405TIP3   OH222705   3.048   0.101  16.291  0.6476 -0.1550  0.5376
  405TIP3    H122706   3.122   0.057  16.248 -0.3055 -0.5793 -0.7448
  405TIP3    H222707   3.070   0.194  16.287  0.9479 -0.2460 -0.2114
  406TIP3   OH222708   4.428   0.660  15.567  0.0796 -0.3668 -0.0222
  406TIP3    H122709   4.435   0.699  15.479  0.5576 -0.8926 -0.2187
  406TIP3    H222710   4.480   0.718  15.623  0.8308 -0.7399 -0.3229
  407TIP3   OH222711   3.853   0.772   5.072 -0.1094 -0.1024  0.0080
  407TIP3    H122712   3.764   0.805   5.063 -0.0014 -0.3036 -2.2661
  407TIP3    H222713   3.859   0.702   5.007  0.9830 -1.7966  1.7974
  408TIP3   OH222714   3.487   4.989  15.305  0.0445  0.4322 -0.6546
  408TIP3    H122715   3.406   5.039  15.290 -0.4924 -0.6709 -1.6336
  408TIP3    H222716   3.539   5.003  15.226  0.6616  0.8355 -0.1841
  409TIP3   OH222717   2.937   2.588   1.745  0.2942 -0.0290 -0.0336
  409TIP3    H122718   3.005   2.618   1.805  1.2272  1.2223 -1.6268
  409TIP3    H222719   2.959   2.496   1.729  0.0540 -0.3683  1.4635
  410TIP3   OH222720   1.496   4.642  13.387  0.0673 -0.0423 -0.0951
  410TIP3    H122721   1.578   4.618  13.343  0.7914  0.8562  0.7114
  410TIP3    H222722   1.476   4.730  13.353  0.6589  0.6846  1.3377
  411TIP3   OH222723   4.346   2.521  16.211  0.6491 -0.0056  0.4845
  411TIP3    H122724   4.268   2.577  16.207 -0.3255 -1.3955 -1.8734
  411TIP3    H222725   4.313   2.433  16.229  1.6062 -0.6879 -0.9112
  412TIP3   OH222726   1.624   4.780  12.105  0.4119 -0.2622  0.4958
  412TIP3    H122727   1.707   4.827  12.101 -0.2689  1.0231  0.6552
  412TIP3    H222728   1.581   4.800  12.022  0.3621 -1.1349  0.3010
  413TIP3   OH222729   5.764   1.136   4.739  0.5609  0.3364 -0.7389
  413TIP3    H122730   5.849   1.179   4.724  1.1556 -0.9333 -1.1436
  413TIP3    H222731   5.782   1.071   4.807  0.3375 -1.0701 -1.9673
  414TIP3   OH222732   1.845   2.783   2.672 -0.5576  0.2135 -0.5140
  414TIP3    H122733   1.763   2.827   2.698  0.2379  1.2097  0.3790
  414TIP3    H222734   1.903   2.854   2.646  1.4362 -0.0099  2.7758
  415TIP3   OH222735   5.998   3.202   5.403 -0.3981  0.0610 -0.2398
  415TIP3    H122736   5.916   3.196   5.453 -0.5441 -2.1005 -0.6256
  415TIP3    H222737   6.053   3.133   5.440  1.6525  2.0593  0.6193
  416TIP3   OH222738   6.742   2.908   4.982  0.9691 -0.3554 -0.1095
  416TIP3    H122739   6.660   2.894   4.934  0.0486 -1.6788  1.7544
  416TIP3    H222740   6.716   2.919   5.073  2.8249 -0.1222  0.4419
  417TIP3   OH222741   3.713   5.434   5.294 -0.2879 -0.3519 -0.3333
  417TIP3    H122742   3.627   5.410   5.260  0.2575 -2.7903 -0.1180
  417TIP3    H222743   3.703   5.435   5.389 -0.2931  0.3432 -0.3337
  418TIP3   OH222744   6.488   0.524   4.611 -0.1500 -0.1517 -0.0372
  418TIP3    H122745   6.443   0.575   4.544  0.0359 -0.1368 -0.1526
  418TIP3    H222746   6.427   0.521   4.685  0.4651  1.6366  0.6008
  419TIP3   OH222747   5.883   0.699  14.605 -0.5059 -0.3286 -0.0934
  419TIP3    H122748   5.891   0.719  14.698  1.3113 -0.2457 -0.2204
  419TIP3    H222749   5.933   0.619  14.593 -2.7853 -1.7566 -0.6238
  420TIP3   OH222750   1.329   0.141   5.638  0.3693 -0.0469 -0.0926
  420TIP3    H122751   1.420   0.163   5.617 -0.5549  1.1250 -3.3904
  420TIP3    H222752   1.333   0.051   5.669  2.5419 -0.5087 -1.5099
  421TIP3   OH222753   5.105   6.145   1.636 -0.2106  0.3162 -0.0274
  421TIP3    H122754   5.041   6.078   1.613 -0.5805  0.2555  1.1088
  421TIP3    H222755   5.067   6.227   1.604  0.7441 -0.0926 -2.4060
  422TIP3   OH222756   0.027   0.842   0.879  0.5620  0.1108  0.0426
  422TIP3    H122757   0.067   0.922   0.913  0.1866 -0.2720  1.4544
  422TIP3    H222758   0.100   0.794   0.840  1.0620  0.4911  0.4829
  423TIP3   OH222759   2.426   0.544  12.163  0.0171  0.0236 -0.2416
  423TIP3    H122760   2.461   0.475  12.107 -0.3769 -0.0319 -0.4221
  423TIP3    H222761   2.411   0.617  12.104 -1.5927 -0.4469 -0.4714
  424TIP3   OH222762   4.593   2.065  14.282  0.6245 -0.6823 -0.5416
  424TIP3    H122763   4.620   2.061  14.191 -2.7789 -4.2785 -1.6764
  424TIP3    H222764   4.673   2.047  14.332  2.2786 -0.1070 -2.8591
  425TIP3   OH222765   0.280   0.455   4.747  0.0205  0.0746  0.7640
  425TIP3    H122766   0.351   0.466   4.684  0.7191  0.2627  1.5660
  425TIP3    H222767   0.288   0.365   4.777 -0.5098 -0.1130  0.3654
  426TIP3   OH222768   4.678   1.602   1.982  0.1942  0.5399 -0.1996
  426TIP3    H122769   4.713   1.676   1.933  2.9381 -0.4491  0.1144
  426TIP3    H222770   4.694   1.625   2.074 -0.2032  0.1471 -0.0309
  427TIP3   OH222771   6.293   5.436   5.621  0.3405 -0.3629  0.6630
  427TIP3    H122772   6.383   5.415   5.596 -0.7638 -0.5191 -3.9870
  427TIP3    H222773   6.244   5.355   5.604 -1.3040  0.9358 -1.1674
  428TIP3   OH222774   6.696   6.004   4.377 -0.1694  0.2389 -0.2393
  428TIP3    H122775   6.777   6.053   4.394 -0.1914 -0.3280  1.7963
  428TIP3    H222776   6.710   5.920   4.422 -1.6752 -0.0679 -0.3159
  429TIP3   OH222777   5.685   0.242  13.866  0.6268  0.0813 -0.2708
  429TIP3    H122778   5.776   0.266  13.883 -0.0257  1.7900  1.1316
  429TIP3    H222779   5.691   0.167  13.807  3.0135 -1.8479  2.1422
  430TIP3   OH222780   4.338   1.131  13.071 -0.4628 -0.5815 -0.0645
  430TIP3    H122781   4.324   1.092  12.985 -2.3731  1.5183 -0.8036
  430TIP3    H222782   4.250   1.138  13.109  0.1404  0.2732  1.2451
  431TIP3   OH222783   0.221   4.438  17.349  0.6527  0.4499  0.2278
  431TIP3    H122784   0.163   4.511  17.373  0.3652 -0.0290  1.0362
  431TIP3    H222785   0.233   4.447  17.255 -0.7619  0.5331  0.0386
  432TIP3   OH222786   1.509   3.666  12.172  0.4354 -0.2978  0.2537
  432TIP3    H122787   1.575   3.699  12.233  0.6911 -0.1556 -0.0924
  432TIP3    H222788   1.463   3.598  12.220 -0.4742  0.9314  1.1872
  433TIP3   OH222789   4.020   0.381  10.631 -0.2396 -0.1872 -0.0369
  433TIP3    H122790   4.037   0.348  10.543 -1.8319 -0.7656 -0.1560
  433TIP3    H222791   3.934   0.346  10.654 -0.5310  1.2109  1.1515
  434TIP3   OH222792   1.872   0.722  16.241  0.0257 -0.1345  0.0848
  434TIP3    H122793   1.967   0.738  16.241  0.4194 -1.9820  1.6492
  434TIP3    H222794   1.855   0.677  16.158  0.5705 -0.0054 -0.1000
  435TIP3   OH222795   2.235   2.038   1.545 -0.3102 -0.3730  0.0406
  435TIP3    H122796   2.249   2.126   1.581 -1.3688  0.6421 -1.8985
  435TIP3    H222797   2.321   2.011   1.513 -0.1276  0.2581 -0.0043
  436TIP3   OH222798   6.360   0.181   3.785 -0.3602  0.2575  0.6288
  436TIP3    H122799   6.418   0.257   3.779 -1.4624  1.2253  1.6333
  436TIP3    H222800   6.324   0.171   3.697 -0.2675  0.9702  0.5031
  437TIP3   OH222801   6.343   0.237  13.769  0.1136 -0.8264  0.4422
  437TIP3    H122802   6.248   0.245  13.781 -0.1453 -1.3619 -1.0150
  437TIP3    H222803   6.357   0.144  13.752  0.7157 -0.5663 -0.6111
  438TIP3   OH222804   6.168   4.956  17.058 -0.3991 -0.0657  0.1175
  438TIP3    H122805   6.232   4.885  17.060 -1.5694 -1.1614  0.8659
  438TIP3    H222806   6.151   4.975  17.150 -0.5344  0.7932 -0.0757
  439TIP3   OH222807   0.103   2.641  12.327  0.5431  0.0292  0.5289
  439TIP3    H122808   0.090   2.674  12.238  1.5079 -0.7062  0.1018
  439TIP3    H222809   0.025   2.588  12.344  0.8825 -0.7604 -0.3220
  440TIP3   OH222810   1.029   1.210   0.913 -0.4532  0.2611 -0.1939
  440TIP3    H122811   1.041   1.116   0.904 -2.3446 -0.1925  1.2400
  440TIP3    H222812   0.960   1.232   0.850  0.8417  0.9573 -1.4151
  441TIP3   OH222813   3.248   1.484  12.695  0.2081 -0.1899  0.6190
  441TIP3    H122814   3.267   1.514  12.784  1.9505  0.0320  0.2067
  441TIP3    H222815   3.172   1.428  12.705  0.1705  0.0864  2.2056
  442TIP3   OH222816   3.823   2.135   0.033 -0.1532  0.1410  0.3589
  442TIP3    H122817   3.809   2.145   0.127  0.9816  0.7853  0.4787
  442TIP3    H222818   3.785   2.049   0.012  0.3372 -0.3951  1.5585
  443TIP3   OH222819   3.351   6.685   0.383 -0.7254 -0.1235  0.3170
  443TIP3    H122820   3.418   6.753   0.391 -1.1847  0.2253  1.2206
  443TIP3    H222821   3.314   6.677   0.470  0.8638 -3.1477  0.8368
  444TIP3   OH222822   2.317   1.984   5.389  0.1203  0.0925  0.0907
  444TIP3    H122823   2.348   2.072   5.412  0.9333 -0.2718  0.4618
  444TIP3    H222824   2.251   1.963   5.456 -0.8671  0.8267 -0.6276
  445TIP3   OH222825   3.208   0.549   1.770 -0.3744  0.0566 -0.0599
  445TIP3    H122826   3.235   0.465   1.733  2.1088  1.4110 -1.5767
  445TIP3    H222827   3.144   0.583   1.707 -0.5147 -0.1847 -0.0483
  446TIP3   OH222828   5.946   4.827   0.953 -0.3036 -0.6326 -0.1867
  446TIP3    H122829   5.967   4.912   0.914 -0.3578  0.0396  1.2189
  446TIP3    H222830   6.000   4.765   0.904  0.9982  0.4236 -0.1361
  447TIP3   OH222831   4.774   2.768   1.489  0.0125  0.0008 -0.5898
  447TIP3    H122832   4.868   2.785   1.500 -0.2550  1.0870  0.1704
  447TIP3    H222833   4.770   2.688   1.436  1.3644 -0.1930 -0.4289
  448TIP3   OH222834   2.920   4.836  16.762  0.2181  0.2439  0.0758
  448TIP3    H122835   2.876   4.756  16.733  0.7182 -0.1146  0.2785
  448TIP3    H222836   2.849   4.896  16.784 -0.2064  0.7909 -2.5039
  449TIP3   OH222837   2.583   1.660  12.936 -0.8697  0.0503 -0.3546
  449TIP3    H122838   2.575   1.697  13.024 -1.0028  0.9154 -0.7271
  449TIP3    H222839   2.636   1.723  12.887 -0.8251 -0.4073 -0.9093
  450TIP3   OH222840   6.450   0.419  15.478 -0.2922 -0.8158  0.5266
  450TIP3    H122841   6.444   0.494  15.418  3.1552 -0.4040  0.4604
  450TIP3    H222842   6.419   0.345  15.427 -0.8921  0.0904 -0.4738
  451TIP3   OH222843   6.762   2.720   3.018  0.4903  0.0641  0.5077
  451TIP3    H122844   6.763   2.726   3.113  1.2733  0.6577  0.4697
  451TIP3    H222845   6.824   2.650   2.997 -1.0860 -1.4031  0.4926
  452TIP3   OH222846   4.637   1.417   2.396 -0.1315  0.2200 -0.3689
  452TIP3    H122847   4.674   1.499   2.363  0.7823  0.9796  2.2866
  452TIP3    H222848   4.604   1.372   2.318  2.2263  1.6430 -2.3189
  453TIP3   OH222849   6.148   0.877  13.961 -0.8227  0.2579  0.0714
  453TIP3    H122850   6.202   0.799  13.970 -0.0823  0.7868  0.3412
  453TIP3    H222851   6.197   0.945  14.008 -0.2348  1.4780 -2.1516
  454TIP3   OH222852   4.005   5.275   3.947 -0.3087 -0.2510  0.2305
  454TIP3    H122853   4.027   5.244   4.035 -2.6133 -2.6295  0.0974
  454TIP3    H222854   4.088   5.306   3.911  0.9601 -0.4959  2.7483
  455TIP3   OH222855   2.437   2.951  12.320 -0.4812 -0.1037  0.1054
  455TIP3    H122856   2.362   2.999  12.354 -1.2361 -0.8150 -0.5122
  455TIP3    H222857   2.434   2.866  12.364 -0.2011 -0.2368 -0.1240
  456TIP3   OH222858   4.391   2.377  11.746  0.4805 -0.0890 -0.0934
  456TIP3    H122859   4.372   2.288  11.714  0.9675 -0.2951  0.1880
  456TIP3    H222860   4.479   2.371  11.783 -0.8695 -0.4564  3.4315
  457TIP3   OH222861   1.282   4.335   5.926  0.3388 -0.0408 -1.0160
  457TIP3    H122862   1.228   4.279   5.870 -1.3960 -0.7411  1.2145
  457TIP3    H222863   1.222   4.400   5.961  1.5475  0.8969 -0.5894
  458TIP3   OH222864   5.106   1.598   3.241  0.2492 -0.1075 -0.5736
  458TIP3    H122865   5.118   1.519   3.294  1.0913 -0.4964 -1.3260
  458TIP3    H222866   5.015   1.624   3.257  0.5188 -0.1147  1.1943
  459TIP3   OH222867   3.464   4.809  14.973  0.2606 -0.4084  0.2016
  459TIP3    H122868   3.408   4.886  14.965 -1.1329 -1.5696 -2.4245
  459TIP3    H222869   3.413   4.747  15.024  1.0030  0.0046  1.5066
  460TIP3   OH222870   2.832   3.945  10.734 -0.4476  0.6548  0.4705
  460TIP3    H122871   2.778   3.866  10.727 -2.0214  1.5554  1.7710
  460TIP3    H222872   2.837   3.963  10.828  0.4618  1.7057  0.2410
  461TIP3   OH222873   1.211   0.183   2.710 -0.4247 -0.5419 -0.2419
  461TIP3    H122874   1.165   0.159   2.630 -1.3355 -0.1942  0.1682
  461TIP3    H222875   1.199   0.277   2.718 -1.3496 -0.7285  0.8981
  462TIP3   OH222876   5.746   6.262   1.594  0.2569  0.0397 -0.0033
  462TIP3    H122877   5.707   6.285   1.509  0.0793  0.2959  0.1461
  462TIP3    H222878   5.703   6.320   1.656  1.0196  0.4610  0.1408
  463TIP3   OH222879   0.687   2.940   4.075 -0.1362 -0.3086 -0.4738
  463TIP3    H122880   0.702   2.874   4.143  1.2957 -0.0355 -0.4910
  463TIP3    H222881   0.624   3.001   4.114  0.3635 -0.3751  0.4617
  464TIP3   OH222882   5.408   2.019   3.207  0.3466 -0.5671  0.0319
  464TIP3    H122883   5.353   2.097   3.197  1.3559  0.2028  0.3210
  464TIP3    H222884   5.428   1.992   3.117  1.4110  0.5461 -0.0780
  465TIP3   OH222885   0.640   2.505   1.883  0.0040  0.1353 -0.1879
  465TIP3    H122886   0.566   2.524   1.826 -0.6285 -1.2897  0.1061
  465TIP3    H222887   0.637   2.572   1.950 -0.2880  0.7972 -0.8487
  466TIP3   OH222888   4.416   2.187   1.907  0.2142  0.0370  0.0684
  466TIP3    H122889   4.324   2.159   1.902  0.1229  0.1063  1.0822
  466TIP3    H222890   4.466   2.106   1.899  0.0554 -0.0232 -0.3077
  467TIP3   OH222891   6.775   6.572   0.288 -0.2894 -0.1855 -0.2668
  467TIP3    H122892   6.871   6.574   0.278 -0.3229  0.2247 -0.5426
  467TIP3    H222893   6.751   6.663   0.302 -0.5599 -0.3915  0.6719
  468TIP3   OH222894   3.851   1.269   3.411  0.0044 -0.3556 -0.3093
  468TIP3    H122895   3.767   1.255   3.455  0.9170 -0.8225  1.4004
  468TIP3    H222896   3.884   1.350   3.449 -0.0134  0.2595 -1.5665
  469TIP3   OH222897   0.077   0.583  15.484 -0.4977  0.2697 -0.2980
  469TIP3    H122898   0.019   0.510  15.465  1.1177 -1.0252 -0.4396
  469TIP3    H222899   0.071   0.639  15.407  1.3035 -1.8061 -2.0758
  470TIP3   OH222900   0.613   2.645  13.082 -0.3831 -0.0917 -0.1994
  470TIP3    H122901   0.617   2.675  13.173  0.4969  0.1269 -0.3030
  470TIP3    H222902   0.617   2.725  13.030  2.4214 -0.3234 -0.4880
  471TIP3   OH222903   2.430   0.455   4.601  0.5197  0.2480  0.0785
  471TIP3    H122904   2.485   0.528   4.574 -0.6569  1.1028 -0.0968
  471TIP3    H222905   2.450   0.385   4.540  0.8412  0.8135 -0.4748
  472TIP3   OH222906   0.444   1.705   5.740  0.4429  0.0551  0.3479
  472TIP3    H122907   0.384   1.733   5.671 -0.6716  1.2644  1.7454
  472TIP3    H222908   0.445   1.610   5.734 -1.1244  0.0484 -0.1180
  473TIP3   OH222909   0.788   6.287   2.809 -0.3106  0.5351 -0.1121
  473TIP3    H122910   0.707   6.254   2.770 -0.2870 -0.1016  0.3691
  473TIP3    H222911   0.760   6.333   2.888 -0.0692 -1.2405  1.0447
  474TIP3   OH222912   1.921   6.772  14.469 -0.0725  0.0300  0.7251
  474TIP3    H122913   1.974   6.851  14.459  0.1169 -0.1696  0.0636
  474TIP3    H222914   1.979   6.709  14.512  0.6145 -0.5253 -0.9044
  475TIP3   OH222915   4.603   4.178  14.730  0.6683  0.8610 -0.2269
  475TIP3    H122916   4.546   4.149  14.659 -1.3002 -0.7841  1.8727
  475TIP3    H222917   4.666   4.106  14.740  1.5924  1.5515 -0.9166
  476TIP3   OH222918   4.181   2.443   5.797  0.1970 -0.0432 -0.7778
  476TIP3    H122919   4.187   2.456   5.703  0.1719 -0.0863 -0.7851
  476TIP3    H222920   4.225   2.359   5.813 -1.2823 -0.8790 -0.9617
  477TIP3   OH222921   3.895   3.591   1.297  0.1814  0.6626  0.0386
  477TIP3    H122922   3.859   3.503   1.284  0.2418  0.5069  0.8565
  477TIP3    H222923   3.873   3.638   1.217 -0.6257  0.1666 -0.0398
  478TIP3   OH222924   5.317   6.257  13.332  0.3632  0.2609 -0.9073
  478TIP3    H122925   5.337   6.350  13.346  0.7560  0.0912 -0.3080
  478TIP3    H222926   5.233   6.257  13.286  1.1040  0.9623 -2.3258
  479TIP3   OH222927   6.486   4.287  17.000 -0.4142 -0.6587  0.2337
  479TIP3    H122928   6.477   4.192  17.013 -1.1747 -0.6570 -0.2524
  479TIP3    H222929   6.410   4.324  17.043 -0.5266 -0.3215 -0.2526
  480TIP3   OH222930   5.248   0.426  15.880  0.6606  0.2893 -0.6130
  480TIP3    H122931   5.281   0.337  15.884  0.7431  0.2619 -1.6152
  480TIP3    H222932   5.317   0.480  15.918  1.0482  0.0330 -0.9498
  481TIP3   OH222933   5.521   5.509  14.840  0.3942  0.6814 -0.2224
  481TIP3    H122934   5.616   5.518  14.834  0.6671 -1.1905  0.6093
  481TIP3    H222935   5.488   5.563  14.769  1.9085  3.6310  1.1336
  482TIP3   OH222936   5.969   5.684  12.952 -0.0833 -0.4870  0.3753
  482TIP3    H122937   6.044   5.672  12.894 -0.0134 -0.3237  0.4326
  482TIP3    H222938   5.895   5.701  12.894 -0.5067 -2.6767  0.1692
  483TIP3   OH222939   0.626   0.250  14.334  0.0101  1.0155 -0.0884
  483TIP3    H122940   0.642   0.231  14.241 -0.7813 -0.2600  0.0063
  483TIP3    H222941   0.696   0.205  14.380 -0.2351  0.6990 -0.0182
  484TIP3   OH222942   2.347   1.392  17.239 -0.8210 -0.3234  0.0170
  484TIP3    H122943   2.275   1.449  17.210 -0.3338  0.1799 -0.2164
  484TIP3    H222944   2.390   1.441  17.309  1.1560  0.7731 -1.8466
  485TIP3   OH222945   4.592   4.128   0.846  0.6326 -0.0728  0.6290
  485TIP3    H122946   4.498   4.122   0.865  0.7366  0.1976  1.2594
  485TIP3    H222947   4.625   4.039   0.863  0.0965 -0.8468 -1.9777
  486TIP3   OH222948   5.525   1.874  11.428 -1.6084  0.2781 -0.4553
  486TIP3    H122949   5.467   1.918  11.366 -3.2635  0.9765  1.5059
  486TIP3    H222950   5.499   1.782  11.424 -1.4455  0.2566 -1.0633
  487TIP3   OH222951   4.226   0.749   0.472  0.3613 -0.2433 -0.2811
  487TIP3    H122952   4.221   0.705   0.387  0.5816 -0.3218 -0.2514
  487TIP3    H222953   4.158   0.817   0.467  0.7830  0.1479 -0.7457
  488TIP3   OH222954   3.742   5.310   5.764  0.3481  0.2317  0.6565
  488TIP3    H122955   3.768   5.402   5.752  0.8165  0.0487  0.2183
  488TIP3    H222956   3.791   5.263   5.696 -1.2220 -0.1184 -0.2877
  489TIP3   OH222957   1.640   4.345   4.761 -0.2225 -0.2357 -0.2407
  489TIP3    H122958   1.571   4.288   4.796 -1.4387  1.8780  1.0393
  489TIP3    H222959   1.691   4.371   4.837 -0.6434  1.5529 -0.5273
  490TIP3   OH222960   1.382   0.709  16.091 -0.4805 -0.3719 -0.5064
  490TIP3    H122961   1.405   0.685  16.001  0.7416 -1.1155 -0.0137
  490TIP3    H222962   1.466   0.727  16.133 -0.9738 -0.8078  0.7009
  491TIP3   OH222963   5.819   5.747  12.735  0.0297 -0.6574 -0.5937
  491TIP3    H122964   5.727   5.760  12.714  0.1875 -0.1535 -1.0139
  491TIP3    H222965   5.841   5.662  12.696 -0.4194 -1.1007  0.0969
  492TIP3   OH222966   3.665   1.606   2.660  0.1898  0.0888  0.4562
  492TIP3    H122967   3.753   1.573   2.679  0.4778 -0.5103 -1.7222
  492TIP3    H222968   3.620   1.533   2.619 -0.7338  0.9566 -0.1193
  493TIP3   OH222969   3.284   2.295   4.973 -0.3507 -0.5572 -0.4598
  493TIP3    H122970   3.214   2.255   4.922 -0.3759  0.8530 -1.5909
  493TIP3    H222971   3.357   2.303   4.912 -0.1807  0.6050 -0.1261
  494TIP3   OH222972   2.131   0.331  13.677 -0.4812 -0.6667 -0.0014
  494TIP3    H122973   2.195   0.388  13.719 -1.1294 -0.4821  0.7539
  494TIP3    H222974   2.176   0.247  13.669 -0.8982 -1.2257  2.6932
  495TIP3   OH222975   2.707   3.239  12.324 -0.0727  0.0461  0.2471
  495TIP3    H122976   2.718   3.324  12.281  0.6701 -0.7041 -1.1328
  495TIP3    H222977   2.794   3.200  12.321 -0.6480 -1.2470 -0.2329
  496TIP3   OH222978   2.686   2.091   5.414  0.9386 -0.3697 -0.2704
  496TIP3    H122979   2.714   2.114   5.503 -0.1338  0.1385 -0.0474
  496TIP3    H222980   2.598   2.129   5.406  1.5460  0.7805 -2.0263
  497TIP3   OH222981   6.449   5.851  15.350  0.0003  0.0455 -0.2458
  497TIP3    H122982   6.447   5.937  15.393  0.8822 -0.0278 -0.0437
  497TIP3    H222983   6.373   5.805  15.386 -2.4959  1.8510 -2.7834
  498TIP3   OH222984   3.271   0.476  16.967 -0.5547  0.1083  0.3360
  498TIP3    H122985   3.334   0.404  16.970 -1.1793 -0.4008  1.6460
  498TIP3    H222986   3.302   0.539  17.032 -0.1206  0.9577 -0.6600
  499TIP3   OH222987   6.445   2.729   1.728  0.7785 -0.3989  0.4739
  499TIP3    H122988   6.384   2.765   1.664 -0.2126 -0.6303  1.2581
  499TIP3    H222989   6.389   2.680   1.789  1.3402  1.8096  2.9369
  500TIP3   OH222990   6.453   3.211   0.545  0.5227 -0.2637  0.1208
  500TIP3    H122991   6.460   3.303   0.521  1.8210 -0.9916 -2.7017
  500TIP3    H222992   6.495   3.205   0.631  1.5095  1.5787 -0.2033
  501TIP3   OH222993   2.376   5.450  14.706  0.3727  0.4434 -0.1045
  501TIP3    H122994   2.444   5.384  14.717 -1.6127 -1.8858 -0.8584
  501TIP3    H222995   2.411   5.509  14.639  0.7105 -2.1642 -2.4038
  502TIP3   OH222996   3.898   1.152  14.453  0.0612  0.4737  0.6560
  502TIP3    H122997   3.993   1.142  14.447  0.2875  0.4371  3.1943
  502TIP3    H222998   3.870   1.083  14.513 -1.8203 -0.4276 -1.1270
  503TIP3   OH222999   0.464   2.422  13.114 -0.4523  0.2721 -0.0772
  503TIP3    H123000   0.379   2.441  13.075  0.4392  1.7259 -1.4279
  503TIP3    H223001   0.521   2.493  13.084  0.6677  0.7557  2.8161
  504TIP3   OH223002   5.493   3.279   5.719 -0.0954 -0.9649  0.2003
  504TIP3    H123003   5.500   3.192   5.759 -1.6931 -1.0553  0.3391
  504TIP3    H223004   5.406   3.310   5.744 -0.3091 -0.1301 -1.4624
  505TIP3   OH223005   0.767   3.177  11.029 -0.2771  0.1302  0.7011
  505TIP3    H123006   0.682   3.183  10.985 -0.5634  0.9742  1.3231
  505TIP3    H223007   0.787   3.268  11.053  1.2479  0.0784 -0.2460
  506TIP3   OH223008   1.095   5.506   0.493  0.1112  0.4564 -0.0024
  506TIP3    H123009   1.067   5.535   0.580 -0.0817  1.0876 -0.2672
  506TIP3    H223010   1.057   5.570   0.434  0.3026  0.0680 -0.5500
  507TIP3   OH223011   0.851   6.627   0.387  0.3139 -0.3718 -0.4259
  507TIP3    H123012   0.881   6.697   0.329  0.4648 -1.2654 -1.4678
  507TIP3    H223013   0.907   6.553   0.365  2.5823  0.0486  3.0640
  508TIP3   OH223014   3.289   3.749  17.156  0.6780  0.2386 -0.0099
  508TIP3    H123015   3.291   3.703  17.072  0.4683  0.1567  0.0299
  508TIP3    H223016   3.197   3.771  17.169  0.7113  0.2566  0.1960
  509TIP3   OH223017   6.171   0.990   6.514 -0.1905  0.5583  0.2121
  509TIP3    H123018   6.189   0.899   6.492  0.1916  0.3532  1.2743
  509TIP3    H223019   6.159   0.989   6.609  0.2874  1.6793  0.3052
  510TIP3   OH223020   1.924   6.666   2.465  0.1742  0.1412  0.0599
  510TIP3    H123021   1.910   6.594   2.526  3.9684 -1.3757 -0.5454
  510TIP3    H223022   1.927   6.624   2.379  0.7843  1.2545 -0.4921
  511TIP3   OH223023   1.740   3.914   3.220  0.4024  0.3120  0.4796
  511TIP3    H123024   1.816   3.873   3.261 -0.7477 -0.5298  1.8558
  511TIP3    H223025   1.692   3.954   3.292 -0.1062  1.4565 -0.4588
  512TIP3   OH223026   3.443   6.415   5.069 -0.1939  0.2719  0.0556
  512TIP3    H123027   3.506   6.343   5.073 -0.3155  0.2114  2.4856
  512TIP3    H223028   3.496   6.494   5.083 -0.5651  0.2243  2.0448
  513TIP3   OH223029   4.145   4.086  16.292 -0.1904 -0.4933 -0.2117
  513TIP3    H123030   4.241   4.081  16.291 -0.1214 -1.3029  2.5082
  513TIP3    H223031   4.117   4.017  16.233  0.8758 -0.2676 -1.0228
  514TIP3   OH223032   2.752   6.027   5.403 -0.1633  0.2034 -0.4244
  514TIP3    H123033   2.845   6.022   5.378 -0.4437 -1.6023 -1.2661
  514TIP3    H223034   2.743   6.114   5.442  2.2319 -0.1795  1.1953
  515TIP3   OH223035   6.735   2.802   3.295 -0.1757 -0.1436  0.0436
  515TIP3    H123036   6.745   2.893   3.265  2.1755 -0.6830 -1.1011
  515TIP3    H223037   6.825   2.770   3.302 -0.9324 -2.1784  1.1465
  516TIP3   OH223038   5.229   4.973   4.796  0.2707  0.0040  1.5992
  516TIP3    H123039   5.219   4.891   4.747  2.3326  1.0604 -0.8510
  516TIP3    H223040   5.142   5.013   4.793 -0.2960 -1.2058  1.0917
  517TIP3   OH223041   3.991   3.899   6.893  0.2647 -0.3260  0.2246
  517TIP3    H123042   3.911   3.950   6.907  1.1265  0.6204  2.0378
  517TIP3    H223043   3.964   3.828   6.835 -1.8570  0.0394  0.6786
  518TIP3   OH223044   1.984   1.262  13.301 -0.2322 -0.0373  0.0661
  518TIP3    H123045   1.999   1.180  13.255  2.1099 -0.4160  1.3624
  518TIP3    H223046   1.892   1.258  13.330 -1.6818  0.0079 -3.9334
  519TIP3   OH223047   4.627   4.373  13.484  0.2990  0.1517 -0.2816
  519TIP3    H123048   4.576   4.370  13.566  0.5330  1.2041 -0.0846
  519TIP3    H223049   4.629   4.282  13.454  0.6992 -0.3466  1.1875
  520TIP3   OH223050   4.215   5.762   4.285 -0.2887  0.3619  0.0857
  520TIP3    H123051   4.262   5.772   4.202 -1.3419  1.4832 -0.4020
  520TIP3    H223052   4.123   5.776   4.262 -0.5700  0.9147  1.4633
  521TIP3   OH223053   2.206   1.776   3.426  0.0501  0.7193  0.2591
  521TIP3    H123054   2.131   1.741   3.379  1.0188  0.0842 -0.8798
  521TIP3    H223055   2.184   1.868   3.442 -1.2299  0.3789  0.5429
  522TIP3   OH223056   2.214   1.599  16.839  0.4516  0.1572 -0.2923
  522TIP3    H123057   2.177   1.563  16.920 -1.5381 -0.4329 -1.3968
  522TIP3    H223058   2.200   1.694  16.847 -1.3123 -0.0352 -0.6186
  523TIP3   OH223059   1.161   5.122   3.065  0.1643  0.9732 -0.1193
  523TIP3    H123060   1.148   5.179   2.989  0.1766 -0.0314 -0.9001
  523TIP3    H223061   1.121   5.169   3.138  0.2830  2.0302 -0.7158
  524TIP3   OH223062   4.727   1.327   2.629  0.6266 -0.0253  0.1268
  524TIP3    H123063   4.654   1.286   2.675  1.2827 -1.7548 -0.2879
  524TIP3    H223064   4.696   1.337   2.539  0.9474 -1.0150 -0.1154
  525TIP3   OH223065   4.216   5.896   1.619 -0.1779 -0.2760 -0.6294
  525TIP3    H123066   4.122   5.882   1.616 -0.6087  2.2561 -2.8716
  525TIP3    H223067   4.230   5.947   1.699 -0.9088  0.3748 -0.9091
  526TIP3   OH223068   4.965   4.994  14.671  0.2963 -0.5980  0.1399
  526TIP3    H123069   5.058   4.972  14.673  0.2065 -1.7040 -3.1507
  526TIP3    H223070   4.962   5.081  14.630 -0.1585 -0.8498 -0.3616
  527TIP3   OH223071   5.882   0.057   6.212  0.2172  0.1630 -0.4135
  527TIP3    H123072   5.885   0.129   6.276 -0.2658 -1.0981  1.0950
  527TIP3    H223073   5.910  -0.020   6.262  1.2686 -0.6240 -2.1405
  528TIP3   OH223074   3.244   1.607   0.289 -0.2793 -0.2477 -0.2003
  528TIP3    H123075   3.175   1.583   0.227  0.4861 -0.1694 -1.0972
  528TIP3    H223076   3.218   1.694   0.320 -0.6489 -0.2717 -0.4296
  529TIP3   OH223077   3.198   6.213   0.063  0.5618 -0.0066  0.8711
  529TIP3    H123078   3.124   6.262   0.098  0.0036  0.3702 -0.7756
  529TIP3    H223079   3.173   6.121   0.073 -1.1707  0.1024 -1.6348
  530TIP3   OH223080   5.409   2.486  12.663  0.0849 -0.0937  0.0556
  530TIP3    H123081   5.343   2.537  12.617 -0.4850 -1.2736 -0.4698
  530TIP3    H223082   5.493   2.519  12.630 -0.2747  0.5591 -0.2019
  531TIP3   OH223083   1.777   4.897   1.772 -0.5468 -0.1019  0.0945
  531TIP3    H123084   1.687   4.913   1.801 -0.1045  0.0910  1.4430
  531TIP3    H223085   1.775   4.810   1.733 -0.7220 -1.4642  2.9557
  532TIP3   OH223086   4.541   2.011  12.282  0.1449  0.3249 -0.0133
  532TIP3    H123087   4.579   2.022  12.370  0.0566 -0.4160  0.1261
  532TIP3    H223088   4.612   2.036  12.223  0.3685  0.3548  0.2621
  533TIP3   OH223089   4.300   2.510  10.670  0.2766  0.0837  0.1018
  533TIP3    H123090   4.336   2.487  10.756 -0.9786  0.6843  0.8104
  533TIP3    H223091   4.221   2.456  10.662  0.9517 -0.7607 -1.1616
  534TIP3   OH223092   3.072   0.147   4.308 -0.0543 -0.1602 -0.3410
  534TIP3    H123093   2.987   0.180   4.337 -0.2153 -0.3281 -0.6233
  534TIP3    H223094   3.129   0.224   4.305 -0.3380  0.0350 -0.6722
  535TIP3   OH223095   6.681   3.237   4.751 -1.1305 -0.1890  0.8439
  535TIP3    H123096   6.619   3.175   4.789 -0.3227 -1.7531 -0.3147
  535TIP3    H223097   6.633   3.320   4.751 -2.1131 -0.6961  2.7366
  536TIP3   OH223098   6.767   2.537   5.487 -0.3608  0.5291  0.1672
  536TIP3    H123099   6.680   2.569   5.510 -0.2073  0.8122  0.3558
  536TIP3    H223100   6.753   2.481   5.410 -0.7544  0.2974  0.4040
  537TIP3   OH223101   5.341   6.554   5.715  0.8217  0.1410 -0.4010
  537TIP3    H123102   5.358   6.637   5.760  1.2718  0.4962 -1.2025
  537TIP3    H223103   5.266   6.516   5.761 -1.3017  2.3628 -1.7325
  538TIP3   OH223104   1.869   1.306  13.641  0.2502  0.4846 -0.6007
  538TIP3    H123105   1.781   1.333  13.669 -0.0366  0.0169 -1.0360
  538TIP3    H223106   1.914   1.388  13.622  0.6728  0.8930  1.7820
  539TIP3   OH223107   4.281   2.212   0.374 -0.7232 -0.3797  0.4010
  539TIP3    H123108   4.239   2.137   0.333  0.5352 -0.0941 -1.5984
  539TIP3    H223109   4.324   2.176   0.452 -1.4563 -1.3875  0.3653
  540TIP3   OH223110   0.551   4.542   0.754  0.8549 -0.1171 -0.2273
  540TIP3    H123111   0.541   4.619   0.810  3.2204  0.2745 -0.2512
  540TIP3    H223112   0.576   4.578   0.669 -0.7921 -0.8179 -1.0694
  541TIP3   OH223113   4.565   3.707   4.109  0.5032 -0.0169  0.4351
  541TIP3    H123114   4.510   3.779   4.079 -1.8659 -2.2370 -0.9333
  541TIP3    H223115   4.514   3.665   4.179  1.1201 -1.2273  0.1982
  542TIP3   OH223116   5.087   2.885   0.589  0.0746  0.2253  0.0306
  542TIP3    H123117   5.030   2.815   0.557 -0.0196 -0.7324  2.1219
  542TIP3    H223118   5.045   2.966   0.560 -1.1365 -0.5292 -0.3705
  543TIP3   OH223119   0.509   4.962  15.369  0.4908 -0.4574  0.2638
  543TIP3    H123120   0.428   4.964  15.319 -0.3851  1.9396  1.6307
  543TIP3    H223121   0.578   4.972  15.303 -0.2667 -2.3183 -0.8861
  544TIP3   OH223122   4.929   4.039   5.859 -0.3381  0.6537  0.3282
  544TIP3    H123123   4.870   4.109   5.829 -0.6894 -0.1964 -1.0902
  544TIP3    H223124   4.993   4.084   5.915 -1.0197  1.9721  0.1054
  545TIP3   OH223125   4.229   5.471  14.928  0.2539  0.4789 -0.6189
  545TIP3    H123126   4.239   5.432  14.841  0.2921  1.7757 -1.2154
  545TIP3    H223127   4.288   5.420  14.984  0.5158 -0.1227 -1.4194
  546TIP3   OH223128   5.954   4.293  16.660  0.4013 -0.3767  0.7522
  546TIP3    H123129   6.035   4.290  16.609  0.2768  1.2493  0.4014
  546TIP3    H223130   5.982   4.283  16.751  0.7234 -2.3072  0.4755
  547TIP3   OH223131   5.095   0.240   0.558 -0.4901  0.3476  0.2723
  547TIP3    H123132   5.007   0.238   0.596 -0.0586 -0.7118  1.2835
  547TIP3    H223133   5.151   0.201   0.626  0.3818 -1.2255 -1.2672
  548TIP3   OH223134   0.260   1.363  13.027  0.2578 -0.0746  0.5662
  548TIP3    H123135   0.192   1.357  13.093 -0.3452 -1.9481 -0.1471
  548TIP3    H223136   0.253   1.452  12.993 -2.3736 -0.4103  0.0051
  549TIP3   OH223137   5.223   4.406  14.028  0.0025 -0.6172  0.2190
  549TIP3    H123138   5.162   4.403  13.954 -2.3523  0.3682  1.9521
  549TIP3    H223139   5.299   4.453  13.995 -1.6550  1.2664 -1.1969
  550TIP3   OH223140   4.141   5.333   4.511  0.2492 -0.8632  0.2891
  550TIP3    H123141   4.123   5.285   4.431  1.8119  0.0214 -0.6511
  550TIP3    H223142   4.084   5.411   4.506  0.2086 -0.9033  0.1355
  551TIP3   OH223143   0.455   0.400   2.920  0.7040  0.3613  0.7816
  551TIP3    H123144   0.369   0.379   2.957 -0.4149  0.5268 -1.5431
  551TIP3    H223145   0.491   0.316   2.893 -0.4806  0.6008 -1.7390
  552TIP3   OH223146   4.903   0.281   2.080 -0.4465  0.7788 -0.3297
  552TIP3    H123147   4.894   0.187   2.097  0.6528  0.6229 -0.5868
  552TIP3    H223148   4.865   0.293   1.993 -0.8108  0.6269 -0.1978
  553TIP3   OH223149   4.762   0.571   6.723 -0.2778  0.1737 -0.5818
  553TIP3    H123150   4.754   0.497   6.783  0.6917 -0.6901 -1.4875
  553TIP3    H223151   4.834   0.623   6.760 -2.1919  1.8076  1.1620
  554TIP3   OH223152   1.135   1.335  16.695 -0.0522  0.0162 -0.0135
  554TIP3    H123153   1.103   1.265  16.639  0.2240  0.6566 -0.9991
  554TIP3    H223154   1.069   1.404  16.687 -0.2981 -0.0986  0.9066
  555TIP3   OH223155   0.471   1.896  14.129  0.1508 -0.2751  0.3836
  555TIP3    H123156   0.506   1.918  14.215 -0.4051 -1.4367  0.9192
  555TIP3    H223157   0.443   1.980  14.093  1.7478  0.4263  0.7064
  556TIP3   OH223158   1.613   6.691   2.845  0.0586 -0.2422  0.3029
  556TIP3    H123159   1.679   6.636   2.888  0.4824 -1.3323 -1.6129
  556TIP3    H223160   1.588   6.641   2.767 -0.3477  1.8138 -0.9504
  557TIP3   OH223161   4.850   5.251   0.675  0.3178 -0.1156  0.1711
  557TIP3    H123162   4.792   5.213   0.608  0.2585  1.2244 -0.5875
  557TIP3    H223163   4.801   5.241   0.757 -0.2685 -0.4653 -0.2099
  558TIP3   OH223164   0.591   3.268  12.912 -0.1474  0.1251 -0.7934
  558TIP3    H123165   0.572   3.208  12.984  1.6090  1.0472  0.5159
  558TIP3    H223166   0.538   3.345  12.930  0.7792  0.6184 -0.0652
  559TIP3   OH223167   6.183   0.246  10.780  0.2409  0.2078 -0.0946
  559TIP3    H123168   6.160   0.319  10.837 -1.7434  0.5796 -1.2650
  559TIP3    H223169   6.181   0.283  10.691  1.3461 -0.7962 -0.5685
  560TIP3   OH223170   5.504   4.731   4.828  0.8492 -0.3857  0.1115
  560TIP3    H123171   5.534   4.682   4.905 -0.9645  1.1796  1.9123
  560TIP3    H223172   5.459   4.665   4.775 -0.3288 -1.0004  1.7805
  561TIP3   OH223173   4.798   0.739   4.453  0.0621 -0.1043 -1.1299
  561TIP3    H123174   4.803   0.734   4.358  1.3336  1.1829 -1.1728
  561TIP3    H223175   4.888   0.759   4.480 -0.3341 -0.1801  0.3169
  562TIP3   OH223176   2.431   0.199  16.051 -0.2505 -0.1317  0.0220
  562TIP3    H123177   2.419   0.114  16.092  3.3827 -0.0251  1.6672
  562TIP3    H223178   2.435   0.261  16.124 -0.3969  1.1266 -0.9839
  563TIP3   OH223179   1.659   0.345   4.638 -0.7259  0.1556  0.3157
  563TIP3    H123180   1.576   0.386   4.612 -1.1435 -1.2003 -0.6136
  563TIP3    H223181   1.707   0.335   4.556 -1.1179 -2.1712  0.2822
  564TIP3   OH223182   2.935   4.365   3.752 -0.3741 -0.6926 -0.1403
  564TIP3    H123183   2.849   4.335   3.782 -1.2071 -0.6130 -2.2758
  564TIP3    H223184   2.917   4.441   3.698  1.3995  1.5189  2.1459
  565TIP3   OH223185   1.170   4.604  11.782  0.5199 -0.2067  0.7881
  565TIP3    H123186   1.089   4.613  11.832  0.3371  2.9986  0.1537
  565TIP3    H223187   1.142   4.591  11.691  0.6691  0.5346  0.6223
  566TIP3   OH223188   1.949   4.704   2.798 -0.5740  0.2372  0.0416
  566TIP3    H123189   1.987   4.649   2.867 -2.2999 -1.0027  0.0785
  566TIP3    H223190   1.881   4.649   2.759 -0.3165  1.2911 -1.9898
  567TIP3   OH223191   6.127   6.024   0.597 -0.1040 -0.3108 -0.0600
  567TIP3    H123192   6.102   5.954   0.536 -0.4621 -0.1202 -0.1313
  567TIP3    H223193   6.044   6.062   0.625  0.1114  1.4746 -1.6192
  568TIP3   OH223194   4.487   6.027   1.927 -0.1199 -0.1420  0.2274
  568TIP3    H123195   4.416   5.969   1.899 -0.5833  0.1620  0.7419
  568TIP3    H223196   4.444   6.092   1.982  0.5787 -0.0093  0.6271
  569TIP3   OH223197   6.653   0.707  12.881 -0.4715  0.1004 -0.1832
  569TIP3    H123198   6.708   0.785  12.873 -2.0607  1.5113  1.6216
  569TIP3    H223199   6.680   0.667  12.963 -0.9924 -0.1133 -0.1089
  570TIP3   OH223200   5.433   3.131  17.403  0.0278  0.4050  0.0161
  570TIP3    H123201   5.502   3.196  17.388  0.2739  0.9232  2.8222
  570TIP3    H223202   5.468   3.051  17.364  2.1702  0.7199  1.1213
  571TIP3   OH223203   4.662   3.646   6.890 -0.1012 -0.0489  0.2079
  571TIP3    H123204   4.738   3.625   6.944  0.2103 -1.8843 -0.8753
  571TIP3    H223205   4.690   3.627   6.800 -1.7638 -0.5735 -0.2387
  572TIP3   OH223206   3.963   4.552  15.213  0.3655 -0.1912 -0.4574
  572TIP3    H123207   3.883   4.594  15.181  0.3304 -0.2443 -0.4378
  572TIP3    H223208   3.978   4.593  15.299  0.1121 -0.5063 -0.2629
  573TIP3   OH223209   5.122   6.770  16.296  0.3507 -0.1021  0.0228
  573TIP3    H123210   5.139   6.694  16.352 -0.1061 -0.0464  0.2442
  573TIP3    H223211   5.138   6.846  16.352 -1.3522 -0.0469  0.4936
  574TIP3   OH223212   5.758   6.218  16.925 -0.2843 -0.2423 -0.3732
  574TIP3    H123213   5.739   6.176  17.009 -0.9914 -0.4492 -0.6282
  574TIP3    H223214   5.812   6.154  16.879 -1.4415 -0.9417 -0.8004
  575TIP3   OH223215   2.138   6.655  15.135 -0.6992  0.4401 -0.4848
  575TIP3    H123216   2.088   6.736  15.142 -0.9762  0.2861 -0.6611
  575TIP3    H223217   2.136   6.619  15.224 -0.8953  0.4392 -0.4890
  576TIP3   OH223218   0.135   3.312  15.298 -0.0084 -0.0523 -0.0220
  576TIP3    H123219   0.106   3.354  15.217  0.0519 -2.1202 -1.1723
  576TIP3    H223220   0.066   3.250  15.320  1.0921 -1.2637  0.1270
  577TIP3   OH223221   2.716   5.008  16.696  0.0611  0.1593  0.1678
  577TIP3    H123222   2.734   4.991  16.603  0.1620  0.6513  0.0958
  577TIP3    H223223   2.639   4.955  16.715 -1.0214  1.3586 -0.6572
  578TIP3   OH223224   5.083   2.858   1.106  0.4852 -0.0021 -0.2162
  578TIP3    H123225   5.063   2.804   1.029 -1.8230  0.1637  0.2107
  578TIP3    H223226   4.998   2.873   1.148  1.4046  1.7588  1.1464
  579TIP3   OH223227   1.130   0.306  15.971  0.8763  0.1110  0.3396
  579TIP3    H123228   1.126   0.401  15.983  0.1625  0.3585 -1.5237
  579TIP3    H223229   1.206   0.279  16.024  1.3077  1.7575  0.6326
  580TIP3   OH223230   3.569   5.183  11.294  0.4370 -0.1270 -0.3459
  580TIP3    H123231   3.635   5.178  11.225  1.5212 -2.1267  0.7566
  580TIP3    H223232   3.491   5.144  11.255 -0.6780  3.4423 -2.1135
  581TIP3   OH223233   0.058   5.758  14.549  0.1052 -0.0163  0.2906
  581TIP3    H123234   0.111   5.708  14.610 -1.3845 -0.4559  1.2741
  581TIP3    H223235   0.114   5.831  14.521  1.3687 -0.7430  0.8901
  582TIP3   OH223236   5.956   1.587   2.623 -0.4180 -0.6072  0.2423
  582TIP3    H123237   5.939   1.493   2.613  0.0589 -0.6975  0.2365
  582TIP3    H223238   5.951   1.603   2.717  1.5778 -1.0677  0.4746
  583TIP3   OH223239   0.566   2.589  13.936  0.3287 -0.7597 -0.1144
  583TIP3    H123240   0.546   2.503  13.898  2.4489 -1.6777  0.6335
  583TIP3    H223241   0.659   2.602  13.916  0.2837  0.9103  0.6434
  584TIP3   OH223242   2.560   4.273  12.895  0.1930  0.4072 -0.0274
  584TIP3    H123243   2.587   4.195  12.847 -0.8481 -0.3093  0.5172
  584TIP3    H223244   2.545   4.243  12.984 -2.0424  0.7985 -0.2105
  585TIP3   OH223245   6.509   2.965   2.113  0.1922 -0.2291 -0.1203
  585TIP3    H123246   6.480   2.876   2.132  2.4827 -0.8932  0.5849
  585TIP3    H223247   6.518   3.006   2.199 -1.0807  0.7986 -0.4535
  586TIP3   OH223248   5.011   1.472  14.891 -0.1670  0.5559  0.1015
  586TIP3    H123249   5.014   1.376  14.884 -2.4211  0.2760  1.7853
  586TIP3    H223250   4.924   1.495  14.859  0.3952  2.0785 -0.3841
  587TIP3   OH223251   6.550   3.822  11.680 -0.0933 -0.6737  0.3972
  587TIP3    H123252   6.478   3.766  11.651  0.5339 -1.6227  0.6179
  587TIP3    H223253   6.508   3.898  11.719 -0.9733 -0.2101 -1.3644
  588TIP3   OH223254   2.902   5.575  16.467 -0.2303  0.2838 -0.1124
  588TIP3    H123255   2.970   5.592  16.533  0.5930 -0.2764 -0.7886
  588TIP3    H223256   2.856   5.498  16.499  0.0172  0.1526 -0.0663
  589TIP3   OH223257   3.424   5.457  13.008 -0.4786  0.1436  0.2458
  589TIP3    H123258   3.410   5.524  13.075 -0.6920  0.2906  0.0553
  589TIP3    H223259   3.344   5.458  12.955  0.1687  0.8678 -0.7410
  590TIP3   OH223260   0.214   1.671  13.766 -0.1204  0.1192 -0.0982
  590TIP3    H123261   0.241   1.647  13.677  1.1826  0.3501  0.2224
  590TIP3    H223262   0.129   1.713  13.755  1.4758  3.2188 -1.6369
  591TIP3   OH223263   2.204   6.708   2.396  0.4976  0.0598 -0.4894
  591TIP3    H123264   2.239   6.782   2.447 -0.4522  1.0824 -1.2742
  591TIP3    H223265   2.125   6.683   2.442  2.4691 -2.7454  1.7190
  592TIP3   OH223266   5.629   3.179  17.011  0.1207 -0.4358  0.1722
  592TIP3    H123267   5.594   3.257  17.056  1.1033 -0.2752  0.6860
  592TIP3    H223268   5.633   3.205  16.919 -0.3460 -0.1713  0.2213
  593TIP3   OH223269   5.191   0.118   2.552 -0.1737 -0.5634 -0.5127
  593TIP3    H123270   5.126   0.186   2.571  0.8397  0.2473  0.2151
  593TIP3    H223271   5.251   0.121   2.627 -0.3435 -2.5782 -0.2582
  594TIP3   OH223272   3.850   6.329  11.350  0.3063  0.6622 -0.2817
  594TIP3    H123273   3.938   6.324  11.312 -0.1392 -0.3937 -1.2194
  594TIP3    H223274   3.794   6.353  11.277 -0.2461  0.9268  0.2269
  595TIP3   OH223275   5.310   1.267  16.495 -0.7289 -0.0335  0.2060
  595TIP3    H123276   5.350   1.348  16.465 -1.6676  0.4951  0.3592
  595TIP3    H223277   5.230   1.294  16.540  0.3482 -0.8376  2.7645
  596TIP3   OH223278   3.848   6.632  11.817  0.4523 -0.3655 -0.2267
  596TIP3    H123279   3.873   6.699  11.754  1.4956 -0.6220 -0.0998
  596TIP3    H223280   3.841   6.551  11.766 -1.6299 -0.0516 -0.5373
  597TIP3   OH223281   3.143   1.011   2.658 -0.4083 -0.4838 -0.0888
  597TIP3    H123282   3.200   1.012   2.734 -0.7144  2.4138  0.2296
  597TIP3    H223283   3.203   1.011   2.583 -0.0384 -0.2699  0.2020
  598TIP3   OH223284   3.109   3.074   3.512 -0.1022 -0.0052  0.2051
  598TIP3    H123285   3.021   3.087   3.476  0.7749  2.0043 -1.4457
  598TIP3    H223286   3.124   3.150   3.568  0.1043 -1.0394  1.6042
  599TIP3   OH223287   1.381   6.550   2.221  0.4416 -0.1335  0.6141
  599TIP3    H123288   1.292   6.543   2.187  0.9720  0.9225 -1.1323
  599TIP3    H223289   1.414   6.460   2.221 -0.3296 -0.4223  0.4056
  600TIP3   OH223290   4.098   1.353  12.348  0.2019 -0.3767  0.2268
  600TIP3    H123291   4.151   1.421  12.307 -1.8820  0.3341 -1.4649
  600TIP3    H223292   4.146   1.329  12.427  2.9030  0.3391 -1.0902
  601TIP3   OH223293   1.679   4.728  16.534  0.2176  0.3788 -0.0749
  601TIP3    H123294   1.629   4.808  16.552 -0.2009  0.0172  0.3844
  601TIP3    H223295   1.696   4.690  16.620  0.7228  0.1569 -0.2694
  602TIP3   OH223296   0.256   0.293  15.695 -0.4780 -0.2327  0.0247
  602TIP3    H123297   0.236   0.386  15.693  0.5395  0.0566  1.6163
  602TIP3    H223298   0.329   0.282  15.634 -1.0660 -0.1340 -0.7093
  603TIP3   OH223299   3.456   0.869   5.415 -0.4246  0.0118 -0.1163
  603TIP3    H123300   3.463   0.958   5.380  2.3366  0.0622  0.3422
  603TIP3    H223301   3.522   0.819   5.366 -1.9959 -1.8618 -0.4478
  604TIP3   OH223302   2.972   2.165  14.991  0.4886  0.1232  0.1143
  604TIP3    H123303   2.956   2.070  14.987  0.1320  0.1908 -0.1474
  604TIP3    H223304   2.912   2.201  14.926  1.1408  0.4646 -0.3048
  605TIP3   OH223305   0.473   6.407  13.181  0.1765 -0.5010 -0.6085
  605TIP3    H123306   0.498   6.347  13.111  2.3535  0.2553 -0.5484
  605TIP3    H223307   0.535   6.390  13.251  0.6872  1.5830 -0.4790
  606TIP3   OH223308   0.916   3.039   2.720 -0.3690 -0.6909 -0.2705
  606TIP3    H123309   0.830   3.020   2.760 -2.5335  1.9488 -3.1804
  606TIP3    H223310   0.948   3.115   2.769 -1.4173  0.4724 -1.3380
  607TIP3   OH223311   3.170   2.981   0.623  0.2130  0.0342 -0.3227
  607TIP3    H123312   3.164   3.054   0.561 -0.0315 -0.7328 -1.2225
  607TIP3    H223313   3.264   2.967   0.635  0.2783 -0.3475 -1.1869
  608TIP3   OH223314   1.450   5.753   6.105  0.3179 -0.2808  0.1737
  608TIP3    H123315   1.479   5.667   6.073 -0.2427 -0.4550  0.1229
  608TIP3    H223316   1.529   5.793   6.142  0.1958 -1.6315  2.0381
  609TIP3   OH223317   6.686   4.854  16.897  0.7622  0.0010  0.1778
  609TIP3    H123318   6.686   4.769  16.854  1.2704 -0.9043  1.8705
  609TIP3    H223319   6.613   4.850  16.959 -0.4923  1.5879 -1.1362
  610TIP3   OH223320   5.410   3.887   1.217  0.0265  0.5008  0.5341
  610TIP3    H123321   5.347   3.912   1.150  0.6918  1.1590  0.1356
  610TIP3    H223322   5.477   3.956   1.214  0.7108 -0.1247  1.0135
  611TIP3   OH223323   4.759   4.829  14.586  0.1259 -0.4588  0.0481
  611TIP3    H123324   4.811   4.874  14.653 -1.7961 -0.4424  1.6292
  611TIP3    H223325   4.757   4.889  14.512  0.8788  0.2886  0.6206
  612TIP3   OH223326   2.129   4.554  13.800 -0.1496 -0.1500  0.3828
  612TIP3    H123327   2.062   4.604  13.754 -0.4884 -0.2084  0.8068
  612TIP3    H223328   2.135   4.596  13.886  1.0166  0.4436  0.0338
  613TIP3   OH223329   6.750   1.561   4.653  0.7199  0.5552 -0.8144
  613TIP3    H123330   6.818   1.628   4.653  1.1060  0.1828 -1.7744
  613TIP3    H223331   6.798   1.478   4.654  0.2534  0.2811 -0.0871
  614TIP3   OH223332   5.001   2.801   3.643  0.4066  0.3711 -0.4179
  614TIP3    H123333   5.012   2.737   3.573  2.3270  0.7273 -0.5141
  614TIP3    H223334   4.907   2.819   3.646 -0.2780 -2.7615 -0.0488
  615TIP3   OH223335   5.374   2.167   4.236  0.0104 -0.1739  0.1113
  615TIP3    H123336   5.416   2.246   4.270  0.9437  0.2870 -1.9517
  615TIP3    H223337   5.398   2.099   4.299  0.9219  0.7903  0.8503
  616TIP3   OH223338   3.029   3.568  11.984  0.0152 -0.1391 -0.1299
  616TIP3    H123339   3.082   3.489  11.993  0.8539  0.4136 -0.0334
  616TIP3    H223340   2.939   3.537  11.980  0.2554 -1.0209  0.9565
  617TIP3   OH223341   0.926   1.552  11.853 -0.3386 -0.1838 -0.0973
  617TIP3    H123342   0.875   1.594  11.784  0.2674  1.0151  0.1499
  617TIP3    H223343   1.005   1.606  11.860  0.5469 -1.4617  0.1435
  618TIP3   OH223344   4.893   2.157   3.846  0.1113 -0.1906 -0.0322
  618TIP3    H123345   4.862   2.160   3.755  1.2311 -1.9276 -0.5201
  618TIP3    H223346   4.814   2.166   3.899 -0.5435  1.0512 -1.1527
  619TIP3   OH223347   2.370   2.075   2.925 -0.2757 -0.2272  0.1624
  619TIP3    H123348   2.318   2.094   2.846 -3.7044 -2.5677  1.6105
  619TIP3    H223349   2.379   2.159   2.969 -0.1606  0.7466 -1.6092
  620TIP3   OH223350   5.923   2.217  16.705  0.1701 -0.4103 -0.1400
  620TIP3    H123351   5.908   2.307  16.735  0.4771 -0.6059  0.6213
  620TIP3    H223352   5.884   2.215  16.618 -0.6413  0.2098  0.1879
  621TIP3   OH223353   0.963   2.080   2.280 -0.3203  0.3952 -0.1208
  621TIP3    H123354   1.000   2.147   2.336 -0.6069  1.5641 -1.2648
  621TIP3    H223355   0.971   1.999   2.330  1.0721  1.0846  0.8384
  622TIP3   OH223356   0.078   4.921  14.389 -0.0527 -0.1741 -0.4361
  622TIP3    H123357   0.107   4.870  14.465 -0.0853 -1.0319 -0.9805
  622TIP3    H223358  -0.012   4.891  14.374  0.1293 -0.3948 -1.1207
  623TIP3   OH223359   2.477   0.189  11.451 -0.4292 -0.1281 -0.1815
  623TIP3    H123360   2.499   0.120  11.388  1.3439  1.5305 -1.5153
  623TIP3    H223361   2.562   0.229  11.472 -1.3609  1.3834  0.8392
  624TIP3   OH223362   0.997   6.226  11.451  0.6347 -0.5124 -0.1065
  624TIP3    H123363   1.056   6.210  11.377 -0.1381 -2.1076 -0.4139
  624TIP3    H223364   1.056   6.232  11.527  1.2837 -0.8982 -0.5647
  625TIP3   OH223365   4.792   5.727  15.271  0.1096 -0.0666  0.0465
  625TIP3    H123366   4.850   5.775  15.212 -1.3154  1.1252 -0.4247
  625TIP3    H223367   4.763   5.652  15.219  0.8089 -0.3924  0.1120
  626TIP3   OH223368   6.253   2.082  14.767 -0.3674 -0.7135 -0.0757
  626TIP3    H123369   6.302   2.096  14.686 -0.9274  2.5237 -0.0018
  626TIP3    H223370   6.320   2.089  14.836 -0.1952 -1.3842 -0.1740
  627TIP3   OH223371   6.574   0.778   0.764  0.4599 -0.1295 -0.1442
  627TIP3    H123372   6.588   0.838   0.691  0.3103 -0.9735 -0.8979
  627TIP3    H223373   6.660   0.769   0.805  0.5802  0.2338 -0.3153
  628TIP3   OH223374   3.461   4.370  12.517  0.5744 -0.1288 -0.0817
  628TIP3    H123375   3.464   4.456  12.475  0.8963  0.9574  2.0354
  628TIP3    H223376   3.508   4.312  12.458 -0.8154  0.8101 -2.2248
  629TIP3   OH223377   2.928   2.381  16.932 -0.3733 -0.5937  0.0020
  629TIP3    H123378   2.833   2.389  16.927 -0.4644  0.0525  1.9917
  629TIP3    H223379   2.949   2.401  17.023  2.0195  3.1540 -1.1520
  630TIP3   OH223380   1.087   5.743   6.421  0.3457  0.1599 -0.1403
  630TIP3    H123381   1.173   5.719   6.454  0.8632  1.1681 -0.6881
  630TIP3    H223382   1.096   5.739   6.325 -0.5678 -0.8809 -0.1969
  631TIP3   OH223383   4.183   4.228  12.136 -0.0297  0.3777  0.1186
  631TIP3    H123384   4.180   4.254  12.044  0.6924 -0.9991 -0.3255
  631TIP3    H223385   4.092   4.235  12.166 -0.0149  2.5020 -0.1704
  632TIP3   OH223386   4.409   5.896  17.113  0.1000 -0.0974 -0.0849
  632TIP3    H123387   4.428   5.926  17.202 -1.0235 -0.2701  0.2407
  632TIP3    H223388   4.378   5.974  17.067  1.2566  0.1186 -0.5115
  633TIP3   OH223389   5.234   4.642   1.348  0.6896  0.0643  0.1785
  633TIP3    H123390   5.179   4.716   1.321 -0.2314  0.1041  1.9769
  633TIP3    H223391   5.321   4.665   1.317  0.1707  1.2617 -0.4848
  634TIP3   OH223392   1.028   1.168   3.900  0.1041 -0.5158  0.4318
  634TIP3    H123393   1.088   1.094   3.893  1.4919  0.3637  2.1537
  634TIP3    H223394   1.084   1.245   3.887 -1.3901  0.2751 -1.8620
  635TIP3   OH223395   1.845   2.291  12.100  0.2107 -0.3749 -0.1014
  635TIP3    H123396   1.761   2.261  12.136  0.6433 -0.1627  1.1520
  635TIP3    H223397   1.835   2.385  12.091 -0.0825 -0.4936 -1.0808
  636TIP3   OH223398   5.657   1.053   0.750  0.2999  0.3316 -0.6902
  636TIP3    H123399   5.740   1.082   0.789  0.2150  0.4327 -0.5844
  636TIP3    H223400   5.635   0.972   0.797 -0.2432  0.9102  0.0748
  637TIP3   OH223401   1.597   3.223  11.219 -0.0749 -0.2611  0.2436
  637TIP3    H123402   1.555   3.177  11.292  0.3870 -0.6261  0.2872
  637TIP3    H223403   1.558   3.184  11.141 -0.6466  0.2040  0.2916
  638TIP3   OH223404   0.228   4.921   4.289  0.5513  0.1341 -0.2711
  638TIP3    H123405   0.261   4.951   4.204  1.9377 -0.4817  0.0402
  638TIP3    H223406   0.272   4.976   4.353  0.2590 -0.0746  0.1122
  639TIP3   OH223407   1.006   3.751   6.418  0.1467  0.8623  0.9216
  639TIP3    H123408   1.066   3.824   6.403  0.9267 -0.0200 -0.5742
  639TIP3    H223409   0.919   3.789   6.408  0.5279  1.6717  0.5737
  640TIP3   OH223410   1.381   3.794  14.719 -0.4365  0.7408 -0.3475
  640TIP3    H123411   1.389   3.764  14.628  0.1699 -1.6064  0.4144
  640TIP3    H223412   1.459   3.847  14.733  0.3988 -0.3387 -0.7236
  641TIP3   OH223413   4.807   4.232  15.978 -0.0550  0.1585 -0.2879
  641TIP3    H123414   4.724   4.194  15.949 -0.1334 -1.4826  1.7984
  641TIP3    H223415   4.873   4.169  15.950 -0.0232 -0.8287  1.7950
  642TIP3   OH223416   3.605   3.402   0.055 -0.2198 -0.3903  0.1524
  642TIP3    H123417   3.513   3.379   0.042 -0.7281  0.7475  1.5374
  642TIP3    H223418   3.626   3.369   0.142 -0.4092  2.4376  1.3854
  643TIP3   OH223419   5.669   5.287  16.856  0.3782 -0.4701  0.4100
  643TIP3    H123420   5.742   5.318  16.910  0.8412 -0.3907 -0.2566
  643TIP3    H223421   5.637   5.209  16.902  2.1418 -1.6744 -0.2970
  644TIP3   OH223422   4.351   4.208  15.446 -0.2324  0.0948 -1.0823
  644TIP3    H123423   4.321   4.120  15.469 -0.1629  0.5857  1.0484
  644TIP3    H223424   4.444   4.198  15.425  0.6071 -0.0011  2.0932
  645TIP3   OH223425   2.015   0.215   1.133  1.0015  0.1719  0.1961
  645TIP3    H123426   2.014   0.218   1.228  0.2760 -2.2176  0.3421
  645TIP3    H223427   1.928   0.247   1.107  1.4330  1.4431  0.2782
  646TIP3   OH223428   0.632   2.921   5.300 -0.6151  0.0249  0.4787
  646TIP3    H123429   0.682   2.974   5.363  2.3936 -1.0606 -0.8079
  646TIP3    H223430   0.602   2.983   5.234  1.5928  0.3969 -0.2352
  647TIP3   OH223431   5.833   4.187  16.210 -0.5888 -0.0350 -0.2070
  647TIP3    H123432   5.799   4.106  16.248 -0.9924 -0.3865 -1.2613
  647TIP3    H223433   5.762   4.217  16.153  0.2845  0.0243 -1.2990
  648TIP3   OH223434   6.546   4.577   4.721  0.1971  0.2910 -0.2858
  648TIP3    H123435   6.567   4.662   4.760 -0.3329  0.1408  0.3483
  648TIP3    H223436   6.577   4.583   4.631  2.8462  0.1383  0.5298
  649TIP3   OH223437   1.361   1.397  11.442 -0.4333 -0.0334 -0.0936
  649TIP3    H123438   1.401   1.324  11.489 -0.5611  1.0287  1.7473
  649TIP3    H223439   1.434   1.440  11.398 -0.3268 -1.0822 -1.0074
  650TIP3   OH223440   0.055   2.786  13.297  0.0763 -1.0253  0.5527
  650TIP3    H123441   0.042   2.715  13.234 -0.0688 -1.4693  1.0763
  650TIP3    H223442   0.083   2.742  13.377  3.2726 -0.2837 -0.0138
  651TIP3   OH223443   6.250   5.950  11.988  0.2203 -0.1033 -0.1289
  651TIP3    H123444   6.311   5.892  11.944 -1.7886 -1.6143 -1.0575
  651TIP3    H223445   6.249   5.920  12.079  2.8017  1.6980  0.6264
  652TIP3   OH223446   1.836   0.038  12.766 -0.1065 -0.0972  0.0408
  652TIP3    H123447   1.897  -0.011  12.821  0.3535  1.4750  0.9888
  652TIP3    H223448   1.862   0.129  12.777 -0.3448  0.3233 -2.3873
  653TIP3   OH223449   0.912   1.790  13.373 -0.3073  0.4524 -0.0200
  653TIP3    H123450   0.901   1.698  13.350 -0.8369  0.8015 -1.2227
  653TIP3    H223451   0.862   1.838  13.307  2.3567  1.7734 -1.2012
  654TIP3   OH223452   6.088   0.568  14.276  0.0172  0.1184  0.0167
  654TIP3    H123453   6.114   0.614  14.356 -0.5019  0.6888 -0.1338
  654TIP3    H223454   6.145   0.604  14.208  1.2732 -1.2066  0.3165
  655TIP3   OH223455   6.592   6.185  15.648  0.1309  0.1842  0.9524
  655TIP3    H123456   6.529   6.228  15.591 -0.5153 -0.3892  1.2228
  655TIP3    H223457   6.558   6.199  15.737  0.5211  0.0914  1.1197
  656TIP3   OH223458   0.051   2.882  15.565 -0.2550  0.2768 -0.3480
  656TIP3    H123459   0.121   2.899  15.627  0.0016 -1.7203 -0.0448
  656TIP3    H223460  -0.019   2.943  15.590  0.4224  0.5658  0.8959
  657TIP3   OH223461   5.536   4.251   0.999  0.3615 -0.2160 -0.3104
  657TIP3    H123462   5.613   4.197   0.982 -0.9257 -1.8668 -1.1639
  657TIP3    H223463   5.497   4.267   0.913 -2.7320 -3.3352  0.3106
  658TIP3   OH223464   3.009   3.012  12.157  0.1506  0.2584 -0.6667
  658TIP3    H123465   3.033   2.924  12.186 -2.4230 -0.6727 -1.1038
  658TIP3    H223466   3.032   3.068  12.230  0.8721 -0.9171  0.0460
  659TIP3   OH223467   4.973   3.451  12.107 -0.3038 -0.1048  0.0079
  659TIP3    H123468   4.919   3.391  12.159 -1.7519  2.3578  1.5574
  659TIP3    H223469   4.935   3.446  12.019 -2.2225  0.4787  0.7365
  660TIP3   OH223470   3.471   5.277   3.350 -0.4199 -0.2025 -0.7370
  660TIP3    H123471   3.521   5.201   3.318 -1.2046 -0.7868 -0.6133
  660TIP3    H223472   3.537   5.345   3.362  0.6460 -1.4820  1.1397
  661TIP3   OH223473   4.553   4.181  13.875  0.2307 -0.1192 -0.1279
  661TIP3    H123474   4.546   4.263  13.826  1.3066 -0.3110 -0.6419
  661TIP3    H223475   4.566   4.114  13.808  0.6504 -0.5317  0.3567
  662TIP3   OH223476   4.346   0.475  10.822 -0.0672 -0.2661  0.1267
  662TIP3    H123477   4.426   0.430  10.793 -0.5521 -2.1608  1.5507
  662TIP3    H223478   4.305   0.505  10.742  1.0092 -1.1398 -0.7886
  663TIP3   OH223479   4.893   4.073   0.574  0.0275 -0.0995 -0.2519
  663TIP3    H123480   4.830   4.010   0.540 -1.3976  0.2615  1.5182
  663TIP3    H223481   4.978   4.040   0.547 -0.6965 -2.5989  0.3104
  664TIP3   OH223482   0.676   6.303   3.976  0.0811 -0.0866  0.1734
  664TIP3    H123483   0.668   6.229   4.036  1.0390 -0.1094  0.2978
  664TIP3    H223484   0.594   6.303   3.927  0.2361 -1.5198 -0.1386
  665TIP3   OH223485   3.942   1.903   2.559 -0.3330 -0.6066 -0.3519
  665TIP3    H123486   3.894   1.980   2.590 -2.3324 -1.9071 -0.0950
  665TIP3    H223487   3.970   1.928   2.470 -0.5347  0.5785 -0.1052
  666TIP3   OH223488   0.742   6.329   3.639 -0.3429 -0.3176  0.2598
  666TIP3    H123489   0.723   6.404   3.582 -2.3082 -0.2871  0.8675
  666TIP3    H223490   0.659   6.311   3.682  0.7133 -1.3122  1.9730
  667TIP3   OH223491   2.512   4.107   2.350  0.0277  0.3789  0.4453
  667TIP3    H123492   2.510   4.037   2.416 -1.7708  0.0820  0.1068
  667TIP3    H223493   2.494   4.062   2.267 -2.1423  1.3454  0.3522
  668TIP3   OH223494   3.700   0.258   0.642 -0.0311 -0.1756  0.5236
  668TIP3    H123495   3.620   0.227   0.600 -0.0709 -0.2866  0.6774
  668TIP3    H223496   3.771   0.221   0.590 -0.0714  1.0816 -0.4599
  669TIP3   OH223497   3.995   5.958  11.658  0.7804 -0.0224 -0.4349
  669TIP3    H123498   3.921   5.987  11.711 -0.9307  0.7541 -3.0815
  669TIP3    H223499   4.065   6.020  11.678 -0.2386  1.0251 -0.0673
  670TIP3   OH223500   5.245   5.237  14.425 -0.1992  0.1863  0.0793
  670TIP3    H123501   5.301   5.220  14.500  0.4228  2.0731  0.1021
  670TIP3    H223502   5.234   5.332  14.424 -1.3539  0.0834 -1.3945
  671TIP3   OH223503   5.992   2.152   1.514  0.5957 -0.1334 -0.2173
  671TIP3    H123504   6.020   2.078   1.461 -0.0267 -0.5060 -0.0393
  671TIP3    H223505   5.897   2.149   1.511  0.5557  0.1793  0.4452
  672TIP3   OH223506   3.849   3.822   1.760 -0.2872  0.4798 -0.3650
  672TIP3    H123507   3.916   3.757   1.782 -1.5001 -0.6754 -0.0045
  672TIP3    H223508   3.837   3.812   1.666 -0.3059  0.3344 -0.3481
  673TIP3   OH223509   0.708   4.678  15.335 -0.4890 -0.2377  0.0102
  673TIP3    H123510   0.686   4.757  15.285  0.3053 -0.3126 -0.4814
  673TIP3    H223511   0.794   4.653  15.302 -0.1729 -0.5872  1.0589
  674TIP3   OH223512   4.105   4.341   2.455  0.1866 -0.2646  0.2073
  674TIP3    H123513   4.193   4.364   2.424 -0.2799  1.4821  0.0733
  674TIP3    H223514   4.046   4.381   2.391 -0.7337 -2.7354 -0.5785
  675TIP3   OH223515   0.034   5.170   2.227 -0.3537 -0.4964  0.1885
  675TIP3    H123516   0.021   5.146   2.318 -1.7784 -1.1028 -0.1449
  675TIP3    H223517  -0.047   5.144   2.183 -0.1667  0.8398 -1.0401
  676TIP3   OH223518   2.815   5.093   3.495  0.4416  0.1809 -0.5331
  676TIP3    H123519   2.799   5.091   3.401 -0.0457 -0.8187 -0.4431
  676TIP3    H223520   2.728   5.106   3.534  0.4834 -0.5220 -0.1938
  677TIP3   OH223521   2.767   3.565   1.381  0.0383 -0.4940  0.0648
  677TIP3    H123522   2.721   3.648   1.373  0.2293 -0.3594  0.3432
  677TIP3    H223523   2.730   3.510   1.312 -0.1517 -0.2081 -0.0624
  678TIP3   OH223524   6.408   4.061  17.334 -0.2464 -0.1354 -0.1994
  678TIP3    H123525   6.351   4.009  17.277  0.4094  0.1656 -1.1471
  678TIP3    H223526   6.348   4.102  17.397 -0.8877 -1.1703 -0.1013
  679TIP3   OH223527   1.132   4.988  15.977 -0.2361 -0.3532  0.0019
  679TIP3    H123528   1.137   4.893  15.964  0.6707 -0.3872  0.4571
  679TIP3    H223529   1.121   4.999  16.072  1.0609 -0.0068  0.1439
  680TIP3   OH223530   3.935   1.977  14.881  0.3823 -0.7294  0.7242
  680TIP3    H123531   4.027   1.978  14.857  0.5524 -1.3326  1.3384
  680TIP3    H223532   3.931   1.926  14.962 -0.5514 -1.1408  0.4332
  681TIP3   OH223533   1.463   5.703  13.117  0.1371  0.2424 -0.0901
  681TIP3    H123534   1.512   5.651  13.054 -0.3352  0.4633 -0.6548
  681TIP3    H223535   1.504   5.790  13.114  0.1223  0.2497 -0.0874
  682TIP3   OH223536   6.327   1.409   5.507 -0.2470  0.0564 -0.3404
  682TIP3    H123537   6.421   1.395   5.493 -0.3074 -1.3834  0.4781
  682TIP3    H223538   6.289   1.321   5.501 -1.2420  0.3286  1.4802
  683TIP3   OH223539   1.836   1.179  11.736 -0.0897 -0.6317  0.3412
  683TIP3    H123540   1.874   1.219  11.658  0.3641 -0.1078  0.8244
  683TIP3    H223541   1.828   1.087  11.714  0.2572 -0.5302 -0.2393
  684TIP3   OH223542   2.555   3.566  12.982  0.3277  0.1938 -0.6765
  684TIP3    H123543   2.513   3.495  12.933 -0.6895  0.5877 -0.4002
  684TIP3    H223544   2.567   3.636  12.918  1.0090 -0.0852 -0.8657
  685TIP3   OH223545   4.271   1.351   3.427  0.6512  0.0997  0.4105
  685TIP3    H123546   4.181   1.370   3.452  0.1078 -0.4477 -1.0065
  685TIP3    H223547   4.304   1.433   3.391  0.9575  0.4859  1.5392
  686TIP3   OH223548   3.296   3.058  12.918  0.6839  0.2460 -0.0062
  686TIP3    H123549   3.253   3.014  12.992 -0.8530  2.0674  0.2357
  686TIP3    H223550   3.298   2.992  12.849 -2.3805  0.0153  0.0257
  687TIP3   OH223551   5.618   3.052   1.237  0.3147 -0.3920  0.1289
  687TIP3    H123552   5.587   3.102   1.312 -0.6540 -0.5195 -0.1745
  687TIP3    H223553   5.683   3.109   1.195 -0.1518  0.2568  0.2745
  688TIP3   OH223554   5.367   0.120  14.642  0.7142 -0.0836  0.1209
  688TIP3    H123555   5.321   0.176  14.579  2.2670 -0.6712 -1.6426
  688TIP3    H223556   5.340   0.153  14.727  0.0431  2.0821 -0.8434
  689TIP3   OH223557   4.758   3.584   3.075  0.0444 -0.2032 -0.1868
  689TIP3    H123558   4.853   3.598   3.074 -0.1918  1.6284 -0.9152
  689TIP3    H223559   4.744   3.508   3.018  1.0239 -0.1971 -0.4496
  690TIP3   OH223560   6.724   0.974  11.213 -0.0792  0.4803  0.5719
  690TIP3    H123561   6.683   1.032  11.278  1.0807  0.1572  1.6377
  690TIP3    H223562   6.810   0.954  11.250  1.2725  1.5138 -1.7800
  691TIP3   OH223563   2.827   3.617   6.067  0.3326 -0.4878  0.3803
  691TIP3    H123564   2.818   3.678   6.141  0.5523 -0.9548  0.7991
  691TIP3    H223565   2.913   3.635   6.031 -0.1985  0.4839 -0.4476
  692TIP3   OH223566   0.333   6.776   5.536  0.6313  0.1772 -0.0307
  692TIP3    H123567   0.262   6.838   5.554  0.7752  0.8014 -1.4697
  692TIP3    H223568   0.338   6.722   5.614  0.4027  1.8868  1.2105
  693TIP3   OH223569   5.497   5.911  15.751 -0.1234  0.5521  0.6729
  693TIP3    H123570   5.541   5.954  15.677  0.7166  1.9843  1.9546
  693TIP3    H223571   5.511   5.817  15.736  1.7710  0.9013  0.0480
  694TIP3   OH223572   1.063   3.790  15.621 -0.1935  0.1644  0.7446
  694TIP3    H123573   1.111   3.719  15.579  0.9577  0.9116  0.7412
  694TIP3    H223574   1.042   3.757  15.709 -0.2958 -0.4351  0.4969
  695TIP3   OH223575   0.578   6.443   3.368  0.3531  0.3767  0.0201
  695TIP3    H123576   0.550   6.506   3.435  0.9708  0.5174  0.1631
  695TIP3    H223577   0.509   6.378   3.365 -0.6232  1.4160 -0.6011
  696TIP3   OH223578   1.154   1.918   4.625 -0.2208  0.3084  0.7157
  696TIP3    H123579   1.231   1.876   4.588 -0.9059 -0.6578  0.3464
  696TIP3    H223580   1.168   2.012   4.610  0.1600  0.0345 -0.7653
  697TIP3   OH223581   4.271   0.044  14.662 -0.0324  0.2947  0.9421
  697TIP3    H123582   4.344   0.013  14.715  1.6703  0.4606 -1.1584
  697TIP3    H223583   4.206  -0.026  14.667  1.3319 -1.0298  0.8675
  698TIP3   OH223584   2.860   0.219  13.665 -0.3206 -0.2254  0.0665
  698TIP3    H123585   2.936   0.162  13.670  0.9302  1.4348  0.9325
  698TIP3    H223586   2.867   0.262  13.580 -1.0352 -1.0266 -0.4108
  699TIP3   OH223587   0.160   6.596   3.479 -0.0877 -0.5000  0.1729
  699TIP3    H123588   0.187   6.584   3.388 -0.1765 -0.9649  0.2077
  699TIP3    H223589   0.217   6.666   3.511  0.5272 -0.9126  0.0053
  700TIP3   OH223590   6.218   6.187   5.634 -0.1623  0.3647  0.3142
  700TIP3    H123591   6.154   6.192   5.706 -0.7940 -2.0143  0.0143
  700TIP3    H223592   6.176   6.131   5.569  1.6319 -0.0343 -0.5568
  701TIP3   OH223593   4.517   3.710   1.651 -0.1278  0.1803  0.1418
  701TIP3    H123594   4.567   3.789   1.632  0.4482 -0.3452 -0.5815
  701TIP3    H223595   4.572   3.638   1.620 -1.1738 -0.4406 -0.3486
  702TIP3   OH223596   2.914   4.598   3.591 -0.2089 -0.1595  0.1394
  702TIP3    H123597   2.907   4.670   3.655 -1.6782 -0.0743 -0.0842
  702TIP3    H223598   2.871   4.631   3.513  2.4894  0.1428 -1.3583
  703TIP3   OH223599   5.891   1.807  12.335  0.4031  0.9220  0.2752
  703TIP3    H123600   5.960   1.870  12.316  0.7276  0.2198 -1.0184
  703TIP3    H223601   5.827   1.820  12.264  0.4934 -0.1956 -0.0324
  704TIP3   OH223602   1.047   4.885  11.159 -0.2805  0.2070  0.2627
  704TIP3    H123603   1.125   4.939  11.170  1.0282 -1.6616  0.5081
  704TIP3    H223604   0.980   4.928  11.213  0.9047  1.1916  0.9864
  705TIP3   OH223605   2.077   4.066  15.200 -0.2042  0.3442 -0.3886
  705TIP3    H123606   2.152   4.032  15.152 -1.3464 -1.0488 -1.2959
  705TIP3    H223607   2.079   4.020  15.284 -1.0880 -1.2179 -1.1681
  706TIP3   OH223608   3.867   4.275  16.970 -0.1460 -0.3286  0.2522
  706TIP3    H123609   3.876   4.283  16.875  2.3996  0.9258  0.5246
  706TIP3    H223610   3.847   4.183  16.985  1.8271 -1.0934 -1.3976
  707TIP3   OH223611   1.202   0.447   3.942 -0.1694 -0.4893 -0.5746
  707TIP3    H123612   1.218   0.526   3.891 -0.3529  0.2571  0.4991
  707TIP3    H223613   1.109   0.426   3.926 -0.3018 -0.0957 -0.3122
  708TIP3   OH223614   3.446   5.712   2.359 -1.1278 -0.2939  0.2710
  708TIP3    H123615   3.474   5.678   2.274 -2.3363  2.6999 -1.4749
  708TIP3    H223616   3.357   5.679   2.370 -0.6965 -1.3360  0.8338
  709TIP3   OH223617   6.021   0.154  17.071 -0.2926  0.1734  0.1224
  709TIP3    H123618   5.992   0.241  17.046 -0.1750  0.6631  1.5816
  709TIP3    H223619   5.940   0.103  17.080 -0.5326  0.7217  1.2752
  710TIP3   OH223620   2.501   3.577  11.840 -0.3478  0.3832 -0.9792
  710TIP3    H123621   2.463   3.492  11.816 -0.7126 -0.0787  1.0160
  710TIP3    H223622   2.451   3.605  11.916  1.9076  0.7451  0.4859
  711TIP3   OH223623   6.541   3.175  14.469 -0.5505  0.1475  0.0239
  711TIP3    H123624   6.509   3.265  14.472  0.3459  0.4565  1.5542
  711TIP3    H223625   6.616   3.178  14.410  0.2517  0.6976  1.0456
  712TIP3   OH223626   2.865   5.026  14.084 -0.0824  0.1442  0.0350
  712TIP3    H123627   2.779   4.994  14.112 -0.2408  1.5361  1.2125
  712TIP3    H223628   2.923   4.951  14.096 -1.1762 -0.9579 -1.1862
  713TIP3   OH223629   3.874   3.899   0.737 -0.2815  0.2559  0.2800
  713TIP3    H123630   3.855   3.950   0.816 -1.2918  1.2547 -0.5784
  713TIP3    H223631   3.818   3.822   0.744  2.1551 -1.5032  2.2020
  714TIP3   OH223632   3.491   3.323   5.501 -0.0845 -0.4775 -0.5696
  714TIP3    H123633   3.571   3.304   5.452  2.2706 -1.9803  3.3468
  714TIP3    H223634   3.454   3.236   5.520 -0.8974  0.0411  0.2852
  715TIP3   OH223635   0.531   4.511   5.190  0.2389  0.0492 -0.5760
  715TIP3    H123636   0.570   4.455   5.122  0.1701 -1.2900  0.4421
  715TIP3    H223637   0.599   4.576   5.209  0.6258 -0.1472 -1.2471
  716TIP3   OH223638   3.711   3.639  11.124  0.1835 -0.4727 -0.2210
  716TIP3    H123639   3.672   3.574  11.182  1.1237 -0.8299  0.0249
  716TIP3    H223640   3.693   3.607  11.035  0.1305 -0.7540 -0.1082
  717TIP3   OH223641   4.608   0.559   4.583 -0.0743 -0.0083 -0.5560
  717TIP3    H123642   4.647   0.612   4.513 -0.0723  1.5946  0.6142
  717TIP3    H223643   4.642   0.597   4.664 -1.2609 -0.8498  0.3738
  718TIP3   OH223644   6.447   2.455  12.912  0.0081 -0.7224 -0.6585
  718TIP3    H123645   6.525   2.426  12.865 -0.0589 -1.9644 -0.0397
  718TIP3    H223646   6.402   2.374  12.936 -1.6921 -0.0245 -1.3332
  719TIP3   OH223647   4.532   1.881   2.868 -0.2594 -0.5614 -0.7817
  719TIP3    H123648   4.593   1.860   2.938  0.9037  1.3245 -1.1631
  719TIP3    H223649   4.532   1.803   2.812  2.1118 -0.5124 -0.9485
  720TIP3   OH223650   1.365   5.923   2.984  0.1294  1.1941  0.2563
  720TIP3    H123651   1.332   5.983   3.051 -1.0289 -0.6770  1.4887
  720TIP3    H223652   1.309   5.938   2.908 -0.8216  0.9956  0.9004
  721TIP3   OH223653   1.574   5.537   5.029 -0.2414  0.8346 -0.3880
  721TIP3    H123654   1.531   5.452   5.029 -1.4339  1.3643 -2.5601
  721TIP3    H223655   1.661   5.520   4.993 -0.1840  0.4313 -0.0657
  722TIP3   OH223656   6.524   3.917   6.148  0.3375  0.4449 -0.1616
  722TIP3    H123657   6.470   3.928   6.226  0.6544  0.6036  0.0350
  722TIP3    H223658   6.575   3.997   6.142 -2.0647  1.9551 -2.4178
  723TIP3   OH223659   4.462   5.656   1.177 -0.1408 -0.3656  0.2403
  723TIP3    H123660   4.377   5.611   1.177 -0.2044 -0.2883 -1.1981
  723TIP3    H223661   4.454   5.723   1.245 -1.4532  0.0107 -0.2521
  724TIP3   OH223662   3.844   0.889  15.068 -0.2904 -0.1177  0.0871
  724TIP3    H123663   3.929   0.863  15.104  0.1795  1.8276  0.4996
  724TIP3    H223664   3.821   0.818  15.007  1.1415 -1.1629  0.7061
  725TIP3   OH223665   1.400   2.180   0.345 -0.1129  0.0946 -0.5433
  725TIP3    H123666   1.396   2.096   0.391  0.4933  0.8669  1.0032
  725TIP3    H223667   1.492   2.206   0.351 -0.4167  1.1910 -0.3698
  726TIP3   OH223668   5.763   0.283  17.179 -0.5773 -0.0875 -0.2261
  726TIP3    H123669   5.806   0.296  17.263 -0.7652 -1.1175  0.0407
  726TIP3    H223670   5.807   0.346  17.120  1.5843 -1.3313 -0.0618
  727TIP3   OH223671   4.305   3.341   4.114  0.0857  0.0735  0.3351
  727TIP3    H123672   4.266   3.422   4.081  0.1210  0.2800  0.7902
  727TIP3    H223673   4.392   3.339   4.076 -0.3575 -0.3893 -0.6863
  728TIP3   OH223674   5.870   1.978  17.292 -0.3031  0.4780 -0.4833
  728TIP3    H123675   5.808   2.038  17.252 -0.1918  0.8206 -0.1480
  728TIP3    H223676   5.871   1.902  17.233 -0.0843  1.0022 -1.1680
  729TIP3   OH223677   4.530   1.688   6.592 -0.6725 -0.3444 -0.2050
  729TIP3    H123678   4.466   1.621   6.569 -0.9613 -0.2440  0.3021
  729TIP3    H223679   4.551   1.731   6.508 -1.3106 -0.3329 -0.3610
  730TIP3   OH223680   6.756   3.889  14.664 -0.9330 -0.1794  0.0978
  730TIP3    H123681   6.832   3.897  14.607 -0.3191  0.4347  0.9789
  730TIP3    H223682   6.731   3.796  14.658  0.0711 -0.4532  0.0413
  731TIP3   OH223683   6.428   0.659  12.717 -0.5845  0.1798  0.3115
  731TIP3    H123684   6.467   0.600  12.651 -1.0662  0.3574 -0.1432
  731TIP3    H223685   6.503   0.697  12.763 -0.1141  1.7250 -1.5848
  732TIP3   OH223686   4.670   0.073   0.653 -0.0916  0.0621  0.2195
  732TIP3    H123687   4.615   0.137   0.698  0.0560  0.6586 -0.4354
  732TIP3    H223688   4.614   0.037   0.584 -0.8217 -1.9575  1.7669
  733TIP3   OH223689   2.456   2.234   2.072  0.1498  0.0436  0.1747
  733TIP3    H123690   2.436   2.140   2.068  1.3612 -0.2142 -0.2571
  733TIP3    H223691   2.386   2.276   2.022  1.4771 -0.9500 -2.6921
  734TIP3   OH223692   4.046   5.128   1.008  0.3491  0.6726  0.1693
  734TIP3    H123693   4.118   5.172   0.963  0.0630  1.0931  0.1062
  734TIP3    H223694   4.013   5.064   0.945  0.3794  0.7963  0.0269
  735TIP3   OH223695   5.919   2.858   5.309 -0.1412 -0.4617 -0.4469
  735TIP3    H123696   5.931   2.894   5.221  0.2109  0.0299 -0.2003
  735TIP3    H223697   5.948   2.767   5.301  1.7291  0.0973 -0.3903
  736TIP3   OH223698   2.550   6.579   3.951  0.1390 -0.1259 -0.4257
  736TIP3    H123699   2.536   6.487   3.925 -3.1831  0.0096  0.3672
  736TIP3    H223700   2.614   6.575   4.022 -1.1619 -2.0898  0.7300
  737TIP3   OH223701   0.087   5.319   1.250  0.2192 -0.0144  0.1173
  737TIP3    H123702   0.167   5.366   1.225  0.6657 -0.3597  0.8605
  737TIP3    H223703   0.028   5.332   1.176  2.2890 -2.9727 -2.2766
  738TIP3   OH223704   2.627   4.302  15.805  0.2621 -0.3038  0.0060
  738TIP3    H123705   2.549   4.348  15.773  0.0498 -1.6517 -1.5429
  738TIP3    H223706   2.616   4.298  15.900 -0.8653  0.7228 -0.0625
  739TIP3   OH223707   1.916   3.177   4.605  0.7348 -0.4275 -0.2510
  739TIP3    H123708   1.971   3.232   4.549  2.0274  0.6911  1.9859
  739TIP3    H223709   1.873   3.239   4.664 -0.5230 -1.5589  0.0703
  740TIP3   OH223710   4.827   6.553   0.708  0.3068 -0.2733  0.6731
  740TIP3    H123711   4.857   6.641   0.733  0.0617  0.5739 -1.7588
  740TIP3    H223712   4.735   6.564   0.684  0.3920 -1.0920 -0.0881
  741TIP3   OH223713   0.069   0.719  13.726 -0.1076 -0.8988  0.2344
  741TIP3    H123714  -0.012   0.721  13.676  0.4608  0.6698 -0.6837
  741TIP3    H223715   0.061   0.790  13.789  0.3035 -1.1309  0.5552
  742TIP3   OH223716   6.564   5.284  13.896 -0.3259 -0.0452  0.1419
  742TIP3    H123717   6.615   5.288  13.815  0.4021 -0.4592  0.5786
  742TIP3    H223718   6.536   5.374  13.910  0.1396  0.1570 -0.1881
  743TIP3   OH223719   0.632   1.940  16.313 -0.4204 -0.0683  0.3584
  743TIP3    H123720   0.602   1.854  16.283  0.8764  0.3648 -2.4044
  743TIP3    H223721   0.578   2.002  16.264 -0.2621  0.7275  1.1680
  744TIP3   OH223722   0.946   2.558  14.146  0.3394 -0.9070  0.0476
  744TIP3    H123723   0.920   2.592  14.232  1.3367  0.7313 -0.2519
  744TIP3    H223724   0.960   2.465  14.160  0.5969 -0.6475  1.6875
  745TIP3   OH223725   1.716   0.132   5.016  0.0144  0.0593 -0.1123
  745TIP3    H123726   1.805   0.099   5.005  0.3571  0.6697  0.6910
  745TIP3    H223727   1.662   0.054   5.029  0.7939 -0.2231  1.6579
  746TIP3   OH223728   6.699   1.502   4.917 -0.1385 -0.0440 -0.4914
  746TIP3    H123729   6.616   1.542   4.944  0.3628 -0.3148  1.6190
  746TIP3    H223730   6.709   1.529   4.826 -1.8151  1.2415 -0.3621
  747TIP3   OH223731   4.402   0.543  16.482  0.4479  0.0354 -0.0522
  747TIP3    H123732   4.425   0.623  16.529  0.6239  0.3982 -0.7363
  747TIP3    H223733   4.485   0.499  16.466  0.4390  0.1352 -0.3982
  748TIP3   OH223734   2.399   2.983  10.900 -0.1756  0.8778 -0.5462
  748TIP3    H123735   2.451   2.997  10.821  0.4882  1.7251  0.0219
  748TIP3    H223736   2.328   2.924  10.873  0.6115  0.3684 -1.5239
  749TIP3   OH223737   3.328   6.300   1.748  0.4333  0.6069 -0.5997
  749TIP3    H123738   3.331   6.394   1.766 -0.4748  0.5189  0.0899
  749TIP3    H223739   3.260   6.267   1.806  0.9973 -0.5436 -0.5659
  750TIP3   OH223740   4.907   0.565  17.229  0.1177 -0.0438 -0.3219
  750TIP3    H123741   4.841   0.623  17.269  0.5330 -0.1921  0.6101
  750TIP3    H223742   4.857   0.511  17.168 -0.2636  1.3799 -1.3284
  751TIP3   OH223743   0.084   6.409   5.606  0.4180  0.1415 -0.2253
  751TIP3    H123744   0.168   6.439   5.640  1.2899 -0.7199 -1.5251
  751TIP3    H223745   0.029   6.398   5.684  1.6077  0.3996  0.6812
  752TIP3   OH223746   2.157   0.352   0.063 -0.0651 -0.5879 -0.0694
  752TIP3    H123747   2.186   0.327   0.151 -0.4253  0.8570  0.5027
  752TIP3    H223748   2.218   0.308   0.004  1.6915  0.2811  0.9978
  753TIP3   OH223749   6.615   0.290  12.675  0.0226  0.1042 -0.2749
  753TIP3    H123750   6.557   0.281  12.600 -0.4893  1.3975 -0.0686
  753TIP3    H223751   6.674   0.362  12.652  2.0208 -1.5609 -0.7383
  754TIP3   OH223752   2.613   1.643   3.344 -0.0476 -0.0284  0.1507
  754TIP3    H123753   2.596   1.638   3.438  0.6236  3.1952  0.5610
  754TIP3    H223754   2.695   1.595   3.331 -0.0492 -0.3365  1.2079
  755TIP3   OH223755   3.161   5.700   0.604 -0.0867 -0.0671 -0.2517
  755TIP3    H123756   3.186   5.691   0.696  1.2465 -0.0771 -0.6011
  755TIP3    H223757   3.082   5.754   0.606 -1.0581 -1.4415  1.0120
  756TIP3   OH223758   1.538   2.546   2.217 -0.4485  0.0192  0.1933
  756TIP3    H123759   1.523   2.490   2.293 -0.4537 -1.4528 -0.8569
  756TIP3    H223760   1.462   2.605   2.216 -0.9994 -0.6630  0.7160
  757TIP3   OH223761   5.568   0.043  15.336  0.0987  0.7759  0.4777
  757TIP3    H123762   5.536   0.041  15.246 -0.5112  1.6240  0.6674
  757TIP3    H223763   5.500  -0.002  15.387 -0.4652  1.9323  0.7730
  758TIP3   OH223764   5.444   1.101  16.975  0.6041  0.2361  0.0607
  758TIP3    H123765   5.385   1.161  17.021  1.1522  1.0876 -0.3225
  758TIP3    H223766   5.480   1.153  16.903 -0.5299 -1.1489 -1.6292
  759TIP3   OH223767   1.848   0.701   3.753  0.3610 -0.3899  0.4010
  759TIP3    H123768   1.808   0.672   3.671 -2.0944  2.5592  0.3564
  759TIP3    H223769   1.832   0.630   3.815 -0.8923 -1.2189 -0.8261
  760TIP3   OH223770   2.371   2.655   5.487 -0.4971  0.0282 -0.1398
  760TIP3    H123771   2.460   2.621   5.495  0.0802  1.5194  0.1135
  760TIP3    H223772   2.335   2.650   5.575 -0.4806 -0.1037 -0.1407
  761TIP3   OH223773   0.813   3.273  13.745  0.4238 -0.6301 -0.2546
  761TIP3    H123774   0.780   3.191  13.782  2.1032  0.0271  3.1533
  761TIP3    H223775   0.899   3.251  13.711  0.9674 -0.3186  0.8573
  762TIP3   OH223776   1.214   6.165   4.265  0.3891 -0.3307  0.0061
  762TIP3    H123777   1.149   6.103   4.298 -0.1521 -0.3809 -1.0906
  762TIP3    H223778   1.219   6.233   4.333 -1.4651  0.1273 -0.2476
  763TIP3   OH223779   1.384   1.881  16.935  0.1649  0.1811 -0.5025
  763TIP3    H123780   1.432   1.961  16.914  1.2036 -0.7672 -1.8920
  763TIP3    H223781   1.307   1.883  16.877  1.0557 -0.5962 -1.7546
  764TIP3   OH223782   6.456   1.682  14.765  0.5194 -0.0567  0.5106
  764TIP3    H123783   6.361   1.686  14.753  0.4928  0.6502  0.9289
  764TIP3    H223784   6.485   1.612  14.705 -0.2069  0.0180  0.0632
  765TIP3   OH223785   4.452   2.435   4.931  0.3270 -0.3658 -0.8685
  765TIP3    H123786   4.465   2.455   4.838 -0.6691  0.1948 -0.9022
  765TIP3    H223787   4.395   2.504   4.963  1.5477  0.0797  0.4542
  766TIP3   OH223788   1.392   6.421  14.164 -0.2808  0.2358  0.2118
  766TIP3    H123789   1.315   6.451  14.115 -1.4899 -1.5932  0.8937
  766TIP3    H223790   1.456   6.491  14.152 -1.6993  1.3881 -1.1765
  767TIP3   OH223791   1.766   4.599  16.768  0.6024 -0.2633  0.4221
  767TIP3    H123792   1.856   4.565  16.763  0.3552 -0.7964 -0.4872
  767TIP3    H223793   1.725   4.549  16.839  0.1274 -2.1874 -1.1367
  768TIP3   OH223794   4.348   2.156   5.300  0.0144 -0.7807 -0.3874
  768TIP3    H123795   4.440   2.157   5.274 -0.4427 -0.9393 -2.1365
  768TIP3    H223796   4.350   2.165   5.395  1.8577 -1.5718 -0.3080
  769TIP3   OH223797   0.523   2.823  10.882  0.0765  0.5792 -0.3259
  769TIP3    H123798   0.577   2.761  10.834  0.3103  0.2309  0.3675
  769TIP3    H223799   0.581   2.855  10.952 -0.2786  1.0165 -0.2261
  770TIP3   OH223800   6.527   0.440  14.854  0.2603 -0.7962  0.3084
  770TIP3    H123801   6.525   0.378  14.926 -3.3273 -0.7183  0.4546
  770TIP3    H223802   6.560   0.521  14.892  1.8384 -1.6578  0.8892
  771TIP3   OH223803   2.292   3.134   4.692  0.0790  0.0608 -0.3534
  771TIP3    H123804   2.281   3.127   4.597 -2.9027 -0.9251 -0.0570
  771TIP3    H223805   2.283   3.044   4.723  0.4245  0.4494  0.9083
  772TIP3   OH223806   3.286   0.233  15.196  0.1610 -0.4795  0.0520
  772TIP3    H123807   3.266   0.157  15.251 -0.8014  0.1813  0.6556
  772TIP3    H223808   3.303   0.303  15.259 -1.1957  0.3496 -0.4802
  773TIP3   OH223809   2.070   6.195   2.769 -0.0272 -0.0510 -0.1861
  773TIP3    H123810   2.130   6.192   2.695 -0.3383  2.9021 -0.6892
  773TIP3    H223811   2.118   6.242   2.837 -0.8037 -0.0664  0.3900
  774TIP3   OH223812   2.560   2.836   6.177 -0.1666  0.7417  0.7065
  774TIP3    H123813   2.600   2.897   6.240  1.4609 -0.3749  0.8375
  774TIP3    H223814   2.471   2.869   6.165  0.4410  2.7654  1.2365
  775TIP3   OH223815   1.358   5.321   3.914  0.0694  0.4635 -0.3251
  775TIP3    H123816   1.429   5.265   3.944  0.4499  1.0742 -0.0580
  775TIP3    H223817   1.341   5.380   3.988 -1.4141 -0.3228  0.0144
  776TIP3   OH223818   0.978   2.842   3.413 -0.0097 -0.1520  0.8487
  776TIP3    H123819   0.899   2.790   3.426 -0.8048  0.9166  0.4133
  776TIP3    H223820   0.948   2.933   3.413  1.4432  0.3903  2.3427
  777TIP3   OH223821   4.555   3.341   5.361 -0.2428  0.0185  0.2333
  777TIP3    H123822   4.566   3.312   5.270 -1.1349 -1.0626  0.4445
  777TIP3    H223823   4.590   3.269   5.413  1.0829  1.0098  0.7674
  778TIP3   OH223824   3.557   0.569   2.645 -0.0268 -0.7750 -0.1811
  778TIP3    H123825   3.491   0.570   2.714  0.0956  0.0101 -0.0671
  778TIP3    H223826   3.555   0.658   2.608  1.9187 -0.2899  0.7492
  779TIP3   OH223827   3.108   1.815  16.345  0.6205 -0.2446  0.0581
  779TIP3    H123828   3.127   1.888  16.286  1.9338  0.0536  0.8155
  779TIP3    H223829   3.064   1.855  16.420  0.7846 -0.3286  0.1985
  780TIP3   OH223830   0.790   3.284  14.502 -0.0195 -0.7579  0.9682
  780TIP3    H123831   0.696   3.275  14.487  0.0695  1.1097 -1.5055
  780TIP3    H223832   0.798   3.307  14.594 -1.5924 -4.4620  2.1894
  781TIP3   OH223833   3.743   1.728  16.299  0.2411 -0.0179  0.1757
  781TIP3    H123834   3.780   1.650  16.257  0.5107  0.9476 -1.4625
  781TIP3    H223835   3.817   1.767  16.347  0.3548 -0.2192  0.1656
  782TIP3   OH223836   0.661   2.398   0.587 -0.0768 -0.4762 -0.5517
  782TIP3    H123837   0.718   2.462   0.630 -0.7716 -0.5015  0.4391
  782TIP3    H223838   0.579   2.403   0.636 -0.4931 -1.3552 -1.1475
  783TIP3   OH223839   1.060   5.380   2.149 -0.0436 -0.2117  0.4320
  783TIP3    H123840   1.090   5.470   2.164 -0.5268  0.1934 -0.8705
  783TIP3    H223841   0.972   5.390   2.113  0.3366 -1.1298 -0.8362
  784TIP3   OH223842   5.320   2.533  16.487 -0.4361 -0.6743  0.2619
  784TIP3    H123843   5.286   2.462  16.542 -0.0352 -0.4989  0.7506
  784TIP3    H223844   5.313   2.611  16.543  1.7389 -0.7942  0.8096
  785TIP3   OH223845   6.722   0.028   1.668 -0.2450  0.2643 -0.4092
  785TIP3    H123846   6.637  -0.013   1.656 -0.0686  0.1741 -1.5082
  785TIP3    H223847   6.720   0.063   1.757 -1.2027 -0.2444 -0.2170
  786TIP3   OH223848   1.305   5.967  15.680  0.4771 -0.2522 -0.0979
  786TIP3    H123849   1.391   5.933  15.704 -0.0876 -2.4628 -1.0003
  786TIP3    H223850   1.254   5.890  15.653 -2.2938  0.7640  1.7776
  787TIP3   OH223851   5.471   1.133   5.523  0.3540 -0.2625 -0.1740
  787TIP3    H123852   5.420   1.062   5.561 -0.4051  0.0303 -0.6276
  787TIP3    H223853   5.444   1.211   5.571  0.4608 -0.1224 -0.3385
  788TIP3   OH223854   5.283   5.359   3.755  0.6420 -0.1660 -0.5475
  788TIP3    H123855   5.204   5.353   3.809  1.5602  1.2239  1.0512
  788TIP3    H223856   5.347   5.401   3.812  2.0743  0.1556 -2.3191
  789TIP3   OH223857   5.579   0.556   1.088  0.8937 -0.1384 -0.1022
  789TIP3    H123858   5.612   0.645   1.074 -0.2771  0.2442 -0.4941
  789TIP3    H223859   5.525   0.562   1.166  2.3075 -0.9335  0.9926
  790TIP3   OH223860   2.953   1.908   0.730  0.2411 -0.0398  0.6487
  790TIP3    H123861   2.907   1.978   0.683 -2.7959 -0.6218  2.5441
  790TIP3    H223862   2.931   1.921   0.822 -0.2104 -3.2904  1.1190
  791TIP3   OH223863   4.226   1.081  12.820 -0.5739  0.3082 -0.6088
  791TIP3    H123864   4.132   1.094  12.803 -0.9647 -0.9761  0.3382
  791TIP3    H223865   4.268   1.099  12.737 -1.2796  3.9367 -0.3407
  792TIP3   OH223866   1.173   0.176   4.682 -0.4026  0.0473 -0.0543
  792TIP3    H123867   1.214   0.118   4.746 -1.2800 -0.7288 -0.1827
  792TIP3    H223868   1.209   0.262   4.702 -1.7056  0.0953  2.4362
  793TIP3   OH223869   0.115   4.810   6.057 -0.5662 -0.5088  0.3705
  793TIP3    H123870   0.118   4.721   6.022 -0.1443 -0.4373  0.2268
  793TIP3    H223871   0.146   4.802   6.147 -0.9076 -0.5677  0.4857
  794TIP3   OH223872   5.912   3.175  15.788  0.0710 -0.0014 -0.4871
  794TIP3    H123873   5.970   3.202  15.716  1.8095 -0.3918  0.7139
  794TIP3    H223874   5.930   3.237  15.858 -2.4441  1.0811 -0.6997
  795TIP3   OH223875   2.662   4.744  10.526 -0.3638 -0.1853  0.0568
  795TIP3    H123876   2.598   4.756  10.456 -0.0344  0.9777 -0.0615
  795TIP3    H223877   2.654   4.652  10.550 -1.4923 -0.2532 -0.5223
  796TIP3   OH223878   0.690   1.316   3.260  0.1083 -0.1296  0.2288
  796TIP3    H123879   0.661   1.344   3.347  1.0580  0.1595  0.4670
  796TIP3    H223880   0.786   1.316   3.266  0.1805 -0.2275 -0.7838
  797TIP3   OH223881   4.794   2.871  11.077 -0.0622 -0.3892 -0.3372
  797TIP3    H123882   4.834   2.800  11.027  0.8793 -0.4328  0.4334
  797TIP3    H223883   4.849   2.947  11.057  0.7678 -0.5662  1.1577
  798TIP3   OH223884   4.429   2.378   3.879  0.6441  0.1060 -0.7700
  798TIP3    H123885   4.357   2.321   3.907  1.1657 -0.6673 -0.9728
  798TIP3    H223886   4.425   2.378   3.784  1.9027 -1.2885 -0.8612
  799TIP3   OH223887   0.976   0.100   3.941 -0.1284  0.2750  0.0352
  799TIP3    H123888   0.943   0.076   4.027  0.6472  0.0093  0.2705
  799TIP3    H223889   1.036   0.029   3.917 -1.3127 -0.3337 -1.3163
  800TIP3   OH223890   5.394   3.196  12.611 -0.0618  0.2073  0.3949
  800TIP3    H123891   5.377   3.268  12.550  0.2840  0.4766  0.6139
  800TIP3    H223892   5.407   3.239  12.696  0.6147 -0.0761  0.4409
  801TIP3   OH223893   3.077   1.212   5.004  0.0065 -0.6064  0.3014
  801TIP3    H123894   3.005   1.275   5.009  0.5182 -0.0436  0.6558
  801TIP3    H223895   3.111   1.207   5.094  1.4228  0.3286 -0.1603
  802TIP3   OH223896   3.394   2.998  11.762  0.2743  0.4039 -0.0980
  802TIP3    H123897   3.397   3.054  11.839  2.2516 -1.2622  1.1561
  802TIP3    H223898   3.486   2.984  11.738 -0.1624 -1.5560 -0.8537
  803TIP3   OH223899   1.119   5.412  15.798  0.3489  0.3666  0.1290
  803TIP3    H123900   1.172   5.470  15.743  1.4719 -1.7234 -1.1154
  803TIP3    H223901   1.052   5.377  15.740  0.2757 -0.3052  0.5972
  804TIP3   OH223902   1.915   4.024  17.055  0.1931 -0.3083 -0.3777
  804TIP3    H123903   1.837   3.978  17.086  1.4024 -0.8962  2.0110
  804TIP3    H223904   1.885   4.113  17.037 -1.3670 -0.9745 -1.2815
  805TIP3   OH223905   0.181   2.696  11.142  0.4595 -0.2089 -0.1910
  805TIP3    H123906   0.211   2.785  11.125  2.4928 -0.5303  1.3689
  805TIP3    H223907   0.240   2.640  11.091  0.3873 -0.7339  0.2909
  806TIP3   OH223908   5.073   3.286  15.548  0.3272 -0.0790  0.3096
  806TIP3    H123909   5.012   3.288  15.622  0.1787  0.5704  0.1758
  806TIP3    H223910   5.125   3.365  15.558  1.0964 -0.5803  0.3729
  807TIP3   OH223911   3.716   4.312   3.929  0.2685 -0.3448  0.1236
  807TIP3    H123912   3.633   4.268   3.948 -0.1952 -0.1226 -1.3305
  807TIP3    H223913   3.718   4.387   3.989 -0.1973 -0.7845  0.7041
  808TIP3   OH223914   2.516   5.290  12.326  0.0832 -0.4661  0.2771
  808TIP3    H123915   2.523   5.385  12.339  0.3198 -0.3406 -0.7463
  808TIP3    H223916   2.445   5.264  12.384 -1.0143  0.5762 -0.5445
  809TIP3   OH223917   3.767   0.020  15.294 -0.3038  0.0414 -0.7379
  809TIP3    H123918   3.678  -0.014  15.294  0.2080 -1.3695 -1.1740
  809TIP3    H223919   3.757   0.114  15.275 -1.7690  0.2099  0.6240
  810TIP3   OH223920   2.891   1.587   5.765  0.5614  0.2116  0.4315
  810TIP3    H123921   2.818   1.527   5.780 -0.0622  1.0662  0.9195
  810TIP3    H223922   2.966   1.530   5.746  0.1875 -0.7556  1.7213
  811TIP3   OH223923   6.738   3.416  16.283 -0.2943 -0.1294 -0.1681
  811TIP3    H123924   6.668   3.374  16.233  0.1455  0.3016 -1.1841
  811TIP3    H223925   6.818   3.390  16.238  0.0339  1.2018 -0.3856
  812TIP3   OH223926   1.497   1.964  13.627  0.5882 -0.0530  0.4776
  812TIP3    H123927   1.462   1.880  13.656  0.5324 -0.7073 -1.3271
  812TIP3    H223928   1.577   1.941  13.580  0.9292  0.9717  0.5415
  813TIP3   OH223929   6.407   6.752  11.191 -0.5993  0.0986  0.5065
  813TIP3    H123930   6.430   6.708  11.109  2.3880  3.1893 -0.5934
  813TIP3    H223931   6.344   6.819  11.166 -1.0851 -0.1244  1.1133
  814TIP3   OH223932   5.276   6.525  13.353  0.5087  0.2413 -0.1598
  814TIP3    H123933   5.281   6.601  13.410 -0.2874  0.1386  0.0552
  814TIP3    H223934   5.200   6.541  13.297  0.2454 -0.4508 -0.0169
  815TIP3   OH223935   5.749   6.322   4.011 -0.4553  0.6498  0.5145
  815TIP3    H123936   5.654   6.308   4.011 -0.7517  2.3695  0.6654
  815TIP3    H223937   5.760   6.407   3.967  1.1170 -0.0101 -0.4419
  816TIP3   OH223938   0.086   1.227   1.861 -0.0179 -0.0931 -0.0310
  816TIP3    H123939   0.036   1.212   1.781  1.4895 -0.5064 -0.9355
  816TIP3    H223940   0.159   1.282   1.832  0.1590  0.3506  1.2249
  817TIP3   OH223941   1.416   1.652  14.957  0.1314 -0.0491  0.3184
  817TIP3    H123942   1.342   1.707  14.981  0.3075  0.2807  0.1239
  817TIP3    H223943   1.452   1.695  14.879  0.9243  0.1691  0.7969
  818TIP3   OH223944   3.649   4.898   4.388  0.7809  0.5509 -0.1419
  818TIP3    H123945   3.715   4.925   4.324  1.1413 -2.8180 -1.3432
  818TIP3    H223946   3.580   4.857   4.336  0.0087 -0.2399  1.4503
  819TIP3   OH223947   4.979   0.967  13.204 -0.0108  0.2917  0.0141
  819TIP3    H123948   5.006   0.880  13.173 -0.9065 -0.8250  2.0815
  819TIP3    H223949   5.053   1.024  13.183  0.8461 -1.0910 -0.9288
  820TIP3   OH223950   1.682   5.785   2.766  0.7561 -0.0571  0.4145
  820TIP3    H123951   1.688   5.746   2.853  0.6770  1.3541  1.0668
  820TIP3    H223952   1.636   5.867   2.779 -0.6571 -0.5275 -1.2045
  821TIP3   OH223953   6.520   1.714  15.292 -0.0040 -0.0972  0.1868
  821TIP3    H123954   6.438   1.760  15.274 -0.1039 -0.2501  0.2518
  821TIP3    H223955   6.586   1.784  15.297 -0.1833  0.0545  0.4489
  822TIP3   OH223956   2.809   3.674  10.736  0.6127 -0.0182 -0.1366
  822TIP3    H123957   2.888   3.629  10.709 -0.0830  0.2085 -2.9115
  822TIP3    H223958   2.746   3.604  10.755  0.5763 -0.2108 -0.9550
  823TIP3   OH223959   2.863   3.103   5.178  0.5509 -0.0334 -0.2560
  823TIP3    H123960   2.814   3.159   5.117  0.9256 -0.5197 -1.0214
  823TIP3    H223961   2.887   3.026   5.126 -0.6103 -1.2835  0.9749
  824TIP3   OH223962   3.203   6.344  11.501  0.1784 -0.0121  0.3530
  824TIP3    H123963   3.110   6.335  11.521 -0.3432  3.4691  0.1006
  824TIP3    H223964   3.205   6.371  11.409  1.5344 -0.9562  0.0781
  825TIP3   OH223965   1.960   3.945   5.956  0.0839 -0.2892 -0.1972
  825TIP3    H123966   2.019   3.924   5.884 -1.1848 -1.1507 -1.0271
  825TIP3    H223967   1.996   4.024   5.995  0.0809  1.0111 -2.6490
  826TIP3   OH223968   4.634   5.948  13.257 -0.2221  0.1770  0.2520
  826TIP3    H123969   4.594   6.031  13.233 -0.0652  0.0618 -0.4300
  826TIP3    H223970   4.649   5.954  13.351 -1.2022  0.4899  0.3891
  827TIP3   OH223971   2.972   3.181  12.356 -0.3911 -0.1686 -0.0756
  827TIP3    H123972   3.040   3.248  12.355 -2.9393  2.6034  0.9928
  827TIP3    H223973   2.978   3.141  12.442 -0.5332  0.5544  0.2738
  828TIP3   OH223974   1.703   3.402  12.770 -0.5958  0.2781  0.9434
  828TIP3    H123975   1.672   3.378  12.857 -2.8767  0.3848  0.2214
  828TIP3    H223976   1.685   3.496  12.763 -1.4787  0.0553 -0.0211
  829TIP3   OH223977   0.498   1.934   0.809 -0.5337  0.1769 -0.2549
  829TIP3    H123978   0.466   1.851   0.845 -0.9708  0.5498  0.2238
  829TIP3    H223979   0.500   1.919   0.714 -1.9044  0.0601 -0.2787
  830TIP3   OH223980   2.429   1.131  13.136  0.6929 -0.0589 -0.2605
  830TIP3    H123981   2.455   1.221  13.120  1.4071  0.0904  1.5252
  830TIP3    H223982   2.469   1.081  13.066  1.1617  0.8787 -0.6725
  831TIP3   OH223983   2.725   2.226  11.335  0.5485 -0.4654  0.5131
  831TIP3    H123984   2.760   2.244  11.422 -0.4420  0.3051  0.7763
  831TIP3    H223985   2.636   2.261  11.337  0.4613 -0.5452 -0.7743
  832TIP3   OH223986   5.813   2.718  15.155  0.1521  0.6283  0.4684
  832TIP3    H123987   5.732   2.718  15.104  0.5717 -0.9723 -0.2646
  832TIP3    H223988   5.853   2.802  15.135  0.2536  0.1108 -1.8289
  833TIP3   OH223989   4.036   6.103   0.850  0.0691  0.7375 -0.0832
  833TIP3    H123990   4.113   6.096   0.792 -1.1148  1.0147 -1.7825
  833TIP3    H223991   3.983   6.026   0.828 -0.2303  0.6431  0.9394
  834TIP3   OH223992   2.730   6.498  13.471  0.5264 -0.5218  0.0294
  834TIP3    H123993   2.701   6.589  13.466 -1.0638 -0.9853  0.1703
  834TIP3    H223994   2.809   6.500  13.525 -0.7310  0.5355  1.9261
  835TIP3   OH223995   2.381   2.721   1.927 -0.7741 -0.1220  0.7556
  835TIP3    H123996   2.356   2.790   1.988  0.0872  0.4672  0.4673
  835TIP3    H223997   2.315   2.653   1.938 -1.6761  0.7805  0.9938
  836TIP3   OH223998   3.099   6.352  14.832  0.2819 -0.0110  0.0142
  836TIP3    H123999   3.006   6.360  14.812  0.1792 -0.8095  0.1736
  836TIP3    H224000   3.109   6.398  14.916 -0.4399 -2.0023  1.2578
  837TIP3   OH224001   5.231   3.524  15.550 -0.1447 -0.7440 -0.0477
  837TIP3    H124002   5.188   3.591  15.497 -0.7374 -0.1917  1.0943
  837TIP3    H224003   5.286   3.475  15.488 -1.2532 -0.4972 -1.2568
  838TIP3   OH224004   5.426   6.359  14.896 -0.3383  0.1513 -0.4823
  838TIP3    H124005   5.511   6.342  14.936  0.3033  2.9649 -0.4821
  838TIP3    H224006   5.365   6.304  14.947  1.2051 -0.5347  0.7095
  839TIP3   OH224007   2.186   4.369  13.608 -0.2535  0.0987  0.1120
  839TIP3    H124008   2.212   4.461  13.600 -1.2237  0.4147  0.3753
  839TIP3    H224009   2.127   4.368  13.684  0.2194 -0.8575  0.4841
  840TIP3   OH224010   0.404   6.044   4.590 -0.0978  0.1203 -0.4724
  840TIP3    H124011   0.366   6.075   4.672 -1.3265  0.3888 -1.1216
  840TIP3    H224012   0.492   6.013   4.615  0.3387  2.0499  0.5865
  841TIP3   OH224013   1.604   5.528  10.731  0.0792 -0.5795  0.6211
  841TIP3    H124014   1.667   5.461  10.705  0.6493  0.6620 -1.4676
  841TIP3    H224015   1.560   5.552  10.650 -2.9344 -1.1582  1.9674
  842TIP3   OH224016   5.335   2.524  13.283  0.2376 -0.2202  0.1954
  842TIP3    H124017   5.422   2.492  13.256 -0.1599  0.9587 -2.9674
  842TIP3    H224018   5.274   2.480  13.224 -1.0442  0.8978  0.6352
  843TIP3   OH224019   1.182   1.257   5.080 -0.1213  0.1538  0.2854
  843TIP3    H124020   1.170   1.180   5.136 -0.3452 -0.0897 -0.0964
  843TIP3    H224021   1.277   1.273   5.082  0.0696 -0.7950 -0.5145
  844TIP3   OH224022   0.622   0.253  15.752 -0.3842 -0.3253  1.0179
  844TIP3    H124023   0.571   0.250  15.833 -2.8181  0.9236 -0.3615
  844TIP3    H224024   0.711   0.229  15.779 -1.4208 -1.5535  3.7450
  845TIP3   OH224025   3.972   3.546   5.931  0.0579  0.3094  0.2116
  845TIP3    H124026   4.029   3.623   5.926 -0.8062  0.9182 -0.7981
  845TIP3    H224027   4.031   3.474   5.956  1.1235  1.0513 -0.0759
  846TIP3   OH224028   1.340   5.288   5.238  0.2495 -0.3648  0.2001
  846TIP3    H124029   1.269   5.343   5.271  1.1146  0.8229  0.1343
  846TIP3    H224030   1.416   5.346   5.235  0.9665 -1.3175 -0.7786
  847TIP3   OH224031   6.342   1.337  13.780  0.2013 -1.0516  0.5156
  847TIP3    H124032   6.257   1.377  13.799 -0.0675 -1.6301  0.5560
  847TIP3    H224033   6.320   1.248  13.751  0.5599 -0.2343 -2.6048
  848TIP3   OH224034   5.652   0.637  14.989 -1.1502 -0.3866 -0.3471
  848TIP3    H124035   5.677   0.720  15.030  0.7023 -0.4275 -1.3015
  848TIP3    H224036   5.600   0.662  14.912 -2.0203 -0.2109  0.2752
  849TIP3   OH224037   4.747   3.564  16.010 -0.2760  0.1004 -0.2411
  849TIP3    H124038   4.676   3.577  15.947 -0.3073 -0.0866 -0.2444
  849TIP3    H224039   4.707   3.584  16.095 -0.4566 -0.4404 -0.1962
  850TIP3   OH224040   1.647   5.086   6.935 -0.1209  0.3236  0.7253
  850TIP3    H124041   1.573   5.143   6.914  0.7213  1.3009  0.3325
  850TIP3    H224042   1.608   5.000   6.948 -1.1742  0.5453 -0.7499
  851TIP3   OH224043   1.270   6.136  17.222  0.8567 -0.1320 -0.4086
  851TIP3    H124044   1.288   6.222  17.259  0.9616 -1.0197  1.7185
  851TIP3    H224045   1.288   6.074  17.293 -2.9922 -1.6768 -0.5269
  852TIP3   OH224046   1.021   4.294   0.621  0.2191 -0.1852 -0.1545
  852TIP3    H124047   1.006   4.277   0.714 -0.0532  1.1228  0.0561
  852TIP3    H224048   1.114   4.273   0.608  0.0308 -1.3313  0.1644
  853TIP3   OH224049   0.559   5.805   5.905 -0.1374 -0.0268  0.2292
  853TIP3    H124050   0.509   5.880   5.937  0.0361  0.4188 -0.4998
  853TIP3    H224051   0.499   5.731   5.910 -0.2463  0.1185  1.1449
  854TIP3   OH224052   3.496   6.550   0.171 -0.3769 -0.4296 -0.1075
  854TIP3    H124053   3.478   6.457   0.156  0.4930 -0.4767 -1.0182
  854TIP3    H224054   3.453   6.570   0.254 -0.1725 -1.7695  0.3549
  855TIP3   OH224055   6.402   2.150  12.134  0.3545  0.4025  0.3972
  855TIP3    H124056   6.381   2.202  12.211 -2.0843  0.5720 -0.2877
  855TIP3    H224057   6.331   2.085  12.128  0.3507  0.5148 -1.7635
  856TIP3   OH224058   4.949   4.098  13.441 -0.8184  0.1913 -0.2971
  856TIP3    H124059   4.978   4.176  13.394 -2.8291  0.4615 -1.2337
  856TIP3    H224060   4.976   4.025  13.385 -0.3759  0.3209 -0.2505
  857TIP3   OH224061   1.210   4.163  16.879 -0.8105  0.0018 -0.5255
  857TIP3    H124062   1.227   4.213  16.959  0.8631 -0.8389 -0.3165
  857TIP3    H224063   1.121   4.130  16.890 -0.1596 -1.2136  1.6480
  858TIP3   OH224064   1.967   4.314  15.196  0.3262 -0.4028  0.2355
  858TIP3    H124065   2.006   4.229  15.216  0.4202 -0.8757 -1.7648
  858TIP3    H224066   1.891   4.293  15.142 -0.0638  0.7589  0.3186
  859TIP3   OH224067   0.796   5.655  11.890  0.5514  0.4287  0.6516
  859TIP3    H124068   0.798   5.716  11.963  1.0557 -2.1545  2.9837
  859TIP3    H224069   0.868   5.594  11.909 -0.1127 -1.0633 -1.3375
  860TIP3   OH224070   5.102   0.449  15.333 -0.4144  0.4769  0.3687
  860TIP3    H124071   5.146   0.529  15.304 -0.9672  0.6661  0.0207
  860TIP3    H224072   5.161   0.378  15.307 -0.3616  0.7194 -0.1859
  861TIP3   OH224073   2.225   1.705   4.893  0.2713  0.2262  0.7013
  861TIP3    H124074   2.231   1.758   4.973  1.6925  2.0713 -0.5690
  861TIP3    H224075   2.267   1.622   4.917  0.8850  0.8272  1.7990
  862TIP3   OH224076   0.406   1.698  15.584  0.0122 -0.1582  0.0317
  862TIP3    H124077   0.314   1.716  15.602 -0.1255 -0.2716 -0.5240
  862TIP3    H224078   0.433   1.637  15.653 -0.4871 -0.5599 -0.1178
  863TIP3   OH224079   4.850   3.087   3.655  0.0081 -0.2765  0.2612
  863TIP3    H124080   4.911   3.141   3.705 -1.3123  0.7119  0.8763
  863TIP3    H224081   4.788   3.054   3.721 -0.7675 -0.3439 -0.4855
  864TIP3   OH224082   0.514   6.677  16.831 -0.1479 -0.4355 -0.6734
  864TIP3    H124083   0.543   6.619  16.761  1.4212  0.7904 -1.1049
  864TIP3    H224084   0.584   6.674  16.896 -0.4491  0.2857 -0.2971
  865TIP3   OH224085   4.310   1.587   3.176 -0.0911  0.1270  0.3255
  865TIP3    H124086   4.259   1.596   3.096 -0.6598  0.7394  0.7420
  865TIP3    H224087   4.251   1.616   3.246  0.4657 -0.1886  0.9402
  866TIP3   OH224088   1.983   2.007   0.053 -0.7410 -0.5444  0.2452
  866TIP3    H124089   1.941   2.089   0.078 -0.6476  0.3286 -2.2215
  866TIP3    H224090   2.007   2.019  -0.039  0.2640 -2.9411  0.1208
  867TIP3   OH224091   4.335   1.440  15.996  0.0822  0.1449  0.1870
  867TIP3    H124092   4.273   1.510  16.016 -0.3588  0.3377 -1.6580
  867TIP3    H224093   4.415   1.486  15.969  0.6317 -0.0981  1.3453
  868TIP3   OH224094   2.820   3.931  11.470 -0.3846 -0.5907  0.1492
  868TIP3    H124095   2.828   3.903  11.379  0.3089  1.1932 -0.3804
  868TIP3    H224096   2.908   3.955  11.496 -0.6879 -0.4354  1.0851
  869TIP3   OH224097   3.858   0.033   4.314 -0.5668 -0.0448  0.2800
  869TIP3    H124098   3.861   0.106   4.253 -0.6623  0.4610  0.8646
  869TIP3    H224099   3.892  -0.041   4.265 -1.8662  0.0328 -0.7992
  870TIP3   OH224100   2.757   6.026  15.311 -0.0188 -0.5690  0.1245
  870TIP3    H124101   2.667   5.995  15.301  0.3242 -1.4471 -0.2889
  870TIP3    H224102   2.759   6.109  15.263 -0.3044 -1.1287 -0.8768
  871TIP3   OH224103   5.897   1.944   2.684  0.0090  0.3966 -0.0384
  871TIP3    H124104   5.921   1.852   2.677 -3.4808 -0.7168  0.5404
  871TIP3    H224105   5.955   1.979   2.751 -0.3393 -2.1575  1.7357
  872TIP3   OH224106   6.621   5.318  16.664 -0.0451 -0.6118 -0.3697
  872TIP3    H124107   6.542   5.289  16.618 -0.0662 -0.1747 -0.6156
  872TIP3    H224108   6.605   5.293  16.755 -1.9663  2.3323  0.2669
  873TIP3   OH224109   4.624   1.333   0.655 -0.0421 -0.0029 -0.4245
  873TIP3    H124110   4.663   1.371   0.734  0.1017 -0.2063 -0.3944
  873TIP3    H224111   4.568   1.263   0.687 -0.8362  0.6160 -0.4376
  874TIP3   OH224112   2.910   2.658  15.684 -0.5535  0.7907  0.2222
  874TIP3    H124113   2.895   2.744  15.644  1.2417  1.0550  0.0378
  874TIP3    H224114   2.952   2.607  15.614 -2.9473 -0.7838 -0.1886
  875TIP3   OH224115   6.347   3.615   3.832 -0.2359  0.2671  0.4372
  875TIP3    H124116   6.327   3.544   3.772 -1.0563  0.6429  0.2426
  875TIP3    H224117   6.311   3.693   3.790  0.2407  0.7235  0.8577
  876TIP3   OH224118   1.663   0.958  16.446  0.0358 -0.5527 -0.0132
  876TIP3    H124119   1.721   0.945  16.522  0.1661 -2.2009 -0.3488
  876TIP3    H224120   1.713   1.012  16.386  0.0532  0.5186  0.9431
  877TIP3   OH224121   1.781   4.541   2.660 -0.1447 -0.0932 -0.8411
  877TIP3    H124122   1.691   4.529   2.690  0.2816 -2.4471 -0.2290
  877TIP3    H224123   1.798   4.465   2.605  1.9140 -0.5804  0.3388
  878TIP3   OH224124   3.209   2.442  16.892  0.5537  0.1268  0.5177
  878TIP3    H124125   3.121   2.404  16.892  1.0849 -1.2166 -1.5437
  878TIP3    H224126   3.265   2.374  16.854  1.9396  2.0763 -1.1263
  879TIP3   OH224127   6.212   6.136   5.983  0.4814 -0.0534  0.1169
  879TIP3    H124128   6.117   6.123   5.988  0.4247  0.5843  0.7717
  879TIP3    H224129   6.248   6.047   5.988 -0.1712 -0.7450 -3.8653
  880TIP3   OH224130   0.443   4.254  14.886  0.4845  0.0988  0.6771
  880TIP3    H124131   0.513   4.264  14.950  0.5440 -0.7523  0.7601
  880TIP3    H224132   0.370   4.218  14.936 -0.1801  1.4246  0.6890
  881TIP3   OH224133   5.852   4.850  11.646  0.0544  0.8818 -0.1847
  881TIP3    H124134   5.794   4.876  11.575  1.0634  3.2157 -0.2331
  881TIP3    H224135   5.916   4.920  11.652  2.0714 -0.9195  0.7867
  882TIP3   OH224136   4.742   6.291  14.806  0.4578 -0.5195 -0.1067
  882TIP3    H124137   4.806   6.252  14.746 -0.4665 -1.0029 -0.8125
  882TIP3    H224138   4.758   6.385  14.799 -0.7726 -0.4086 -2.5196
  883TIP3   OH224139   1.280   0.684   0.488  0.5707  0.3612 -0.2528
  883TIP3    H124140   1.245   0.772   0.487 -0.8045 -0.1613 -0.2439
  883TIP3    H224141   1.284   0.661   0.581 -1.4408 -0.4478 -0.3117
  884TIP3   OH224142   1.910   0.337  16.428  0.0240  0.5899 -0.0850
  884TIP3    H124143   1.939   0.375  16.345  3.0139  0.4705  0.7741
  884TIP3    H224144   1.882   0.249  16.406  1.1266  0.4331 -0.9774
  885TIP3   OH224145   3.477   2.825   2.845  0.2698 -0.2482 -0.4837
  885TIP3    H124146   3.420   2.792   2.914  2.9898  1.2917  2.8251
  885TIP3    H224147   3.536   2.751   2.825  0.8428 -0.0564  0.4724
  886TIP3   OH224148   3.928   1.663   0.355 -0.0354  0.1519  0.5688
  886TIP3    H124149   3.874   1.713   0.294 -2.2456 -3.8936 -1.1976
  886TIP3    H224150   4.010   1.647   0.308  0.1151  0.8953  0.5759
  887TIP3   OH224151   4.687   4.699   1.332 -0.4840 -0.3348  0.7137
  887TIP3    H124152   4.632   4.679   1.256 -1.2193  2.0291  0.5451
  887TIP3    H224153   4.722   4.614   1.360 -0.8227 -1.3661 -1.7664
  888TIP3   OH224154   4.178   4.400  17.030  0.8635  0.1065  0.2709
  888TIP3    H124155   4.156   4.471  17.091  1.3053  0.1416  0.3932
  888TIP3    H224156   4.097   4.352  17.019  0.8868 -0.1730  1.2546
  889TIP3   OH224157   5.568   4.976   5.174 -0.0223  0.9749 -0.5095
  889TIP3    H124158   5.592   4.883   5.173 -0.9149  0.7344 -0.3083
  889TIP3    H224159   5.512   4.987   5.097  0.3531  1.4249 -0.7238
  890TIP3   OH224160   2.955   2.185   5.055 -0.2543 -0.1524  0.7038
  890TIP3    H124161   2.870   2.150   5.083 -0.3193 -1.4807 -0.9582
  890TIP3    H224162   2.945   2.200   4.961  0.9198  1.0496  0.7425
  891TIP3   OH224163   2.547   6.760  13.465  0.1916  0.2127 -0.1595
  891TIP3    H124164   2.595   6.769  13.547  2.1629  0.4677 -1.2939
  891TIP3    H224165   2.457   6.741  13.492  0.5472  1.3926  2.0584
  892TIP3   OH224166   0.823   5.015   3.765 -0.6036 -0.4003  0.5628
  892TIP3    H124167   0.821   5.093   3.710  1.4437 -1.4086 -1.0752
  892TIP3    H224168   0.732   4.985   3.768 -1.0386  0.7040 -0.7556
  893TIP3   OH224169   2.792   1.526  15.108  0.0302 -0.2748 -0.3812
  893TIP3    H124170   2.761   1.462  15.172 -0.4136 -0.9620 -1.2668
  893TIP3    H224171   2.757   1.496  15.024  0.0256  0.9871 -0.8604
  894TIP3   OH224172   6.199   4.235   2.206  0.0773 -0.2819 -0.1198
  894TIP3    H124173   6.272   4.196   2.254  1.4751  2.7140  0.4014
  894TIP3    H224174   6.162   4.163   2.156  1.8485 -2.4282  1.4726
  895TIP3   OH224175   1.103   4.929  17.035 -0.3884  0.2033 -0.1123
  895TIP3    H124176   1.053   4.963  16.960 -1.1684  0.4789  0.5191
  895TIP3    H224177   1.054   4.959  17.111  1.3431  1.4287  0.5782
  896TIP3   OH224178   6.793   5.040   2.490  0.6182  0.2126 -0.1968
  896TIP3    H124179   6.714   4.986   2.488  0.5776  0.2243 -2.4886
  896TIP3    H224180   6.819   5.042   2.581 -2.7633  1.2825  0.8997
  897TIP3   OH224181   3.395   1.527   5.180 -0.1961 -0.4816  0.3361
  897TIP3    H124182   3.482   1.505   5.214 -0.4543 -0.3692  1.0960
  897TIP3    H224183   3.335   1.503   5.251 -0.8409 -1.0751 -0.3941
  898TIP3   OH224184   2.958   1.930  15.511  0.6811 -0.1239 -0.2546
  898TIP3    H124185   2.990   1.922  15.601 -0.2933  0.1799  0.1359
  898TIP3    H224186   2.908   1.849  15.496 -1.9303  1.1898  0.6765
  899TIP3   OH224187   2.724   0.907   4.819  0.0835 -0.2111 -0.2943
  899TIP3    H124188   2.701   0.907   4.911 -1.0017  0.9727 -0.5225
  899TIP3    H224189   2.790   0.976   4.810  0.4623 -0.5785 -0.3422
  900TIP3   OH224190   6.274   5.039   2.881  0.3714 -0.3504 -0.0117
  900TIP3    H124191   6.264   5.095   2.804  0.1072 -1.8436 -1.1183
  900TIP3    H224192   6.340   4.975   2.855  0.5425 -0.6567  1.1510
  901TIP3   OH224193   0.736   6.791  12.973 -0.5179 -0.5749 -0.1901
  901TIP3    H124194   0.712   6.825  12.886 -0.3274 -0.0118 -0.0314
  901TIP3    H224195   0.751   6.698  12.959  2.0628 -0.0855 -1.3428
  902TIP3   OH224196   4.555   2.191  15.119 -0.6342 -0.7085 -0.4580
  902TIP3    H124197   4.555   2.257  15.189 -1.7682 -1.2016  0.0312
  902TIP3    H224198   4.609   2.230  15.051  0.0372  0.0365  0.4590
  903TIP3   OH224199   6.383   2.955  14.387  0.2475  0.1911 -0.3160
  903TIP3    H124200   6.295   2.991  14.391  0.2060  0.0870 -0.3050
  903TIP3    H224201   6.435   3.013  14.443  0.5252  1.2238 -1.5834
  904TIP3   OH224202   6.407   4.449   4.342 -0.0438  0.2997  0.2717
  904TIP3    H124203   6.367   4.392   4.276 -0.6298  1.1823 -0.1661
  904TIP3    H224204   6.477   4.495   4.294  0.4441 -0.0633  0.6269
  905TIP3   OH224205   3.849   1.836   0.167 -0.5659  0.0667 -0.8074
  905TIP3    H124206   3.854   1.891   0.089  1.2152  1.2277  0.0600
  905TIP3    H224207   3.787   1.880   0.224  1.6219  1.9240  0.3254
  906TIP3   OH224208   2.288   3.442  15.103 -0.1391 -0.0190 -0.0883
  906TIP3    H124209   2.330   3.488  15.030 -0.9377 -2.5053 -2.2822
  906TIP3    H224210   2.194   3.457  15.090 -0.2475  0.9478  1.5356
  907TIP3   OH224211   2.535   2.956  13.158  0.0357  0.0772 -0.6945
  907TIP3    H124212   2.457   2.999  13.195 -0.7687 -1.5294 -0.4320
  907TIP3    H224213   2.563   2.896  13.226  2.4075  1.6020 -0.2220
  908TIP3   OH224214   3.720   3.602   5.675 -0.0338  0.4278 -0.0933
  908TIP3    H124215   3.754   3.528   5.624  1.7790  2.4271 -1.9997
  908TIP3    H224216   3.767   3.596   5.759  0.4436 -0.3069 -0.3978
  909TIP3   OH224217   0.109   6.611  15.642 -0.1427  0.2898 -0.0779
  909TIP3    H124218   0.032   6.567  15.606 -1.6323  1.2420  1.7343
  909TIP3    H224219   0.108   6.588  15.735  1.9214  0.1660 -0.0301
  910TIP3   OH224220   2.486   0.811   4.720 -0.4413  0.3223  0.7780
  910TIP3    H124221   2.541   0.866   4.776  0.0097  0.6605  0.0221
  910TIP3    H224222   2.548   0.769   4.660 -1.0534  1.5054 -0.7839
  911TIP3   OH224223   6.157   1.665   1.670  0.2786 -0.1610  0.0558
  911TIP3    H124224   6.221   1.603   1.705 -1.0856 -1.3229  0.5573
  911TIP3    H224225   6.085   1.611   1.639 -1.4024  1.1636  1.4278
  912TIP3   OH224226   1.395   1.045  16.503 -0.3913  0.3056  0.0146
  912TIP3    H124227   1.485   1.015  16.494 -0.0080  0.6912  2.1967
  912TIP3    H224228   1.362   1.049  16.413  1.4277 -0.8117 -0.7532
  913TIP3   OH224229   2.584   2.115   3.529 -0.7512  0.1573  0.0457
  913TIP3    H124230   2.671   2.106   3.493 -0.3748 -1.5990  1.2333
  913TIP3    H224231   2.534   2.043   3.490 -1.7536  1.2824 -0.8016
  914TIP3   OH224232   3.763   2.368  14.060 -0.1660 -0.6212  0.4610
  914TIP3    H124233   3.726   2.419  14.133 -0.5032 -0.0907 -0.0778
  914TIP3    H224234   3.856   2.362  14.081  0.3038  2.0739 -0.5182
  915TIP3   OH224235   1.518   6.656  11.947 -0.2396  0.1428 -0.2030
  915TIP3    H124236   1.446   6.717  11.931 -1.7280 -0.9378  1.9885
  915TIP3    H224237   1.558   6.687  12.028 -1.2455 -1.9407  1.1396
  916TIP3   OH224238   5.610   2.323  16.388  0.1435 -0.3682 -0.3965
  916TIP3    H124239   5.701   2.323  16.361  0.1194  2.3119 -0.7622
  916TIP3    H224240   5.612   2.358  16.478 -0.4255 -1.5313  0.0817
  917TIP3   OH224241   1.602   2.916   2.566  0.1988 -0.0109 -0.3339
  917TIP3    H124242   1.531   2.972   2.535  1.9458  2.4659 -0.0731
  917TIP3    H224243   1.571   2.884   2.651 -0.9186  0.3342 -0.5891
  918TIP3   OH224244   2.109   5.223  15.161  0.3821  0.0540  0.3947
  918TIP3    H124245   2.051   5.281  15.111  0.7609  1.0618  1.1015
  918TIP3    H224246   2.153   5.170  15.094 -2.9158 -2.3605 -0.1435
  919TIP3   OH224247   3.912   4.660   1.313  0.3752  0.0023 -0.1394
  919TIP3    H124248   3.884   4.569   1.304  0.8470 -0.0337 -1.4485
  919TIP3    H224249   3.971   4.659   1.388 -0.0942 -0.6405  0.2413
  920TIP3   OH224250   1.743   1.282  14.054  0.2536  0.0005  0.3320
  920TIP3    H124251   1.788   1.215  14.001 -0.0557 -0.2316  0.3616
  920TIP3    H224252   1.814   1.327  14.100  0.3955 -1.1165  1.2592
  921TIP3   OH224253   0.978   2.288   5.037  0.5386  0.3375 -0.0882
  921TIP3    H124254   0.956   2.381   5.026 -1.0445  0.1168  0.8621
  921TIP3    H224255   1.031   2.285   5.116  0.8285  0.4550 -0.2761
  922TIP3   OH224256   6.741   6.388  12.272 -0.0625  0.1390 -0.7185
  922TIP3    H124257   6.779   6.301  12.260  0.5464  0.0145  1.5363
  922TIP3    H224258   6.673   6.375  12.338  0.2297  1.3903 -0.1415
  923TIP3   OH224259   5.491   2.080   5.895 -0.1952  0.1637 -0.2915
  923TIP3    H124260   5.495   1.985   5.886  1.4148  0.3497 -2.5318
  923TIP3    H224261   5.531   2.098   5.980 -0.5627 -1.1407  0.1774
  924TIP3   OH224262   2.922   5.314  15.051 -0.2643  0.4139 -0.3669
  924TIP3    H124263   2.949   5.402  15.077 -0.7751  0.8400 -1.2422
  924TIP3    H224264   2.893   5.272  15.132  2.4214  0.1207  0.5612
  925TIP3   OH224265   1.858   2.668  17.156 -0.2603 -0.1613  0.1370
  925TIP3    H124266   1.818   2.602  17.098 -2.4111  1.9507 -0.9564
  925TIP3    H224267   1.943   2.686  17.115 -1.4874  0.8707 -2.1709
  926TIP3   OH224268   0.486   5.041  16.944 -0.0852  0.3361 -0.6336
  926TIP3    H124269   0.512   4.951  16.961  0.3018  0.5353 -0.1310
  926TIP3    H224270   0.442   5.069  17.025 -1.0165  0.3114 -1.1210
  927TIP3   OH224271   6.504   5.375   2.081 -0.5560 -0.2985 -1.3080
  927TIP3    H124272   6.507   5.363   1.986 -0.2163 -1.8055 -1.1370
  927TIP3    H224273   6.503   5.286   2.116 -1.0799  0.2313  0.0978
  928TIP3   OH224274   5.610   3.672   6.044 -0.0902 -0.0667 -0.0880
  928TIP3    H124275   5.699   3.639   6.030  0.0485 -0.0057  0.6053
  928TIP3    H224276   5.578   3.624   6.121  0.2287  1.5666  1.1270
  929TIP3   OH224277   0.837   6.796  12.276 -0.3777  0.7683 -0.0266
  929TIP3    H124278   0.850   6.722  12.217 -0.5845  0.8901 -0.2257
  929TIP3    H224279   0.802   6.865  12.221 -1.0550  0.7208  0.3249
  930TIP3   OH224280   3.860   4.019  16.220  0.4100  0.1872 -0.5815
  930TIP3    H124281   3.880   4.067  16.300  1.0025 -1.0799  0.0572
  930TIP3    H224282   3.779   4.060  16.187  0.4217  1.0335  0.3906
  931TIP3   OH224283   5.182   0.929   5.230  1.1105 -0.4148 -0.2755
  931TIP3    H124284   5.236   0.899   5.304  1.6041 -0.6432 -0.7181
  931TIP3    H224285   5.093   0.904   5.253  0.8789  1.6914  1.3754
  932TIP3   OH224286   3.184   4.158  12.038 -0.3807  0.7285 -0.1927
  932TIP3    H124287   3.248   4.128  11.973 -0.5832 -0.5151  0.1446
  932TIP3    H224288   3.101   4.157  11.991 -0.4077  0.6143 -0.1426
  933TIP3   OH224289   4.121   5.190  14.124  0.6929 -0.1497  0.5025
  933TIP3    H124290   4.130   5.250  14.050 -3.2413  1.9084  1.4014
  933TIP3    H224291   4.104   5.105  14.085  0.5363  0.5290 -0.9688
  934TIP3   OH224292   3.808   5.262  13.366  0.1469  0.2243  0.4680
  934TIP3    H124293   3.756   5.205  13.423 -0.2540  0.4628  0.3491
  934TIP3    H224294   3.899   5.244  13.390  0.0051 -0.1124  0.7641
  935TIP3   OH224295   4.717   5.009   5.587  0.1394  0.3304 -0.8242
  935TIP3    H124296   4.796   5.063   5.599  0.3324 -0.1823  0.3425
  935TIP3    H224297   4.678   5.004   5.674  0.4300 -1.8552 -0.7710
  936TIP3   OH224298   0.432   4.830  14.715  0.4240  0.3900 -0.3347
  936TIP3    H124299   0.479   4.758  14.757 -0.2176 -0.0283 -0.3358
  936TIP3    H224300   0.468   4.909  14.758 -1.2878 -0.0745  2.1781
  937TIP3   OH224301   5.230   4.437  16.035  0.0607 -0.0399 -0.1600
  937TIP3    H124302   5.236   4.358  16.089 -0.2683  0.4268  0.5820
  937TIP3    H224303   5.144   4.474  16.057  0.3226  0.6571 -0.2978
  938TIP3   OH224304   6.691   6.768  15.386 -0.3998 -0.2116 -0.6975
  938TIP3    H124305   6.778   6.789  15.420 -1.2032  0.2642  1.2405
  938TIP3    H224306   6.670   6.841  15.328  0.6699 -0.5720 -1.5518
  939TIP3   OH224307   6.600   0.497   1.328 -0.2724  0.0130  0.1414
  939TIP3    H124308   6.688   0.495   1.366 -0.3054  0.4264  0.2457
  939TIP3    H224309   6.544   0.461   1.396 -0.1841 -0.2594  0.0715
  940TIP3   OH224310   4.712   1.932  14.887 -0.5451  0.0400 -0.1336
  940TIP3    H124311   4.654   1.920  14.962 -0.3196 -0.0890  0.0172
  940TIP3    H224312   4.708   1.848  14.841 -0.0026 -0.1737  0.2056
  941TIP3   OH224313   4.903   3.939  16.960 -0.1569 -0.1952  0.3768
  941TIP3    H124314   4.881   3.849  16.983 -0.3351 -0.2051  0.1708
  941TIP3    H224315   4.848   3.993  17.017 -1.0806 -0.2184 -0.4663
  942TIP3   OH224316   0.387   5.437   4.361 -0.0472  0.1985  0.0393
  942TIP3    H124317   0.298   5.405   4.354  0.1743 -0.2283 -1.0584
  942TIP3    H224318   0.396   5.464   4.453 -1.2764  0.2152  0.1716
  943TIP3   OH224319   6.158   4.361  16.026 -0.1873 -0.3502 -0.2460
  943TIP3    H124320   6.132   4.299  15.957 -1.0470  0.4780 -0.6927
  943TIP3    H224321   6.139   4.447  15.990  0.4283  0.1590  0.5987
  944TIP3   OH224322   0.099   5.315  15.183  0.6596  0.3131 -0.0404
  944TIP3    H124323   0.069   5.228  15.156 -1.0465  1.3004 -1.5269
  944TIP3    H224324   0.195   5.308  15.185  0.7035 -0.9060 -2.7121
  945TIP3   OH224325   5.986   0.866  16.106  0.3265  0.5498 -0.5468
  945TIP3    H124326   6.057   0.806  16.131  0.6545  0.9570 -0.4806
  945TIP3    H224327   6.030   0.934  16.053  0.4660  2.1867  1.5292
  946TIP3   OH224328   4.522   1.606  16.208  0.1579 -0.3765  0.2581
  946TIP3    H124329   4.471   1.527  16.226  0.5091 -0.7175 -0.1951
  946TIP3    H224330   4.541   1.600  16.114  2.7874 -1.3484  0.7616
  947TIP3   OH224331   2.372   0.720  13.378 -0.0169  0.7902  0.5829
  947TIP3    H124332   2.419   0.803  13.377 -2.0085  1.9746  0.1509
  947TIP3    H224333   2.372   0.691  13.287 -1.2770  1.5164  0.3306
  948TIP3   OH224334   3.621   5.833   1.165  0.3649  0.4773  0.3437
  948TIP3    H124335   3.600   5.836   1.259  2.8106  1.5389  0.9298
  948TIP3    H224336   3.627   5.740   1.145  0.5384  0.2357  1.4370
  949TIP3   OH224337   3.070   5.555  13.846 -0.4689  0.5614  0.5486
  949TIP3    H124338   3.071   5.620  13.916  0.3690  0.8631  0.2619
  949TIP3    H224339   3.162   5.541  13.824 -0.5377 -1.5075  1.3110
  950TIP3   OH224340   3.785   0.874   0.035 -0.2824  0.3199  0.5415
  950TIP3    H124341   3.712   0.895  -0.024  0.2333  0.9521  0.1196
  950TIP3    H224342   3.801   0.781   0.021  1.1519  0.8509 -1.8368
  951TIP3   OH224343   0.725   3.394  12.696  0.0111  0.6211  0.0876
  951TIP3    H124344   0.705   3.400  12.603 -0.4862  0.8217  0.2030
  951TIP3    H224345   0.646   3.356  12.735  0.3833  0.1214  0.3697
  952TIP3   OH224346   1.206   4.578  13.413 -0.3490  0.0471 -0.3594
  952TIP3    H124347   1.301   4.576  13.407 -0.1440 -2.1356  1.9091
  952TIP3    H224348   1.176   4.537  13.332  0.8388 -1.9856  0.1449
  953TIP3   OH224349   1.407   4.189   4.889  0.9785  0.0501  0.2107
  953TIP3    H124350   1.367   4.275   4.881  1.1417 -0.0466 -2.5435
  953TIP3    H224351   1.335   4.130   4.911  0.0566  0.3196 -1.8585
  954TIP3   OH224352   5.951   0.102   1.836 -0.0937  0.1128 -0.1432
  954TIP3    H124353   5.922   0.019   1.872  0.7401  0.7250  2.1595
  954TIP3    H224354   5.879   0.163   1.854 -0.0713  0.2114 -0.3871
  955TIP3   OH224355   1.821   6.643   5.124  0.2151  0.5524 -0.5930
  955TIP3    H124356   1.729   6.647   5.097 -0.4301 -0.8186  1.2096
  955TIP3    H224357   1.857   6.570   5.074  0.8653  2.1050 -2.5656
  956TIP3   OH224358   4.056   1.081  12.279  0.1891 -0.1507  0.0428
  956TIP3    H124359   4.094   1.162  12.312  0.8735  0.1984 -1.5308
  956TIP3    H224360   3.983   1.064  12.338  2.5453 -0.7196  3.0281
  957TIP3   OH224361   1.072   2.855   0.218  0.0108 -0.1068  0.3867
  957TIP3    H124362   1.134   2.868   0.289 -1.0792  1.0558  1.1749
  957TIP3    H224363   1.090   2.766   0.186  2.8278  0.6050 -0.2231
  958TIP3   OH224364   2.980   5.446  15.680  0.2987 -0.6751  0.2278
  958TIP3    H124365   2.896   5.489  15.663 -0.6022 -2.0243  1.1046
  958TIP3    H224366   3.039   5.517  15.704 -0.4501  0.3528 -0.8840
  959TIP3   OH224367   6.132   0.608   5.249  0.6813 -0.3372 -0.6623
  959TIP3    H124368   6.122   0.521   5.285  0.2354  0.7009  1.9127
  959TIP3    H224369   6.193   0.652   5.308  1.2567  0.9839 -2.1584
  960TIP3   OH224370   0.507   1.049  15.341 -0.3453 -0.1186 -0.0517
  960TIP3    H124371   0.547   0.979  15.288 -0.1501 -0.0729  0.0333
  960TIP3    H224372   0.524   1.023  15.431 -2.2271 -1.1165  0.0613
  961TIP3   OH224373   2.891   6.193  14.510 -0.1146 -0.7764 -0.2761
  961TIP3    H124374   2.963   6.237  14.464 -0.4166 -0.7564 -0.7309
  961TIP3    H224375   2.880   6.110  14.463 -1.7703  0.1026 -1.5554
  962TIP3   OH224376   1.925   3.386  12.173 -0.4028  0.1626  0.3925
  962TIP3    H124377   1.967   3.399  12.258  0.9006  0.4732 -0.2616
  962TIP3    H224378   1.992   3.341  12.121 -1.9566 -2.0979  0.1804
  963TIP3   OH224379   2.558   5.015  17.411  0.1441 -1.0662  0.1759
  963TIP3    H124380   2.558   5.068  17.491 -2.1007  0.7554 -0.9048
  963TIP3    H224381   2.645   5.028  17.374  0.5491 -0.3425  1.3125
  964TIP3   OH224382   4.203   6.243   4.933 -0.3349 -0.4331  0.6016
  964TIP3    H124383   4.151   6.287   5.000 -0.5072  0.2883  0.0071
  964TIP3    H224384   4.276   6.204   4.981  1.6077  3.1021  0.8767
  965TIP3   OH224385   4.531   0.842  16.278  0.5159 -0.1531  0.4442
  965TIP3    H124386   4.552   0.897  16.354 -1.9838  0.7949  0.5371
  965TIP3    H224387   4.530   0.753  16.313  0.2610  0.1824  1.3212
  966TIP3   OH224388   0.093   3.329   3.415  0.5745 -0.1172 -0.4750
  966TIP3    H124389   0.013   3.307   3.366  0.5751 -1.1551 -0.0427
  966TIP3    H224390   0.063   3.339   3.505  0.3264  3.1878 -0.8082
  967TIP3   OH224391   1.911   4.929  11.610  0.4765  0.6470 -0.2862
  967TIP3    H124392   1.842   4.882  11.565 -1.9360  2.0153  1.7069
  967TIP3    H224393   1.931   5.004  11.553  1.2509 -0.3803 -1.4218
  968TIP3   OH224394   6.373   3.428   4.090  0.2433  0.5642 -0.0852
  968TIP3    H124395   6.353   3.487   4.017  1.4848 -0.6880 -1.4880
  968TIP3    H224396   6.345   3.342   4.060  0.1206  0.1237  1.2221
  969TIP3   OH224397   0.350   3.592  16.097 -0.1435  0.2437 -0.4734
  969TIP3    H124398   0.326   3.672  16.050 -1.6157  0.4152  0.4710
  969TIP3    H224399   0.432   3.564  16.057 -0.8325  0.8828 -2.4790
  970TIP3   OH224400   5.712   3.314   1.902 -0.4218 -0.7650  0.0964
  970TIP3    H124401   5.760   3.387   1.863  1.7155 -1.8880  0.4414
  970TIP3    H224402   5.701   3.338   1.994 -0.9654 -0.3036 -0.0827
  971TIP3   OH224403   3.506   4.211  14.123 -0.2922 -0.0216 -0.2292
  971TIP3    H124404   3.517   4.131  14.175 -0.0183  0.6173  0.6988
  971TIP3    H224405   3.440   4.187  14.058 -0.0234 -1.0875 -0.1361
  972TIP3   OH224406   2.664   6.224   4.494  0.1166  0.1513 -0.6415
  972TIP3    H124407   2.729   6.234   4.564 -0.4809  0.0866 -0.0610
  972TIP3    H224408   2.711   6.245   4.414  1.1464 -0.9705 -0.3638
  973TIP3   OH224409   6.114   6.125  13.154 -0.5167  0.8905 -0.0020
  973TIP3    H124410   6.155   6.211  13.166  0.8086  0.1014  1.4733
  973TIP3    H224411   6.187   6.065  13.142 -1.4241 -0.0652 -0.9540
  974TIP3   OH224412   6.266   0.708  13.570 -0.0557  0.1260 -0.0765
  974TIP3    H124413   6.291   0.616  13.569 -0.2126  0.0823 -0.0926
  974TIP3    H224414   6.227   0.723  13.483  1.3088  0.5837 -0.6422
  975TIP3   OH224415   0.041   0.243   3.983 -0.2522 -0.1426  0.0688
  975TIP3    H124416   0.039   0.224   3.889  0.8793  0.2748 -0.0552
  975TIP3    H224417   0.131   0.227   4.009 -0.5378 -0.1771  1.0800
  976TIP3   OH224418   0.946   5.618  14.251  0.1789 -0.2809 -0.4435
  976TIP3    H124419   0.996   5.537  14.259  1.2447  0.2953 -0.9780
  976TIP3    H224420   0.940   5.633  14.157 -1.1453 -0.3975 -0.4006
  977TIP3   OH224421   5.672   5.290  15.518  0.3525 -0.3000  0.0197
  977TIP3    H124422   5.665   5.286  15.614 -2.2424  0.2180 -0.0585
  977TIP3    H224423   5.689   5.199  15.491 -1.4583 -0.9498  0.8913
  978TIP3   OH224424   6.093   2.325   5.673 -0.3730  0.5611  0.1697
  978TIP3    H124425   6.169   2.372   5.706  0.3612 -0.6532  0.2403
  978TIP3    H224426   6.091   2.346   5.579  0.2158  0.3750  0.1132
  979TIP3   OH224427   6.182   4.191   0.087  0.3688  0.0872 -0.0117
  979TIP3    H124428   6.100   4.202   0.040  0.2487  1.0471  0.3926
  979TIP3    H224429   6.228   4.274   0.075 -0.1469  0.8108  2.4686
  980TIP3   OH224430   4.454   0.776   2.018 -0.0949 -0.2307 -0.5061
  980TIP3    H124431   4.457   0.766   2.113  1.8240 -0.3948 -0.5308
  980TIP3    H224432   4.451   0.687   1.984  1.0885 -0.2705 -0.5769
  981TIP3   OH224433   1.497   4.196   4.225  0.0729  0.6713  0.1520
  981TIP3    H124434   1.446   4.209   4.146 -0.7265  0.7743  0.6772
  981TIP3    H224435   1.433   4.197   4.296  0.6428 -0.5440  0.7086
  982TIP3   OH224436   0.592   5.768   3.473  0.5906 -0.1381  0.3108
  982TIP3    H124437   0.510   5.813   3.450  1.4684  1.1252 -0.4799
  982TIP3    H224438   0.633   5.825   3.538  0.3534 -1.3378  1.5714
  983TIP3   OH224439   1.906   6.168   0.869 -0.3229  0.3924 -0.2780
  983TIP3    H124440   1.830   6.212   0.906 -0.3555 -0.2508  0.4354
  983TIP3    H224441   1.939   6.229   0.803 -0.8947  1.0861  0.0644
  984TIP3   OH224442   0.027   6.293  16.133  0.2802  0.6076  0.2361
  984TIP3    H124443   0.094   6.361  16.149 -1.5508  2.3003  1.2255
  984TIP3    H224444  -0.055   6.334  16.162 -0.9519 -1.9888  0.6473
  985TIP3   OH224445   4.141   0.147  15.253 -0.2373  0.2888  0.3012
  985TIP3    H124446   4.077   0.081  15.229 -0.5009  0.4056  0.6772
  985TIP3    H224447   4.137   0.151  15.349  1.6767 -1.0614  0.4881
  986TIP3   OH224448   2.087   5.627  15.615  0.0501  0.0066  0.5425
  986TIP3    H124449   2.118   5.551  15.566 -0.8730 -0.9708  1.4299
  986TIP3    H224450   2.164   5.657  15.663  0.7446  0.4362 -0.7764
  987TIP3   OH224451   1.803   1.553  15.750 -0.0915  0.0966 -0.1443
  987TIP3    H124452   1.827   1.492  15.820 -0.9715  0.3340  0.3731
  987TIP3    H224453   1.708   1.545  15.743  0.0690 -0.6828 -2.0183
  988TIP3   OH224454   2.850   0.725   1.678  0.6808 -0.1427 -0.4639
  988TIP3    H124455   2.892   0.683   1.603  0.1613  0.5212 -1.1388
  988TIP3    H224456   2.869   0.818   1.667  1.9371 -0.1662  1.0866
  989TIP3   OH224457   6.369   4.484   0.169 -0.3605 -0.5362 -0.5409
  989TIP3    H124458   6.294   4.458   0.224  0.4013 -1.3654  0.1388
  989TIP3    H224459   6.405   4.561   0.213 -1.5375  0.6594 -1.5662
  990TIP3   OH224460   5.867   5.739  13.879 -0.0167 -0.0024  0.3751
  990TIP3    H124461   5.802   5.676  13.849  0.3183  0.6134 -1.7847
  990TIP3    H224462   5.822   5.788  13.948 -0.9651 -1.2445  0.6676
  991TIP3   OH224463   5.369   6.768   3.454 -0.3114  0.3526  0.3289
  991TIP3    H124464   5.462   6.762   3.432 -0.6487 -1.1265 -0.8299
  991TIP3    H224465   5.364   6.738   3.545  0.2646 -0.2197  0.1766
  992TIP3   OH224466   1.048   1.175   5.739 -0.3411 -0.1990  0.3321
  992TIP3    H124467   1.090   1.092   5.764  2.0465  1.1119  0.9880
  992TIP3    H224468   1.117   1.240   5.747 -1.9562  1.7844 -0.8704
  993TIP3   OH224469   4.867   2.223  16.493  0.9063 -0.2040 -0.5445
  993TIP3    H124470   4.889   2.279  16.568 -1.1224  0.4206 -0.3289
  993TIP3    H224471   4.909   2.265  16.419  0.8778  0.6159 -0.1100
  994TIP3   OH224472   3.722   5.506  14.261  0.4448  0.2942  0.5434
  994TIP3    H124473   3.733   5.591  14.219 -1.0182  0.0653 -0.3674
  994TIP3    H224474   3.789   5.450  14.222 -2.0036 -0.4399 -3.0311
  995TIP3   OH224475   1.485   1.015   5.704  0.1385 -0.0891 -0.2309
  995TIP3    H124476   1.465   1.089   5.761 -0.6317  0.9162 -1.7227
  995TIP3    H224477   1.555   1.048   5.647 -0.2317 -0.4913 -0.9314
  996TIP3   OH224478   1.181   2.594   2.519  0.0364  0.0086 -0.5831
  996TIP3    H124479   1.122   2.532   2.561  0.1712 -0.8243 -1.5970
  996TIP3    H224480   1.255   2.601   2.579 -1.0948  1.1538  0.7623
  997TIP3   OH224481   3.814   2.623   3.709  0.0497 -0.2080 -0.5233
  997TIP3    H124482   3.750   2.552   3.699  1.5297 -2.2572  2.7088
  997TIP3    H224483   3.899   2.579   3.705  1.1605  1.8590 -1.0945
  998TIP3   OH224484   3.608   5.037   3.939  0.0522 -0.0256  0.1871
  998TIP3    H124485   3.618   5.066   4.030  0.9687  2.3425 -0.5948
  998TIP3    H224486   3.552   5.103   3.899 -1.4775 -1.7682 -0.7059
  999TIP3   OH224487   6.261   2.666   0.971  0.7115  0.0063  0.2459
  999TIP3    H124488   6.328   2.598   0.961 -0.6291 -1.2938 -0.1066
  999TIP3    H224489   6.181   2.627   0.938 -0.1201  1.7585  0.0664
 1000TIP3   OH224490   3.778   3.343  12.936 -0.0499  0.6774 -0.6257
 1000TIP3    H124491   3.828   3.390  13.003 -1.8551  0.2498  1.1299
 1000TIP3    H224492   3.699   3.396  12.923 -1.3208 -0.9313  0.1471
 1001TIP3   OH224493   1.617   0.136   0.387  0.2890 -0.4562 -0.2094
 1001TIP3    H124494   1.572   0.198   0.329 -0.0990 -0.3718  0.1813
 1001TIP3    H224495   1.705   0.172   0.396  0.7409 -1.1181 -1.7295
 1002TIP3   OH224496   4.495   2.483  12.254 -0.1957 -0.3793 -0.2662
 1002TIP3    H124497   4.443   2.554  12.291 -0.3063 -0.0625 -1.0115
 1002TIP3    H224498   4.455   2.466  12.169  0.9683 -0.0841 -0.8814
 1003TIP3   OH224499   3.798   2.461   0.571 -0.0942  0.0663  0.1327
 1003TIP3    H124500   3.748   2.457   0.490  1.3343 -0.6343 -0.7564
 1003TIP3    H224501   3.770   2.384   0.620  2.5589 -2.4635 -1.9366
 1004TIP3   OH224502   5.147   6.578   0.259  0.2143 -0.3225  0.3422
 1004TIP3    H124503   5.054   6.570   0.236 -0.1187  1.2924  0.9780
 1004TIP3    H224504   5.170   6.668   0.234  1.3037 -0.3418  1.2066
 1005TIP3   OH224505   5.237   0.396   0.881 -0.2729 -0.0319 -0.5618
 1005TIP3    H124506   5.300   0.386   0.952 -0.0014 -1.6564 -1.0143
 1005TIP3    H224507   5.284   0.447   0.814 -0.5918  1.6723  0.4463
 1006TIP3   OH224508   1.296   3.160   4.630  0.0098 -0.3869  0.1906
 1006TIP3    H124509   1.370   3.220   4.639  0.3355 -0.2152 -2.7990
 1006TIP3    H224510   1.336   3.074   4.619 -0.2563 -0.4359 -0.4203
 1007TIP3   OH224511   2.179   2.528   5.344  0.1771 -0.0008 -0.7015
 1007TIP3    H124512   2.108   2.554   5.402 -0.2048  0.4979 -1.3682
 1007TIP3    H224513   2.254   2.580   5.372 -0.2514  0.9286 -1.2303
 1008TIP3   OH224514   5.979   1.417   3.742  0.0784  0.2945  0.5724
 1008TIP3    H124515   6.043   1.412   3.813  0.2169  1.1856  0.5335
 1008TIP3    H224516   6.005   1.496   3.693  0.2546 -0.5496 -0.7376
 1009TIP3   OH224517   5.666   5.673  17.297  0.1001  0.8831 -0.0415
 1009TIP3    H124518   5.600   5.608  17.274  1.9915 -0.8463 -0.9209
 1009TIP3    H224519   5.646   5.749  17.242 -0.5878  0.0414 -0.9792
 1010TIP3   OH224520   2.282   3.504   5.148  0.7081 -0.3446 -0.1956
 1010TIP3    H124521   2.253   3.430   5.094  0.2229  0.2376 -0.7419
 1010TIP3    H224522   2.359   3.470   5.195  0.6367 -1.1198 -0.6166
 1011TIP3   OH224523   1.677   6.447   4.829  0.1030 -0.1987 -0.2352
 1011TIP3    H124524   1.623   6.446   4.750 -0.1542  2.0584 -0.1457
 1011TIP3    H224525   1.740   6.518   4.814  1.9935 -1.6530  0.3857
 1012TIP3   OH224526   0.910   4.067  15.239  0.4246  0.0930  0.2224
 1012TIP3    H124527   0.957   4.073  15.156  0.5175  1.5036  0.3571
 1012TIP3    H224528   0.900   4.157  15.268 -0.0294 -0.3480  1.5218
 1013TIP3   OH224529   6.262   3.250   5.878 -0.5073  0.0548 -0.0837
 1013TIP3    H124530   6.276   3.344   5.883 -0.6555  0.0080  1.9480
 1013TIP3    H224531   6.170   3.237   5.902 -0.3370 -0.6372  0.2406
 1014TIP3   OH224532   6.472   0.418   1.823 -0.4400  0.3647 -0.4567
 1014TIP3    H124533   6.431   0.499   1.853  0.6078  1.0661 -0.8497
 1014TIP3    H224534   6.563   0.443   1.806  0.2513 -1.1972  0.6962
 1015TIP3   OH224535   2.549   5.431  13.469 -0.0133 -0.4903  0.2346
 1015TIP3    H124536   2.512   5.417  13.556 -1.3053 -1.8480 -0.4846
 1015TIP3    H224537   2.494   5.379  13.411 -0.1601  1.6032 -1.6453
 1016TIP3   OH224538   6.353   4.027  17.056 -0.0052 -0.2570 -0.5343
 1016TIP3    H124539   6.277   3.993  17.009  0.0211 -0.4268 -0.4550
 1016TIP3    H224540   6.415   3.954  17.058  0.0379 -0.2162 -0.3349
 1017TIP3   OH224541   5.773   0.160  16.467  0.0394  0.3997 -0.5433
 1017TIP3    H124542   5.828   0.202  16.533  2.2583 -0.3458 -1.7843
 1017TIP3    H224543   5.735   0.232  16.418  0.8589  0.9693 -0.3663
 1018TIP3   OH224544   3.938   1.944  11.493  0.1850 -0.1954 -0.5230
 1018TIP3    H124545   3.946   1.979  11.404 -0.0043 -1.1325 -0.9221
 1018TIP3    H224546   3.875   1.872  11.484 -0.9339  0.6192  0.6412
 1019TIP3   OH224547   6.494   0.913  11.023  0.2972  0.1486  0.8474
 1019TIP3    H124548   6.583   0.947  11.035  0.5452 -0.3641  0.5354
 1019TIP3    H224549   6.507   0.832  10.973 -0.2953 -0.2498  1.3333
 1020TIP3   OH224550   1.616   0.805  16.699 -0.5437 -0.4486 -0.0105
 1020TIP3    H124551   1.657   0.891  16.693 -1.3055 -0.1566 -3.8402
 1020TIP3    H224552   1.539   0.819  16.753 -0.6985  1.3301 -0.6181
 1021TIP3   OH224553   1.228   4.886  15.219 -0.1397 -0.4054  0.5543
 1021TIP3    H124554   1.217   4.930  15.134  0.0007  0.4909  0.9893
 1021TIP3    H224555   1.299   4.824  15.204  0.8378  0.7255  0.3741
 1022TIP3   OH224556   1.038   1.457  13.475 -0.5057  0.3660  0.3383
 1022TIP3    H124557   1.066   1.375  13.433 -1.6294  0.3063 -0.3460
 1022TIP3    H224558   1.116   1.489  13.521  1.1251  0.8916 -2.5263
 1023TIP3   OH224559   6.618   6.129  12.463  0.3546  0.2999 -0.3115
 1023TIP3    H124560   6.627   6.186  12.539 -1.0162  1.9208 -1.2930
 1023TIP3    H224561   6.557   6.175  12.405 -0.1103 -1.7555 -1.5697
 1024TIP3   OH224562   0.920   0.612  13.603 -0.7657  0.2948 -0.0289
 1024TIP3    H124563   0.838   0.661  13.605 -0.4183  1.0546 -2.1164
 1024TIP3    H224564   0.943   0.606  13.511  0.6805 -1.3855  0.3742
 1025TIP3   OH224565   2.606   0.803   2.032 -0.2603  0.4946 -0.2272
 1025TIP3    H124566   2.666   0.869   2.066 -0.1835  1.1465 -1.5943
 1025TIP3    H224567   2.659   0.724   2.023 -0.1775  0.4301  0.7289
 1026TIP3   OH224568   5.830   0.907  12.031 -0.2949  0.4143 -0.0019
 1026TIP3    H124569   5.920   0.882  12.009 -0.4308  0.7036 -0.9024
 1026TIP3    H224570   5.838   0.994  12.070 -0.2886  0.9266 -1.1194
 1027TIP3   OH224571   0.610   5.085   1.235  0.7427  0.0568 -0.4768
 1027TIP3    H124572   0.545   5.025   1.271 -0.2392  0.1612 -1.9926
 1027TIP3    H224573   0.694   5.039   1.244  0.0731 -1.3475 -1.1550
 1028TIP3   OH224574   2.296   2.434  15.811 -0.3147 -0.9386  0.2087
 1028TIP3    H124575   2.330   2.507  15.759  1.2079 -1.4629  0.4090
 1028TIP3    H224576   2.316   2.357  15.759  0.7799 -1.4317  1.3128
 1029TIP3   OH224577   2.491   2.566   0.426 -0.0172 -0.1616 -0.2603
 1029TIP3    H124578   2.482   2.516   0.507 -1.5560 -0.9096 -0.8659
 1029TIP3    H224579   2.565   2.625   0.443 -0.6692  0.1310  1.9175
 1030TIP3   OH224580   4.602   5.952   3.352  0.1064 -0.1425 -0.2548
 1030TIP3    H124581   4.589   6.039   3.389  1.7101  0.0542 -0.0869
 1030TIP3    H224582   4.539   5.948   3.280 -0.4830  0.8779  0.1754
 1031TIP3   OH224583   1.641   4.526  15.367 -0.2108  0.1437 -0.1064
 1031TIP3    H124584   1.734   4.534  15.345 -0.1348 -0.7518 -0.1477
 1031TIP3    H224585   1.635   4.443  15.415 -0.8853  0.5220  0.4844
 1032TIP3   OH224586   5.077   1.537  16.868  0.4514 -0.4053 -0.0519
 1032TIP3    H124587   5.160   1.490  16.880  1.5229  0.8619 -1.8987
 1032TIP3    H224588   5.011   1.468  16.858  1.6450 -1.4895 -0.7275
 1033TIP3   OH224589   2.965   3.011  16.623  0.2199  0.4406  0.7626
 1033TIP3    H124590   2.919   2.932  16.651 -0.2222  0.4741  0.1507
 1033TIP3    H224591   3.035   3.022  16.687  1.3205 -1.3895 -0.0555
 1034TIP3   OH224592   0.589   3.740   4.288  1.0920 -0.3825 -0.0756
 1034TIP3    H124593   0.502   3.740   4.248  0.6628  4.2380  0.3275
 1034TIP3    H224594   0.649   3.727   4.214  0.1664 -1.4849 -0.6715
 1035TIP3   OH224595   5.432   6.245   1.250 -0.2968  0.1825 -0.1653
 1035TIP3    H124596   5.367   6.292   1.199 -1.4313 -1.0122  0.1321
 1035TIP3    H224597   5.385   6.212   1.326  1.3363  1.8582  1.6999
 1036TIP3   OH224598   5.858   4.654   3.827  0.3287 -0.2035  0.6025
 1036TIP3    H124599   5.865   4.572   3.777 -1.3021 -0.6281  0.9903
 1036TIP3    H224600   5.872   4.723   3.762 -0.5898 -0.7667 -0.2219
 1037TIP3   OH224601   1.540   5.134  15.845  0.4036  0.1114 -0.0805
 1037TIP3    H124602   1.475   5.177  15.902  1.4315  0.6248  0.7292
 1037TIP3    H224603   1.498   5.052  15.820 -0.6469  0.5230  0.2647
 1038TIP3   OH224604   0.450   0.333   0.792 -0.5638  0.2868  0.4263
 1038TIP3    H124605   0.439   0.239   0.805 -1.7790  0.3791  0.1812
 1038TIP3    H224606   0.364   0.364   0.764 -0.7215  1.7734  2.3127
 1039TIP3   OH224607   0.566   2.745   4.785 -0.0243 -0.2766  0.2302
 1039TIP3    H124608   0.490   2.691   4.805  0.0128 -1.0591 -1.5792
 1039TIP3    H224609   0.609   2.758   4.870 -1.2828 -1.1547  1.0324
 1040TIP3   OH224610   0.863   5.216   0.557 -0.1529 -0.4425  0.5118
 1040TIP3    H124611   0.958   5.214   0.541  0.3007 -1.4105  2.9072
 1040TIP3    H224612   0.853   5.266   0.638 -1.8021  0.2737 -0.0851
 1041TIP3   OH224613   2.851   0.283   4.896 -0.2472 -0.7872 -0.1521
 1041TIP3    H124614   2.834   0.218   4.964  0.2783  0.2274  0.9861
 1041TIP3    H224615   2.788   0.353   4.914  0.4777 -0.1205 -0.1590
 1042TIP3   OH224616   2.702   2.208   1.595  0.4421 -0.8095 -0.0228
 1042TIP3    H124617   2.640   2.273   1.561 -0.5623 -1.1202  1.1536
 1042TIP3    H224618   2.659   2.173   1.673  1.3559 -2.2762 -0.1551
 1043TIP3   OH224619   5.223   3.604  14.874  0.4161  0.2233  0.9684
 1043TIP3    H124620   5.247   3.522  14.830 -0.4700 -0.3588  1.5389
 1043TIP3    H224621   5.211   3.667  14.803  0.1509 -0.4029  0.4505
 1044TIP3   OH224622   6.582   4.082   6.864  0.0479  0.0252 -0.2075
 1044TIP3    H124623   6.528   4.022   6.916 -0.3067 -0.8508 -1.5377
 1044TIP3    H224624   6.544   4.079   6.776  0.4065  1.7540 -0.4553
 1045TIP3   OH224625   1.265   4.934   6.396 -0.6400 -0.1004 -0.1539
 1045TIP3    H124626   1.323   5.004   6.367  0.0291  0.1796  1.7464
 1045TIP3    H224627   1.262   4.942   6.491 -2.0219 -1.5182 -0.0225
 1046TIP3   OH224628   4.497   1.023   5.823  0.2271  0.3931  0.3518
 1046TIP3    H124629   4.591   1.006   5.833  0.6508 -0.0413 -3.0815
 1046TIP3    H224630   4.460   0.937   5.802 -0.6230  0.8588 -0.0891
 1047TIP3   OH224631   0.417   0.080  15.860  0.0231  0.5839  0.0079
 1047TIP3    H124632   0.408   0.047  15.771 -2.9687 -0.6968  0.6792
 1047TIP3    H224633   0.370   0.164  15.859  0.2852  0.7347  0.2887
 1048TIP3   OH224634   5.234   1.985  12.618 -0.2118 -0.2077 -0.3666
 1048TIP3    H124635   5.267   1.934  12.544  0.8275  0.0571 -0.1102
 1048TIP3    H224636   5.168   1.930  12.659 -1.4381  0.0017 -2.0031
 1049TIP3   OH224637   0.305   0.295  14.915  0.2719 -0.6743 -0.4491
 1049TIP3    H124638   0.330   0.372  14.966  0.4183  0.4359 -2.1141
 1049TIP3    H224639   0.300   0.224  14.980 -3.0589  1.2940  1.7360
 1050TIP3   OH224640   5.196   3.409  13.021 -0.7083 -0.3704 -0.1698
 1050TIP3    H124641   5.137   3.458  12.964 -2.0861  1.2970  2.4848
 1050TIP3    H224642   5.264   3.472  13.046  0.3321 -1.3011 -0.5659
 1051TIP3   OH224643   5.281   4.777  16.525 -0.0223 -0.0544  0.2174
 1051TIP3    H124644   5.188   4.785  16.507 -0.5683 -1.3348  2.1294
 1051TIP3    H224645   5.291   4.812  16.614  0.9547 -1.7173  0.7980
 1052TIP3   OH224646   5.223   1.806  14.316 -0.4787 -0.7773  0.2812
 1052TIP3    H124647   5.166   1.856  14.374  0.4792 -0.0361  0.6134
 1052TIP3    H224648   5.164   1.753  14.264 -1.4430 -0.3400  0.9071
 1053TIP3   OH224649   2.794   6.784   5.401  0.4019 -0.2012  0.3588
 1053TIP3    H124650   2.832   6.703   5.435  3.0865  0.8176  0.0834
 1053TIP3    H224651   2.706   6.760   5.374  1.2479 -3.1469 -0.1557
 1054TIP3   OH224652   1.763   1.149   0.691 -0.2720  0.7306 -0.2700
 1054TIP3    H124653   1.775   1.244   0.692 -1.6203  0.9163 -0.2305
 1054TIP3    H224654   1.791   1.121   0.778 -0.5650  1.1859 -0.0248
 1055TIP3   OH224655   5.407   4.654  13.557  0.2306 -0.2499  0.4514
 1055TIP3    H124656   5.492   4.610  13.562 -0.0120 -0.7207  0.4431
 1055TIP3    H224657   5.348   4.589  13.518 -0.4167 -0.3451  1.5630
 1056TIP3   OH224658   6.213   3.207  13.308  0.7404  0.0841 -0.9223
 1056TIP3    H124659   6.250   3.206  13.396  1.8113  0.9383 -1.3362
 1056TIP3    H224660   6.231   3.119  13.274 -1.2575 -0.8587  0.2987
 1057TIP3   OH224661   4.337   3.747  15.763  0.1902 -0.0029 -0.0229
 1057TIP3    H124662   4.260   3.745  15.818  0.6443 -2.0719  0.6451
 1057TIP3    H224663   4.339   3.835  15.726 -0.9541  0.9602  2.0733
 1058TIP3   OH224664   6.009   0.619   4.509  0.3837  0.2915 -0.7650
 1058TIP3    H124665   5.941   0.576   4.562  0.0452  2.6417  0.8499
 1058TIP3    H224666   6.077   0.642   4.572  1.6622 -0.0169 -2.0042
 1059TIP3   OH224667   4.094   6.240  12.757 -0.2879 -0.3171 -0.1533
 1059TIP3    H124668   4.110   6.182  12.831 -0.7087 -0.6098 -0.2858
 1059TIP3    H224669   4.110   6.185  12.680 -0.9625 -0.3432 -0.2834
 1060TIP3   OH224670   4.311   2.947   4.091 -0.1455  0.2656  1.4041
 1060TIP3    H124671   4.275   3.019   4.143 -0.8731 -1.0712  2.8403
 1060TIP3    H224672   4.364   2.896   4.152  1.1466  0.0965  0.1901
 1061TIP3   OH224673   2.132   1.034   4.628 -0.1580  0.0325 -0.1752
 1061TIP3    H124674   2.210   1.082   4.653 -0.4504  0.8525 -0.8081
 1061TIP3    H224675   2.153   0.942   4.647  0.1272  0.4670  1.7735
 1062TIP3   OH224676   5.249   0.311  16.796  0.8872 -0.2775  0.4020
 1062TIP3    H124677   5.301   0.231  16.787  1.5660  0.3349 -1.8800
 1062TIP3    H224678   5.281   0.368  16.725  0.2773  1.9354  1.8068
 1063TIP3   OH224679   5.849   4.227   2.696 -0.0633  0.1239 -0.2710
 1063TIP3    H124680   5.852   4.133   2.714 -0.0412  0.3397  0.9870
 1063TIP3    H224681   5.919   4.242   2.633 -0.4854 -0.7956 -0.9802
 1064TIP3   OH224682   1.422   2.124   4.595 -0.4735 -0.1244  0.3057
 1064TIP3    H124683   1.376   2.138   4.512 -0.6555 -0.8303  0.2854
 1064TIP3    H224684   1.476   2.203   4.606  0.3870 -0.4988 -1.0160
 1065TIP3   OH224685   5.340   4.040   4.505  0.8620  0.0512 -0.0810
 1065TIP3    H124686   5.271   4.081   4.557  0.6715  1.0641 -1.0934
 1065TIP3    H224687   5.322   4.066   4.415  0.8939 -2.0842 -0.7676
 1066TIP3   OH224688   0.763   5.159  14.812 -0.5060 -0.9139  0.5713
 1066TIP3    H124689   0.852   5.185  14.836 -0.1502 -1.4534 -0.1025
 1066TIP3    H224690   0.720   5.240  14.785  0.4572 -0.9362 -1.1346
 1067TIP3   OH224691   4.651   1.733  14.274 -0.0035 -0.3609  0.0891
 1067TIP3    H124692   4.660   1.762  14.365  0.2856 -0.1681 -0.0004
 1067TIP3    H224693   4.573   1.778  14.242  1.1233  1.3386 -0.4276
 1068TIP3   OH224694   1.891   5.313   0.508  0.1920  0.0427 -0.8595
 1068TIP3    H124695   1.933   5.306   0.422  2.0307 -1.0975  0.0677
 1068TIP3    H224696   1.886   5.223   0.540  0.1373  0.4971  0.4808
 1069TIP3   OH224697   4.990   0.473   0.061 -0.1728  0.5101 -0.1092
 1069TIP3    H124698   4.927   0.404   0.083  0.3916  0.0030 -0.0529
 1069TIP3    H224699   4.971   0.494  -0.031 -0.8642  0.8384  0.1060
 1070TIP3   OH224700   2.298   1.567  16.371  0.2418 -0.4565  0.1847
 1070TIP3    H124701   2.302   1.495  16.309 -1.9052 -0.1419 -0.4062
 1070TIP3    H224702   2.357   1.634  16.335 -0.4176 -0.5645 -1.1376
 1071TIP3   OH224703   2.890   6.545  13.162 -0.2467  0.1712 -0.0057
 1071TIP3    H124704   2.888   6.632  13.202 -1.9254 -0.0077  0.3778
 1071TIP3    H224705   2.819   6.497  13.204 -0.3554 -0.8925 -1.3159
 1072TIP3   OH224706   0.310   3.559   4.877 -0.1164 -0.3305  0.1727
 1072TIP3    H124707   0.353   3.478   4.905 -0.4918 -0.4815  0.3041
 1072TIP3    H224708   0.299   3.549   4.782  2.2347  0.6733 -0.2820
 1073TIP3   OH224709   0.668   2.256  12.557  0.1343  0.6546 -0.7500
 1073TIP3    H124710   0.611   2.322  12.595  0.5905 -0.1182  1.4627
 1073TIP3    H224711   0.752   2.301  12.543 -0.0896  0.9893 -1.0308
 1074TIP3   OH224712   4.965   2.243  12.797  0.0097 -0.2551 -0.9326
 1074TIP3    H124713   4.890   2.293  12.827 -1.3091 -1.5884 -1.8462
 1074TIP3    H224714   4.927   2.165  12.756  1.8529 -0.5501 -2.2150
 1075TIP3   OH224715   4.028   6.262   2.162  0.7128 -0.4284  0.7618
 1075TIP3    H124716   3.970   6.337   2.154  0.0665 -0.9831  0.0665
 1075TIP3    H224717   4.016   6.231   2.252  0.1681 -0.3547  0.7135
 1076TIP3   OH224718   1.296   4.640  14.444  0.0403  0.7950 -0.0230
 1076TIP3    H124719   1.245   4.670  14.520 -0.3482 -0.5744  0.2853
 1076TIP3    H224720   1.381   4.616  14.480 -0.7681 -1.7753  0.4220
 1077TIP3   OH224721   0.919   2.887  11.703 -0.3871  0.3761  0.5308
 1077TIP3    H124722   0.984   2.904  11.635 -0.2206 -0.7552  0.3831
 1077TIP3    H224723   0.938   2.798  11.733 -2.1697 -0.1990  0.1256
 1078TIP3   OH224724   1.846   4.735   4.945  0.2318 -0.2437  0.0007
 1078TIP3    H124725   1.933   4.709   4.976 -0.2850 -1.1605  0.7608
 1078TIP3    H224726   1.858   4.823   4.910  1.6236 -0.6555 -0.6460
 1079TIP3   OH224727   2.366   4.687   0.301 -0.2932 -0.0222  0.0723
 1079TIP3    H124728   2.287   4.705   0.352 -0.7390 -1.5870 -0.0140
 1079TIP3    H224729   2.340   4.617   0.240  1.5065 -1.5725  0.9706
 1080TIP3   OH224730   0.854   4.119   1.386  0.7297 -0.2503  0.1303
 1080TIP3    H124731   0.863   4.152   1.297 -1.1226  1.4388  0.4957
 1080TIP3    H224732   0.785   4.053   1.381  0.1331  0.3400  0.3988
 1081TIP3   OH224733   5.952   6.163  16.373  0.6294 -0.6065 -0.0525
 1081TIP3    H124734   5.945   6.201  16.285  0.7441  2.1770  1.0149
 1081TIP3    H224735   6.013   6.221  16.419  1.5179 -2.6800  1.5601
 1082TIP3   OH224736   6.404   5.493  16.391  0.0460  0.1857  0.0235
 1082TIP3    H124737   6.401   5.429  16.463  0.6797 -0.1923 -0.2817
 1082TIP3    H224738   6.352   5.567  16.423  1.8887  0.8448  1.6599
 1083TIP3   OH224739   3.221   3.034  13.819 -0.7149 -0.0752  0.0551
 1083TIP3    H124740   3.210   2.982  13.899 -1.1342  1.6687  1.1944
 1083TIP3    H224741   3.288   3.098  13.841 -0.4669  0.1118 -1.1854
 1084TIP3   OH224742   4.708   4.404  15.760  0.4302  0.5163  0.1878
 1084TIP3    H124743   4.727   4.345  15.832 -0.7012  0.7978  0.7530
 1084TIP3    H224744   4.786   4.459  15.752  1.8097 -1.4643 -0.8317
 1085TIP3   OH224745   3.485   5.968  11.089 -0.5991  0.6548  0.1302
 1085TIP3    H124746   3.435   5.886  11.092 -0.9502  0.8372 -0.5425
 1085TIP3    H224747   3.428   6.029  11.044 -0.4409  1.3548  0.8588
 1086TIP3   OH224748   5.140   5.244   0.443  0.3140 -0.1789  0.3555
 1086TIP3    H124749   5.059   5.236   0.392 -0.1547  0.5894  0.9639
 1086TIP3    H224750   5.154   5.157   0.479 -0.4794 -0.2224  0.5855
 1087TIP3   OH224751   3.138   5.541   1.168  0.9099  0.2323 -0.1859
 1087TIP3    H124752   3.168   5.626   1.201  0.3059  0.1166  0.7112
 1087TIP3    H224753   3.195   5.477   1.212  0.0251  0.0691  0.7503
 1088TIP3   OH224754   3.632   6.198  14.959 -0.3053 -0.1147  0.0410
 1088TIP3    H124755   3.682   6.252  15.020 -1.5178 -0.4986  1.4040
 1088TIP3    H224756   3.683   6.117  14.952 -0.6621 -0.4744  1.3601
 1089TIP3   OH224757   3.857   4.481  14.820  0.8322  0.7498  0.1684
 1089TIP3    H124758   3.811   4.550  14.868  1.7310  1.0885  0.5793
 1089TIP3    H224759   3.883   4.418  14.888 -0.2256 -0.1518 -0.2406
 1090TIP3   OH224760   2.985   4.454  12.377  0.6255  0.2237  0.1818
 1090TIP3    H124761   3.048   4.411  12.434  1.5180  1.4213  0.1425
 1090TIP3    H224762   2.900   4.423  12.407  1.2240 -1.9852 -0.2240
 1091TIP3   OH224763   2.776   6.483   0.536  0.5349 -0.4105  0.7274
 1091TIP3    H124764   2.871   6.478   0.528  0.6469  1.5338  0.4194
 1091TIP3    H224765   2.761   6.549   0.604 -0.5911 -0.6080  0.6914
 1092TIP3   OH224766   2.246   2.120   2.380 -0.6198  0.1194 -0.2366
 1092TIP3    H124767   2.239   2.070   2.299  0.7448 -0.1275 -0.2331
 1092TIP3    H224768   2.313   2.185   2.362  0.3322 -0.4885  0.9407
 1093TIP3   OH224769   4.514   2.623  15.550 -0.1631  0.9709  0.0427
 1093TIP3    H124770   4.541   2.646  15.639 -0.2426  1.2185  0.0016
 1093TIP3    H224771   4.455   2.548  15.563  0.1758  0.7208  0.1638
 1094TIP3   OH224772   3.265   4.053  17.180 -0.0195 -0.5519  0.3592
 1094TIP3    H124773   3.287   3.960  17.191  0.5069 -0.5103 -0.3111
 1094TIP3    H224774   3.278   4.090  17.267  0.9989 -0.8600  0.3556
 1095TIP3   OH224775   2.072   2.572   6.111 -0.1371  0.4853  0.0931
 1095TIP3    H124776   1.981   2.573   6.081 -0.4514 -1.6697  0.8627
 1095TIP3    H224777   2.095   2.665   6.118 -2.5962  1.1075  0.8625
 1096TIP3   OH224778   4.529   2.037  13.653 -0.1814 -0.5192 -0.1225
 1096TIP3    H124779   4.559   2.120  13.617 -0.1325 -0.4853 -0.0024
 1096TIP3    H224780   4.567   1.971  13.595 -0.7967 -0.4343 -0.6434
 1097TIP3   OH224781   0.588   4.067   6.497 -0.1878 -0.0534  0.2067
 1097TIP3    H124782   0.660   4.131   6.503  0.5927 -0.9006  0.1367
 1097TIP3    H224783   0.563   4.052   6.588  0.3523 -0.4358  0.2991
 1098TIP3   OH224784   4.691   6.738   2.401 -0.1898 -0.3122 -0.1079
 1098TIP3    H124785   4.633   6.811   2.377 -1.0202 -1.2128 -0.9490
 1098TIP3    H224786   4.670   6.670   2.338 -0.4411 -1.7946  1.5104
 1099TIP3   OH224787   1.125   3.889  13.546  0.0555  0.1684 -0.9885
 1099TIP3    H124788   1.068   3.916  13.474  0.1687  0.0290 -1.1305
 1099TIP3    H224789   1.209   3.869  13.505 -0.3796 -1.6467 -1.0800
 1100TIP3   OH224790   1.627   0.332  17.340  0.3585  0.4711  0.6096
 1100TIP3    H124791   1.689   0.402  17.360  0.5052  0.2942  0.7908
 1100TIP3    H224792   1.583   0.315  17.424 -0.1532  0.8071  0.4068
 1101TIP3   OH224793   1.245   2.549   4.972 -0.0342  0.3669 -0.0588
 1101TIP3    H124794   1.318   2.537   5.033  1.3257 -1.9892 -1.9839
 1101TIP3    H224795   1.265   2.630   4.925  1.2478 -0.1393 -0.4074
 1102TIP3   OH224796   2.148   2.255  16.597 -0.2757  0.8008 -0.1736
 1102TIP3    H124797   2.129   2.338  16.553 -1.3585 -0.0162 -1.3257
 1102TIP3    H224798   2.062   2.213  16.606  0.3186 -0.4630 -0.1971
 1103TIP3   OH224799   0.906   3.503  16.237 -0.2453  0.3428 -0.0387
 1103TIP3    H124800   0.936   3.518  16.327  1.4900 -1.5888 -0.2264
 1103TIP3    H224801   0.979   3.533  16.183 -0.3597 -0.5259 -0.6984
 1104TIP3   OH224802   6.194   3.105  12.874 -0.2126 -0.1889  0.3720
 1104TIP3    H124803   6.268   3.114  12.934  0.9367 -2.4546 -0.6052
 1104TIP3    H224804   6.210   3.170  12.806  0.4611 -0.1315  0.5781
 1105TIP3   OH224805   1.478   4.439  14.624  0.3619  0.2452 -0.0049
 1105TIP3    H124806   1.417   4.366  14.634  0.3134  0.0314 -1.5469
 1105TIP3    H224807   1.527   4.418  14.544  0.9348  1.4937 -0.0067
 1106TIP3   OH224808   1.742   3.462   2.606  0.2551  0.1683  0.3933
 1106TIP3    H124809   1.764   3.478   2.514  1.4607  0.5815  0.7333
 1106TIP3    H224810   1.760   3.369   2.619 -0.0374  0.0804  0.1879
 1107TIP3   OH224811   2.825   4.925   5.020 -0.5193  0.5534  0.7932
 1107TIP3    H124812   2.900   4.903   4.965 -2.2634  0.7552 -1.7913
 1107TIP3    H224813   2.813   4.848   5.076  0.0619 -0.5717 -0.5787
 1108TIP3   OH224814   5.078   0.052  13.041 -0.1711  0.7367  0.6537
 1108TIP3    H124815   5.080   0.089  12.953 -0.3602 -1.4979 -0.3558
 1108TIP3    H224816   5.070   0.128  13.099  0.0282  2.2658 -1.2291
 1109TIP3   OH224817   0.785   1.219  15.732  0.9134  0.0636 -0.3281
 1109TIP3    H124818   0.762   1.220  15.639  0.5158 -1.0192 -0.2581
 1109TIP3    H224819   0.873   1.180  15.734  1.7815  1.8943 -0.3879
 1110TIP3   OH224820   3.310   4.001  12.991 -0.2095  0.3337 -0.0505
 1110TIP3    H124821   3.400   4.032  12.980 -0.4417  0.7728 -0.7790
 1110TIP3    H224822   3.275   4.054  13.063  0.1540  0.0646  0.3271
 1111TIP3   OH224823   1.583   6.473   3.124  0.1230 -0.0855 -0.8009
 1111TIP3    H124824   1.489   6.488   3.132 -0.0804 -2.0828  1.7419
 1111TIP3    H224825   1.619   6.505   3.206  1.5656 -0.1267 -1.3902
 1112TIP3   OH224826   0.022   3.154  15.934  0.0766 -0.3241  0.5073
 1112TIP3    H124827   0.062   3.227  15.980  0.0738 -0.0702  0.1103
 1112TIP3    H224828  -0.031   3.195  15.865  0.1275 -0.7001  0.2440
 1113TIP3   OH224829   3.286   1.526   1.325  0.5952 -0.1349 -0.4674
 1113TIP3    H124830   3.300   1.494   1.235  0.4113 -2.5555  0.3033
 1113TIP3    H224831   3.302   1.450   1.380 -0.2099  1.0704  1.5162
 1114TIP3   OH224832   3.097   2.605   3.979 -0.2467  0.0660 -0.2756
 1114TIP3    H124833   3.175   2.661   3.983  0.7665 -1.1863 -1.4182
 1114TIP3    H224834   3.063   2.617   3.890  0.0118 -1.1344 -0.5528
 1115TIP3   OH224835   0.253   2.461  10.742  0.2830  0.6992 -0.0025
 1115TIP3    H124836   0.341   2.488  10.717  1.1433 -0.5942  1.4294
 1115TIP3    H224837   0.216   2.537  10.787  0.3963  1.4674 -1.1599
 1116TIP3   OH224838   2.343   6.077   5.871 -0.3264 -0.6893 -0.0581
 1116TIP3    H124839   2.281   6.108   5.805  1.1138  0.0853 -1.0991
 1116TIP3    H224840   2.414   6.038   5.821  2.1304  2.3284  0.7608
 1117TIP3   OH224841   6.297   2.449   0.287 -0.1407  0.1851 -0.0789
 1117TIP3    H124842   6.214   2.475   0.328 -0.5027 -1.9427  0.6491
 1117TIP3    H224843   6.354   2.427   0.360  0.8258  0.8405 -0.6111
 1118TIP3   OH224844   3.343   6.001  12.900  0.5657  0.3177 -0.2008
 1118TIP3    H124845   3.263   6.027  12.945  0.8916  2.1354 -0.5863
 1118TIP3    H224846   3.314   5.948  12.826 -0.3884  1.7745 -0.9082
 1119TIP3   OH224847   1.448   0.967   0.463 -0.0981  0.2879  0.6641
 1119TIP3    H124848   1.380   0.972   0.396 -1.3668  0.7616  1.9318
 1119TIP3    H224849   1.520   1.020   0.428 -1.9623  3.3128  0.9883
 1120TIP3   OH224850   0.326   2.503   1.556  0.2261 -0.0313 -0.5973
 1120TIP3    H124851   0.358   2.473   1.641 -1.7316 -1.3369 -0.2590
 1120TIP3    H224852   0.243   2.547   1.576 -0.2136 -0.2669 -1.8141
 1121TIP3   OH224853   2.054   6.746  16.557 -0.2988 -0.4364 -0.4683
 1121TIP3    H124854   1.974   6.761  16.608 -0.1812 -0.0279 -0.4018
 1121TIP3    H224855   2.060   6.651  16.550  0.1300 -0.5362  0.9699
 1122TIP3   OH224856   0.166   3.725   4.404 -0.2567 -0.3652  0.2999
 1122TIP3    H124857   0.089   3.692   4.358 -0.3744 -0.6332  0.6815
 1122TIP3    H224858   0.176   3.815   4.373  0.0041 -0.7160 -0.6758
 1123TIP3   OH224859   3.997   1.393   3.844 -0.1394  0.2496  0.3166
 1123TIP3    H124860   4.012   1.420   3.753  1.5891 -0.9300  0.2013
 1123TIP3    H224861   3.943   1.314   3.836  0.2807 -0.0387  0.2788
 1124TIP3   OH224862   2.615   0.357   2.830 -0.3548 -0.1583  0.1473
 1124TIP3    H124863   2.594   0.272   2.791  0.1837  0.4200 -1.5332
 1124TIP3    H224864   2.583   0.421   2.766 -0.5749  0.8975  1.2884
 1125TIP3   OH224865   2.739   2.585   4.195 -0.0322 -0.6176 -0.1828
 1125TIP3    H124866   2.776   2.594   4.107 -0.2222  0.1456 -0.1950
 1125TIP3    H224867   2.713   2.674   4.219  0.7013 -0.6887  0.9516
 1126TIP3   OH224868   1.028   2.717  13.624 -0.2100 -0.1192  0.0978
 1126TIP3    H124869   1.091   2.684  13.560  0.7910  3.0063 -0.6945
 1126TIP3    H224870   1.072   2.706  13.708  0.0066 -0.8933 -0.1050
 1127TIP3   OH224871   6.022   6.269  15.423  0.1157 -0.1684  0.3406
 1127TIP3    H124872   6.006   6.311  15.338 -0.1786 -1.1823 -0.1246
 1127TIP3    H224873   6.085   6.199  15.404  1.1937  0.5180  1.2408
 1128TIP3   OH224874   2.938   2.115  15.266  0.2071 -0.5812 -0.5999
 1128TIP3    H124875   2.856   2.161  15.281  0.4601 -0.6384  1.1247
 1128TIP3    H224876   2.972   2.152  15.184 -0.9791  0.2374 -0.7431
 1129TIP3   OH224877   3.073   0.904   2.303  0.2816  0.5217  0.0971
 1129TIP3    H124878   2.980   0.892   2.320  0.3552 -0.5814 -0.2182
 1129TIP3    H224879   3.081   0.995   2.275 -0.6905  0.6362  0.1795
 1130TIP3   OH224880   2.969   5.670  11.713 -0.1501  0.6130 -0.7378
 1130TIP3    H124881   3.054   5.713  11.721 -1.3791  3.1510 -0.2483
 1130TIP3    H224882   2.964   5.612  11.789  0.7046  1.2931 -0.1420
 1131TIP3   OH224883   4.540   2.585  17.220  0.3111 -0.1774 -0.0037
 1131TIP3    H124884   4.484   2.647  17.174  1.1223  0.4104 -0.2282
 1131TIP3    H224885   4.480   2.518  17.252 -0.4901  0.3259 -0.4035
 1132TIP3   OH224886   0.722   6.077  12.257  0.2044  0.0186  0.7701
 1132TIP3    H124887   0.646   6.065  12.199 -0.2569  3.5892  0.4236
 1132TIP3    H224888   0.788   6.118  12.202  0.4256  1.7825  2.2693
 1133TIP3   OH224889   5.738   5.812  11.484  0.0723  0.4407 -0.4173
 1133TIP3    H124890   5.739   5.845  11.574 -0.2712  1.0773 -0.6385
 1133TIP3    H224891   5.818   5.760  11.476  0.9200  1.6766 -0.2232
 1134TIP3   OH224892   4.089   0.221   5.875  0.3475  0.0847 -0.7812
 1134TIP3    H124893   4.076   0.141   5.927  0.0550 -0.5516 -1.8101
 1134TIP3    H224894   4.167   0.261   5.913 -0.4733  0.2192  0.8501
 1135TIP3   OH224895   1.588   1.072  14.252 -0.0711  0.8786  0.1467
 1135TIP3    H124896   1.591   1.134  14.179  1.8472  1.1300  0.3725
 1135TIP3    H224897   1.641   1.114  14.320 -0.6571  0.0035  1.1650
 1136TIP3   OH224898   3.515   6.426  11.734 -0.4985  0.6005  0.6642
 1136TIP3    H124899   3.516   6.521  11.745  0.8695  0.5393  1.2800
 1136TIP3    H224900   3.590   6.395  11.785  1.2787 -0.4934 -2.3418
 1137TIP3   OH224901   3.131   5.324   5.809  0.2006 -0.2112  0.0676
 1137TIP3    H124902   3.123   5.269   5.731 -0.8201 -1.4861  1.0194
 1137TIP3    H224903   3.042   5.353   5.827 -0.1130 -2.2541  2.3098
 1138TIP3   OH224904   0.468   0.532  13.456  0.5868 -0.4045 -0.2894
 1138TIP3    H124905   0.532   0.467  13.484  0.2583 -0.6410 -0.0870
 1138TIP3    H224906   0.448   0.507  13.365 -0.5622 -1.4200  0.2177
 1139TIP3   OH224907   3.812   5.300  12.792  0.0683  0.1029  0.0763
 1139TIP3    H124908   3.829   5.221  12.741 -0.0245 -0.8950  1.5125
 1139TIP3    H224909   3.899   5.330  12.820  0.1476  0.8671 -0.9579
 1140TIP3   OH224910   1.700   4.427  11.672  0.1148 -0.0112  0.5361
 1140TIP3    H124911   1.794   4.419  11.659 -0.2095 -2.2457 -0.8730
 1140TIP3    H224912   1.663   4.423  11.584 -1.3797 -0.7662  1.1570
 1141TIP3   OH224913   5.480   5.027  11.292  0.1468 -0.7654 -0.0426
 1141TIP3    H124914   5.513   5.100  11.344 -1.0350 -1.0842  1.1939
 1141TIP3    H224915   5.508   5.047  11.202  0.0718  1.0601  0.3059
 1142TIP3   OH224916   4.438   5.008  14.179 -0.0405  0.2566 -0.0769
 1142TIP3    H124917   4.511   5.066  14.158 -0.1758 -0.1225 -1.7854
 1142TIP3    H224918   4.462   4.968  14.263  1.4321  0.5973 -0.3034
 1143TIP3   OH224919   4.184   6.602  15.470  0.8929  0.3603  0.1855
 1143TIP3    H124920   4.126   6.667  15.431  1.4006  0.1628 -0.9178
 1143TIP3    H224921   4.125   6.533  15.501  0.5169  0.1896 -0.8716
 1144TIP3   OH224922   4.267   1.862   1.540  0.1948 -0.3352 -0.3716
 1144TIP3    H124923   4.295   1.821   1.621 -0.2335 -1.1337 -0.6044
 1144TIP3    H224924   4.199   1.924   1.566 -0.4181 -1.0697 -0.1685
 1145TIP3   OH224925   1.475   4.589   5.151  0.1211 -0.7976  0.5126
 1145TIP3    H124926   1.391   4.596   5.106 -0.9163 -1.4455  2.2240
 1145TIP3    H224927   1.524   4.667   5.125 -1.8679  0.7429  1.1499
 1146TIP3   OH224928   4.393   5.721   1.495 -0.6386 -0.3344 -0.0884
 1146TIP3    H124929   4.321   5.777   1.523 -1.4285 -1.4123  0.0617
 1146TIP3    H224930   4.454   5.721   1.569  1.2300  3.2236 -1.3725
 1147TIP3   OH224931   2.248   3.861  14.813  0.1018 -0.5993 -0.3183
 1147TIP3    H124932   2.174   3.812  14.847 -0.7252 -0.2590 -1.5235
 1147TIP3    H224933   2.308   3.795  14.781 -0.6613 -0.8721 -1.2429
 1148TIP3   OH224934   5.851   5.793  11.781 -0.2757  0.0300  0.3032
 1148TIP3    H124935   5.942   5.816  11.762  0.0454 -0.7797  0.7863
 1148TIP3    H224936   5.832   5.839  11.863  0.3720 -1.3461  1.2787
 1149TIP3   OH224937   5.226   5.423  11.533 -0.2084  0.0499 -0.2568
 1149TIP3    H124938   5.180   5.505  11.518  1.1325  1.0012  0.5565
 1149TIP3    H224939   5.315   5.438  11.500  0.2440 -0.8450  0.4797
 1150TIP3   OH224940   4.702   2.451  16.835  0.1171  0.1822  0.4245
 1150TIP3    H124941   4.714   2.495  16.751  0.6434  0.8646  0.8447
 1150TIP3    H224942   4.783   2.400  16.848 -0.0459 -0.0798  0.4284
 1151TIP3   OH224943   2.896   6.758  16.077  0.5288  0.2881  0.1184
 1151TIP3    H124944   2.960   6.811  16.124  2.3511  0.0370 -1.9138
 1151TIP3    H224945   2.827   6.820  16.052  0.6717  0.8627  1.1127
 1152TIP3   OH224946   4.749   3.828   5.962  0.0307  0.1671  0.3210
 1152TIP3    H124947   4.724   3.781   5.882  1.5605 -1.0535  0.5141
 1152TIP3    H224948   4.797   3.905   5.931  1.5228 -0.8394  0.0374
 1153TIP3   OH224949   2.925   0.100  14.818 -0.3170  0.2680 -0.1886
 1153TIP3    H124950   2.948   0.017  14.860  1.6167  0.5515 -0.5842
 1153TIP3    H224951   2.978   0.166  14.863 -0.3260  0.9777 -1.1777
 1154TIP3   OH224952   0.058   6.212  15.845  0.3074  0.1531  0.1901
 1154TIP3    H124953  -0.004   6.195  15.773 -0.7085  2.1475  0.5212
 1154TIP3    H224954   0.020   6.167  15.920 -0.4060  0.8309  0.2406
 1155TIP3   OH224955   2.663   1.360   5.791  0.2638 -0.0064 -0.3777
 1155TIP3    H124956   2.660   1.389   5.882 -0.2930 -1.6248  0.1555
 1155TIP3    H224957   2.753   1.332   5.777  0.0206 -1.1429  0.1702
 1156TIP3   OH224958   2.001   5.202  16.465  0.3967 -0.2232 -0.2584
 1156TIP3    H124959   1.987   5.294  16.486 -0.9054 -0.5063  0.1991
 1156TIP3    H224960   1.940   5.154  16.521  2.2363 -1.5010  0.7578
 1157TIP3   OH224961   0.747   1.818  14.487 -0.1527 -0.2378 -0.1215
 1157TIP3    H124962   0.713   1.729  14.476 -0.7718 -0.1777  1.1051
 1157TIP3    H224963   0.788   1.839  14.403 -0.5735 -1.4319 -0.6448
 1158TIP3   OH224964   6.023   4.884  13.807 -0.3383  0.2919 -0.2224
 1158TIP3    H124965   6.023   4.878  13.903 -0.8736 -2.2514 -0.3125
 1158TIP3    H224966   6.103   4.839  13.781 -1.6763 -1.7758 -1.0064
 1159TIP3   OH224967   3.623   1.911   4.416  0.2917  0.5185 -0.1651
 1159TIP3    H124968   3.573   1.931   4.337 -0.1365 -0.5045 -0.1679
 1159TIP3    H224969   3.600   1.980   4.478 -1.4336 -0.1350 -0.0323
 1160TIP3   OH224970   2.670   0.881   2.804  0.2319  0.6984 -0.4336
 1160TIP3    H124971   2.605   0.862   2.871  0.9143 -0.1739 -0.0077
 1160TIP3    H224972   2.665   0.808   2.743  0.3789  0.9363 -0.7374
 1161TIP3   OH224973   1.271   4.198   3.709  0.4553  0.0574  0.0016
 1161TIP3    H124974   1.252   4.242   3.626  0.5279  0.2774  0.1021
 1161TIP3    H224975   1.348   4.144   3.691 -0.3786 -1.0074 -0.4709
 1162TIP3   OH224976   4.493   3.574   5.499 -0.7150 -0.1585 -0.2407
 1162TIP3    H124977   4.402   3.589   5.472 -1.0015  0.2085  0.8558
 1162TIP3    H224978   4.522   3.500   5.446 -1.9397 -0.8385 -0.0035
 1163TIP3   OH224979   2.766   0.804  11.119 -0.0363  0.4796  0.2228
 1163TIP3    H124980   2.708   0.874  11.090 -0.4885  0.7152  1.6294
 1163TIP3    H224981   2.710   0.727  11.126  0.8300 -0.6236 -3.2434
 1164TIP3   OH224982   4.910   2.791  16.715  0.1545 -0.0823 -0.0349
 1164TIP3    H124983   4.855   2.860  16.751 -2.3089 -0.1144 -3.3331
 1164TIP3    H224984   4.894   2.716  16.772 -1.3848  0.5660  0.4341
 1165TIP3   OH224985   6.311   4.512  14.335 -0.0982 -0.3293 -0.1470
 1165TIP3    H124986   6.274   4.552  14.414 -2.5523  0.6299 -1.6680
 1165TIP3    H224987   6.395   4.556  14.323 -0.6337  1.0072  0.7876
 1166TIP3   OH224988   2.434   0.948  14.590 -0.9065  0.2320 -0.6910
 1166TIP3    H124989   2.441   0.918  14.499 -3.2701 -0.7589 -0.6105
 1166TIP3    H224990   2.462   0.873  14.642  0.1348  0.6897 -0.5682
 1167TIP3   OH224991   3.854   6.468   4.718 -0.4443 -0.4688 -0.3588
 1167TIP3    H124992   3.902   6.495   4.640  1.5094 -1.2640  0.4879
 1167TIP3    H224993   3.906   6.396   4.755  0.5542  1.9081  3.4277
 1168TIP3   OH224994   3.974   2.735  14.148 -0.4895  0.7816 -0.2812
 1168TIP3    H124995   3.953   2.736  14.055  0.9455 -1.8789 -0.7362
 1168TIP3    H224996   3.906   2.680  14.187  0.4408 -0.3786 -0.2556
 1169TIP3   OH224997   6.184   1.054   5.687 -0.1157 -0.4691  0.4849
 1169TIP3    H124998   6.202   1.127   5.746  4.4564 -1.0393  0.1288
 1169TIP3    H224999   6.154   1.097   5.606 -1.8095  0.6219  1.6240
 1170TIP3   OH225000   5.228   3.406  14.063  0.1701  0.0593 -0.3346
 1170TIP3    H125001   5.204   3.498  14.073 -2.5935 -0.6240  0.1555
 1170TIP3    H225002   5.317   3.408  14.029 -0.1750  2.9107 -1.3287
 1171TIP3   OH225003   2.298   5.979  14.610 -0.7418 -0.1790  0.1326
 1171TIP3    H125004   2.262   6.066  14.629  1.2300  0.8061 -0.3330
 1171TIP3    H225005   2.393   5.991  14.613 -0.4085 -2.1805 -0.6092
 1172TIP3   OH225006   3.514   0.684  14.658  0.0908  0.0110  0.4886
 1172TIP3    H125007   3.534   0.754  14.720 -2.2731  2.3049 -1.1218
 1172TIP3    H225008   3.535   0.721  14.572  0.5015 -1.9924 -0.3440
 1173TIP3   OH225009   1.827   4.250   2.116 -0.4064 -0.6879 -0.3450
 1173TIP3    H125010   1.757   4.292   2.167 -0.8110 -0.9722 -0.6591
 1173TIP3    H225011   1.802   4.266   2.024  0.8413  0.7111 -0.4781
 1174TIP3   OH225012   3.074   0.411  14.623  0.2334  0.2150  0.4217
 1174TIP3    H125013   3.155   0.362  14.620 -0.5602 -1.1926 -3.1203
 1174TIP3    H225014   3.093   0.492  14.577 -0.5698 -0.6759 -1.6027
 1175TIP3   OH225015   2.652   3.046   6.002  0.2826  0.0863 -0.2497
 1175TIP3    H125016   2.559   3.057   5.980  0.6361  1.7827 -1.0336
 1175TIP3    H225017   2.658   3.072   6.094  0.1021  0.7006 -0.4084
 1176TIP3   OH225018   2.806   4.525  14.425 -0.1507 -0.5063 -0.2936
 1176TIP3    H125019   2.732   4.484  14.469  1.0382 -1.6303  0.7524
 1176TIP3    H225020   2.843   4.585  14.490 -0.1019  0.0240 -0.7972
 1177TIP3   OH225021   3.802   0.994   3.524  0.2659  0.4194  0.3364
 1177TIP3    H125022   3.868   1.064   3.528  1.2030 -0.3765 -0.4914
 1177TIP3    H225023   3.816   0.942   3.603 -1.0144  1.6250  1.4080
 1178TIP3   OH225024   5.923   1.266   3.414 -0.4115  0.0438 -0.4908
 1178TIP3    H125025   5.889   1.180   3.438  0.8568 -1.0539 -2.3962
 1178TIP3    H225026   5.998   1.280   3.471  0.5489 -1.0293 -1.4380
 1179TIP3   OH225027   5.512   3.175  11.931  0.1796  0.4880  0.6164
 1179TIP3    H125028   5.456   3.209  11.861 -0.7836  0.4290  1.3472
 1179TIP3    H225029   5.523   3.082  11.911 -1.9901 -0.0672  1.7466
 1180TIP3   OH225030   3.096   5.689   5.927 -0.1198  0.2798  0.6046
 1180TIP3    H125031   3.031   5.686   5.857  0.5114  0.3481  0.0095
 1180TIP3    H225032   3.154   5.761   5.902  0.5307 -0.1634  0.8214
 1181TIP3   OH225033   2.743   5.345  16.963  0.0526  0.2793 -0.1717
 1181TIP3    H125034   2.781   5.284  16.900  1.4155 -0.3935  1.2252
 1181TIP3    H225035   2.666   5.299  16.998  1.8284 -1.3819  1.8781
 1182TIP3   OH225036   4.758   4.570  13.647  0.9157 -0.4660 -0.1063
 1182TIP3    H125037   4.782   4.615  13.729  2.0860 -1.3525  0.0658
 1182TIP3    H225038   4.664   4.557  13.654  1.0395 -0.8080  1.2630
 1183TIP3   OH225039   0.086   2.497  12.009 -0.7603 -0.2687 -0.0929
 1183TIP3    H125040   0.179   2.514  12.023 -0.8035 -1.1516  1.4817
 1183TIP3    H225041   0.076   2.403  12.027 -2.2711  0.1975  1.8223
 1184TIP3   OH225042   1.997   1.859   4.202  0.0376  0.5576  0.1093
 1184TIP3    H125043   1.955   1.842   4.287 -0.0016  3.7226  0.8654
 1184TIP3    H225044   2.078   1.809   4.205  0.6958  1.6071  2.6825
 1185TIP3   OH225045   2.988   5.391  12.268 -0.6217 -0.2989  0.2093
 1185TIP3    H125046   2.934   5.346  12.332  0.2756 -2.6662 -0.5692
 1185TIP3    H225047   3.075   5.352  12.278  1.1573  3.5949  1.6430
 1186TIP3   OH225048   5.497   0.714   2.572  0.2085  0.0804 -0.2247
 1186TIP3    H125049   5.518   0.664   2.494 -0.5334 -2.2404  0.9777
 1186TIP3    H225050   5.508   0.806   2.546 -1.2745 -0.5262 -3.3875
 1187TIP3   OH225051   2.352   1.763  17.106 -0.0239 -0.5084  0.1651
 1187TIP3    H125052   2.414   1.747  17.034  0.7646  1.0049  0.4747
 1187TIP3    H225053   2.399   1.733  17.184 -0.4850 -1.2029  0.1881
 1188TIP3   OH225054   4.492   2.955  13.782  0.5619 -0.2701  0.2588
 1188TIP3    H125055   4.570   3.011  13.775  0.3749  0.1565  1.3725
 1188TIP3    H225056   4.427   3.010  13.826 -0.1243 -0.8764  0.0210
 1189TIP3   OH225057   4.975   2.596   6.283  0.0495  0.4838  0.4008
 1189TIP3    H125058   4.929   2.678   6.265 -0.1504  0.2143 -0.3334
 1189TIP3    H225059   4.908   2.528   6.274  0.3547  0.1830  0.3608
 1190TIP3   OH225060   0.422   4.198   3.352 -0.3855 -0.8708 -0.1424
 1190TIP3    H125061   0.466   4.225   3.272  2.3942 -0.6962  1.3425
 1190TIP3    H225062   0.387   4.279   3.389 -1.2703 -0.8902 -0.9028
 1191TIP3   OH225063   5.277   2.231  15.940  0.6027  0.0803  0.1765
 1191TIP3    H125064   5.355   2.185  15.969 -0.2952 -0.9306  1.0713
 1191TIP3    H225065   5.298   2.259  15.851  1.5568 -1.2116 -0.0419
 1192TIP3   OH225066   1.124   4.698   1.674  0.3974  0.2201  0.6778
 1192TIP3    H125067   1.131   4.710   1.768 -2.1956  0.3339  0.9250
 1192TIP3    H225068   1.066   4.623   1.663  0.9925 -0.0714 -0.8623
 1193TIP3   OH225069   2.053   5.170  12.675 -0.2559  0.1779  0.3485
 1193TIP3    H125070   2.053   5.096  12.615 -0.0790  1.4266 -1.2550
 1193TIP3    H225071   2.129   5.156  12.731  0.6008 -0.1621 -0.8580
 1194TIP3   OH225072   3.054   2.571  10.766  0.1996 -0.0720 -0.2478
 1194TIP3    H125073   2.983   2.623  10.804 -0.3010 -0.5389 -0.5331
 1194TIP3    H225074   3.043   2.581  10.672  2.4375  2.4719 -0.3708
 1195TIP3   OH225075   3.085   2.270   0.307 -0.0299 -0.4661 -0.0311
 1195TIP3    H125076   3.025   2.316   0.248  0.7460 -0.5862 -0.9479
 1195TIP3    H225077   3.157   2.332   0.320 -1.2645  0.5512  2.7742
 1196TIP3   OH225078   5.447   0.821  16.480 -0.3078  0.7879 -0.5711
 1196TIP3    H125079   5.517   0.883  16.501  0.4119 -0.0848 -0.3090
 1196TIP3    H225080   5.475   0.781  16.397 -0.1513 -0.0370 -0.1295
 1197TIP3   OH225081   1.295   6.022  12.338  0.1857 -0.4164  0.0723
 1197TIP3    H125082   1.343   5.939  12.339 -0.2976 -0.7132 -0.9112
 1197TIP3    H225083   1.350   6.081  12.390  2.2464 -0.4248 -1.9343
 1198TIP3   OH225084   3.668   6.292   5.607 -0.4093 -0.0569 -0.1441
 1198TIP3    H125085   3.672   6.378   5.647 -2.3458  0.1360 -0.2399
 1198TIP3    H225086   3.640   6.234   5.678 -3.5228  0.2309 -0.9644
 1199TIP3   OH225087   0.740   2.882  11.037  0.5200  0.5200 -0.7971
 1199TIP3    H125088   0.764   2.974  11.027 -0.8341  1.0146  0.2458
 1199TIP3    H225089   0.819   2.840  11.071  1.3090  1.1783 -1.7838
 1200TIP3   OH225090   3.635   0.301  13.817 -0.3046  0.6224  0.4341
 1200TIP3    H125091   3.692   0.376  13.836  0.4792  0.0204  0.5012
 1200TIP3    H225092   3.688   0.245  13.761 -0.3591 -0.5640  1.5407
 1201TIP3   OH225093   0.593   6.416  12.347  0.3768  0.0932  0.8431
 1201TIP3    H125094   0.538   6.389  12.273  1.8563  0.0916 -0.3135
 1201TIP3    H225095   0.546   6.489  12.386 -0.7277 -0.2794  0.2539
 1202TIP3   OH225096   3.243   5.803  17.052  0.4225  0.0671  0.4087
 1202TIP3    H125097   3.319   5.861  17.063  1.3652 -0.4928 -2.2130
 1202TIP3    H225098   3.177   5.837  17.112  1.6695  2.5327  0.5060
 1203TIP3   OH225099   4.440   4.269   5.359  0.2618 -0.6530  0.3327
 1203TIP3    H125100   4.437   4.190   5.414 -0.6377 -0.8880 -0.0375
 1203TIP3    H225101   4.382   4.250   5.286 -1.1179  0.9008  0.9686
 1204TIP3   OH225102   2.433   4.009  11.716 -0.6850 -0.1808  0.2538
 1204TIP3    H125103   2.456   3.917  11.723  0.6258  0.1550  0.7711
 1204TIP3    H225104   2.478   4.039  11.637 -1.9358 -0.1926 -0.4897
 1205TIP3   OH225105   6.126   2.030  11.873  0.1775  0.4320  0.4011
 1205TIP3    H125106   6.044   1.993  11.842 -1.4201  1.9538  2.5072
 1205TIP3    H225107   6.158   2.083  11.800 -1.3401  0.7288 -0.0829
 1206TIP3   OH225108   0.681   5.162   1.998  0.4164  0.3739  0.8323
 1206TIP3    H125109   0.615   5.142   2.065  1.1216 -0.9165  1.1737
 1206TIP3    H225110   0.729   5.080   1.987 -0.7764 -0.0304 -2.5880
 1207TIP3   OH225111   0.926   3.482  13.354 -0.3659 -0.2666  0.3380
 1207TIP3    H125112   0.899   3.399  13.392 -1.1666 -0.5398 -0.7728
 1207TIP3    H225113   0.859   3.545  13.384 -0.2636 -0.2056  0.4415
 1208TIP3   OH225114   5.280   0.703  15.675  0.6601 -0.3901  0.4489
 1208TIP3    H125115   5.220   0.643  15.631 -0.6777  0.5339  0.9482
 1208TIP3    H225116   5.347   0.646  15.714 -0.2584 -1.4992  0.4456
 1209TIP3   OH225117   4.653   1.221  16.531  0.0191 -0.4588 -0.3235
 1209TIP3    H125118   4.725   1.284  16.535  0.9512 -1.5656  2.1040
 1209TIP3    H225119   4.612   1.225  16.618  0.5065 -3.5387  0.1864
 1210TIP3   OH225120   6.488   6.655   2.673 -0.9747  0.3558  0.6155
 1210TIP3    H125121   6.535   6.627   2.752  0.6085  1.2224  0.0434
 1210TIP3    H225122   6.507   6.748   2.666  1.0299 -0.1296 -2.0685
 1211TIP3   OH225123   3.176   0.077  12.943  0.1606 -1.0097  0.0632
 1211TIP3    H125124   3.185  -0.015  12.968 -0.2200 -0.5541  2.1279
 1211TIP3    H225125   3.102   0.079  12.883  2.2140 -2.4256 -2.7272
 1212TIP3   OH225126   2.929   4.839   0.976 -0.0285  0.2797 -0.3470
 1212TIP3    H125127   2.960   4.795   0.897  2.0887  2.3742 -0.8071
 1212TIP3    H225128   2.970   4.926   0.973 -0.6032  0.7666  2.5844
 1213TIP3   OH225129   5.959   2.139   0.210  0.4769 -0.7694 -0.2652
 1213TIP3    H125130   5.997   2.061   0.169 -1.1995 -1.5941 -0.3579
 1213TIP3    H225131   5.882   2.106   0.257  0.2562  0.7046  0.4655
 1214TIP3   OH225132   0.642   0.845  15.181 -0.3933 -0.4873  0.2363
 1214TIP3    H125133   0.647   0.801  15.097  0.2123 -0.9740  0.5170
 1214TIP3    H225134   0.641   0.774  15.246 -3.0888 -0.2252  0.6038
 1215TIP3   OH225135   2.159   5.466   0.147 -0.1334 -0.3232 -0.4785
 1215TIP3    H125136   2.214   5.542   0.129 -0.4334 -0.2904 -1.3163
 1215TIP3    H225137   2.161   5.415   0.065 -1.4193 -0.2723 -0.5609
 1216TIP3   OH225138   2.835   2.768   6.055 -0.0908 -0.1990 -0.5004
 1216TIP3    H125139   2.755   2.802   6.017 -0.2741  0.7147  0.6410
 1216TIP3    H225140   2.864   2.836   6.116  0.5942 -1.2638  0.4056
 1217TIP3   OH225141   1.520   5.078  11.869 -0.1502  0.6703  0.0062
 1217TIP3    H125142   1.615   5.067  11.860 -0.4004 -1.0057 -0.9630
 1217TIP3    H225143   1.499   5.151  11.810  0.5139  0.9367  0.0884
 1218TIP3   OH225144   6.196   0.673  14.553  0.2530 -0.5987 -0.2725
 1218TIP3    H125145   6.158   0.616  14.620  1.1397  0.4982  1.2358
 1218TIP3    H225146   6.289   0.652  14.553  0.5451  0.6270  0.1225
 1219TIP3   OH225147   5.181   5.861   4.113  0.4777  0.1060  0.0713
 1219TIP3    H125148   5.109   5.923   4.115  1.1626  0.9149  0.2506
 1219TIP3    H225149   5.258   5.913   4.135  1.1143 -0.7437 -0.0936
 1220TIP3   OH225150   3.644   3.083   4.175  0.8475 -0.4031  0.6177
 1220TIP3    H125151   3.575   3.136   4.216  0.8864 -0.8355  1.2412
 1220TIP3    H225152   3.609   2.994   4.175  0.4458 -0.2865 -1.1451
 1221TIP3   OH225153   5.728   6.292  15.296  0.6650  0.4154 -0.1776
 1221TIP3    H125154   5.738   6.197  15.289 -0.7105  0.3822 -2.9687
 1221TIP3    H225155   5.783   6.328  15.227 -1.0626  1.3967 -1.1310
 1222TIP3   OH225156   5.258   1.018  16.429 -0.1665  0.1186  0.5437
 1222TIP3    H125157   5.332   0.961  16.412 -0.6545 -0.6781  0.9964
 1222TIP3    H225158   5.295   1.107  16.430  0.1670  0.1245 -2.8188
 1223TIP3   OH225159   1.774   4.956  13.060  0.4909  0.6170 -0.0611
 1223TIP3    H125160   1.866   4.979  13.047  0.4184  1.3861  0.6897
 1223TIP3    H225161   1.757   4.888  12.995  1.7197  0.1106  0.1197
 1224TIP3   OH225162   1.615   4.358  15.614  0.0440  0.4535  0.0582
 1224TIP3    H125163   1.529   4.346  15.654 -0.9417  0.6466 -1.8799
 1224TIP3    H225164   1.671   4.292  15.656 -1.5332 -0.9738 -0.0157
 1225TIP3   OH225165   4.292   3.877   0.532  0.2472 -0.0103 -0.4403
 1225TIP3    H125166   4.282   3.916   0.619 -0.9605 -1.5282  0.1589
 1225TIP3    H225167   4.370   3.918   0.496  0.6932  0.7781  1.3050
 1226TIP3   OH225168   6.083   0.414   3.346 -0.0966 -0.6001 -0.3271
 1226TIP3    H125169   6.013   0.478   3.361  0.1589 -0.5165  0.5836
 1226TIP3    H225170   6.111   0.431   3.256  0.4904  1.1346  0.1263
 1227TIP3   OH225171   6.660   6.428   5.154  0.1305  0.0248  0.0567
 1227TIP3    H125172   6.627   6.473   5.076 -1.7348 -0.1939  0.6597
 1227TIP3    H225173   6.724   6.488   5.191  0.5765  0.4133 -1.2871
 1228TIP3   OH225174   1.536   3.014   3.930 -0.3180 -0.3091 -0.2040
 1228TIP3    H125175   1.517   3.043   4.020 -0.7840 -0.3081 -0.3026
 1228TIP3    H225176   1.596   2.939   3.942 -0.9426 -0.7688  0.1406
 1229TIP3   OH225177   3.602   6.646   1.450 -0.3925 -0.3694 -0.1532
 1229TIP3    H125178   3.511   6.672   1.432 -0.5020 -0.5511  0.1296
 1229TIP3    H225179   3.649   6.729   1.460 -0.6010 -0.2741  0.0599
 1230TIP3   OH225180   5.962   0.839  12.758 -0.6612 -0.2182 -0.0282
 1230TIP3    H125181   5.903   0.821  12.830  0.4067 -1.1125  0.6545
 1230TIP3    H225182   6.030   0.895  12.796 -0.6787  0.2186 -0.6214
 1231TIP3   OH225183   5.612   1.331   0.813  0.2004 -0.2350  0.4676
 1231TIP3    H125184   5.589   1.322   0.905  0.9824 -1.2184  0.5772
 1231TIP3    H225185   5.621   1.242   0.780 -2.0848  0.0185 -1.1237
 1232TIP3   OH225186   4.062   1.619   1.883  0.5292  0.1909  0.3139
 1232TIP3    H125187   4.087   1.600   1.792 -0.7350  0.1801 -0.0506
 1232TIP3    H225188   4.025   1.538   1.916 -0.0475  0.5027  0.4603
 1233TIP3   OH225189   4.220   5.977  15.761 -0.7179 -0.2359 -0.1727
 1233TIP3    H125190   4.173   5.898  15.787 -0.9462 -0.7072 -1.8936
 1233TIP3    H225191   4.199   5.988  15.668 -0.1588  1.4823 -0.1368
 1234TIP3   OH225192   5.615   3.252  16.740  0.1084  0.2542 -0.1401
 1234TIP3    H125193   5.556   3.315  16.782 -0.4185 -0.4892  0.2601
 1234TIP3    H225194   5.679   3.306  16.694  0.2062  1.0938  0.9325
 1235TIP3   OH225195   0.012   4.989   6.304  0.7112 -0.5121 -0.6727
 1235TIP3    H125196  -0.038   5.027   6.377  0.8285  0.1949 -0.9542
 1235TIP3    H225197   0.008   4.895   6.320 -1.4568 -0.5693 -1.1546
 1236TIP3   OH225198   4.537   2.966   0.506 -0.9095  0.8685  0.3270
 1236TIP3    H125199   4.559   2.917   0.426  0.0621  0.2588  0.9381
 1236TIP3    H225200   4.570   3.054   0.489  0.4717  0.4215  0.5224
 1237TIP3   OH225201   1.726   0.125  12.262 -0.8927  0.4158 -0.5367
 1237TIP3    H125202   1.711   0.134  12.167 -1.1302  1.8411 -0.3825
 1237TIP3    H225203   1.821   0.134  12.272 -0.9757  1.3518 -0.5412
 1238TIP3   OH225204   4.983   5.540   2.384 -0.2529  0.3406 -0.2363
 1238TIP3    H125205   4.987   5.573   2.295 -0.1859  0.3456 -0.2317
 1238TIP3    H225206   5.070   5.502   2.400 -1.0926 -2.1103 -1.1095
 1239TIP3   OH225207   1.277   1.439  12.632 -0.0562  0.3323 -0.0656
 1239TIP3    H125208   1.309   1.514  12.681 -1.3173  0.1193  1.1300
 1239TIP3    H225209   1.321   1.364  12.671  1.4060  0.4365 -1.4338
 1240TIP3   OH225210   4.979   0.905   0.691  0.0263  0.0033  0.2746
 1240TIP3    H125211   5.040   0.936   0.624 -0.4195  1.4339  0.5004
 1240TIP3    H225212   4.899   0.885   0.642 -0.0525  0.3161  0.2729
 1241TIP3   OH225213   4.167   0.257   1.565  0.4520  0.1474  0.6397
 1241TIP3    H125214   4.235   0.201   1.603  1.7960  0.2648 -1.4830
 1241TIP3    H225215   4.115   0.198   1.510  0.1559  0.4691  0.5687
 1242TIP3   OH225216   0.864   1.861  12.799 -0.1069  0.3477 -0.2347
 1242TIP3    H125217   0.942   1.806  12.807  0.3605  0.8233 -1.3105
 1242TIP3    H225218   0.796   1.813  12.846  0.6305 -0.4640  0.0395
 1243TIP3   OH225219   5.387   4.600  12.642  1.0702 -0.2324  0.5507
 1243TIP3    H125220   5.319   4.538  12.669 -0.8334 -0.2079 -3.4737
 1243TIP3    H225221   5.345   4.685  12.645  1.4434 -0.0056 -0.3802
 1244TIP3   OH225222   0.145   3.867   2.610 -0.6949 -0.3591 -0.0566
 1244TIP3    H125223   0.113   3.928   2.544 -2.3834 -1.1969 -0.0719
 1244TIP3    H225224   0.225   3.830   2.572  0.7434  2.2013  0.2122
 1245TIP3   OH225225   3.544   4.826   4.651 -0.5492  0.2113  0.1787
 1245TIP3    H125226   3.574   4.738   4.671 -1.3368 -0.2764 -0.6782
 1245TIP3    H225227   3.602   4.856   4.581 -0.5455  0.2044  0.1786
 1246TIP3   OH225228   1.170   3.424  15.979 -0.4402  0.0146 -0.0308
 1246TIP3    H125229   1.202   3.458  15.896 -1.9774 -0.0572 -0.6849
 1246TIP3    H225230   1.140   3.502  16.026 -2.0835 -0.1903 -0.6903
 1247TIP3   OH225231   0.697   2.270   4.534  0.0363 -0.4403 -0.1580
 1247TIP3    H125232   0.668   2.337   4.596 -1.6918 -0.5682 -0.7837
 1247TIP3    H225233   0.722   2.196   4.589 -2.7540 -1.0546  0.4091
 1248TIP3   OH225234   6.737   0.823  15.952 -0.8506 -0.0614 -0.1660
 1248TIP3    H125235   6.759   0.867  15.870 -0.7885 -0.6247 -0.4517
 1248TIP3    H225236   6.818   0.783  15.982 -1.1404 -0.8876 -0.4616
 1249TIP3   OH225237   5.323   5.427   3.357 -0.3262 -0.3702 -0.0865
 1249TIP3    H125238   5.354   5.498   3.301  0.3260  0.2024  0.9459
 1249TIP3    H225239   5.403   5.386   3.390 -0.6695 -0.1819  1.0285
 1250TIP3   OH225240   1.030   1.289  16.226  0.4143 -0.0726  0.1624
 1250TIP3    H125241   0.991   1.372  16.253  1.3167  0.1772  0.7406
 1250TIP3    H225242   1.106   1.313  16.173 -2.1546 -0.5269 -4.1596
 1251TIP3   OH225243   5.991   5.035   1.547  0.1712  0.0891  0.0161
 1251TIP3    H125244   5.966   5.111   1.599  1.2993  0.4007  0.1283
 1251TIP3    H225245   5.908   4.994   1.523 -0.4014  0.5689  1.1188
 1252TIP3   OH225246   5.579   2.719  12.520  0.0046 -0.2337  0.3698
 1252TIP3    H125247   5.528   2.736  12.441  2.5209 -2.9916 -2.0429
 1252TIP3    H225248   5.602   2.806  12.552 -2.2733  0.9944 -1.0424
 1253TIP3   OH225249   2.706   6.388   5.000 -0.2623  0.0011 -0.1881
 1253TIP3    H125250   2.734   6.479   5.000  0.0445 -0.0840  0.5746
 1253TIP3    H225251   2.788   6.338   4.996 -0.4007 -0.2435  0.0148
 1254TIP3   OH225252   2.387   1.335  13.821 -0.1242 -0.0162 -0.2825
 1254TIP3    H125253   2.442   1.391  13.875 -0.0249  0.2127 -0.6158
 1254TIP3    H225254   2.386   1.250  13.866  0.7187 -0.1035 -0.4166
 1255TIP3   OH225255   3.412   3.735   4.721  0.5480 -0.0238 -0.1413
 1255TIP3    H125256   3.499   3.719   4.683  0.1755  0.8301 -1.4021
 1255TIP3    H225257   3.355   3.671   4.678  0.0534  1.1876 -1.3812
 1256TIP3   OH225258   1.691   4.806  12.549  0.2535 -0.1894 -0.1888
 1256TIP3    H125259   1.638   4.736  12.510 -2.0139  1.2438  0.1172
 1256TIP3    H225260   1.739   4.843  12.475  0.1741 -0.9782 -0.6461
 1257TIP3   OH225261   2.718   2.075  16.075  0.0525  0.5791 -0.0390
 1257TIP3    H125262   2.661   2.119  16.011 -0.4885 -0.0845 -0.0236
 1257TIP3    H225263   2.707   1.982  16.057  1.5005  0.4520 -0.3302
 1258TIP3   OH225264   2.819   5.477   0.891  0.0533  0.8132  0.0800
 1258TIP3    H125265   2.910   5.503   0.874  0.0381  0.5334 -0.4701
 1258TIP3    H225266   2.789   5.443   0.807 -0.0546 -0.5929  0.6714
 1259TIP3   OH225267   4.852   1.685   1.104  0.3094  0.4130 -0.3699
 1259TIP3    H125268   4.779   1.631   1.073 -0.5200 -0.1011  2.2085
 1259TIP3    H225269   4.814   1.740   1.172  2.2376  0.3398  0.8629
 1260TIP3   OH225270   1.660   6.415   4.564  0.0564  0.4586 -0.0628
 1260TIP3    H125271   1.666   6.458   4.479 -1.7203  0.1545 -0.3988
 1260TIP3    H225272   1.637   6.324   4.543  0.6994  0.1077  0.7150
 1261TIP3   OH225273   3.056   6.145  13.349  0.1616  0.1529 -0.0354
 1261TIP3    H125274   3.026   6.217  13.404 -0.8546  0.7299 -1.2910
 1261TIP3    H225275   2.976   6.111  13.308  0.7877 -0.8116 -0.4925
 1262TIP3   OH225276   5.289   0.791  14.962  0.4722 -0.0252 -0.1739
 1262TIP3    H125277   5.353   0.842  14.913 -0.9305  0.9796 -1.0282
 1262TIP3    H225278   5.222   0.854  14.987 -0.8653 -1.2644 -0.5041
 1263TIP3   OH225279   5.173   4.671  16.193  0.2354 -0.2783 -0.2503
 1263TIP3    H125280   5.229   4.609  16.239 -0.9881  0.9358  3.1419
 1263TIP3    H225281   5.193   4.756  16.233  0.7384  1.4013 -3.6517
 1264TIP3   OH225282   6.480   4.335   6.567 -0.4208 -0.2390  0.0983
 1264TIP3    H125283   6.446   4.361   6.653 -1.6217 -0.2368 -0.3574
 1264TIP3    H225284   6.490   4.240   6.573 -0.8320 -0.2840  0.1422
 1265TIP3   OH225285   3.540   1.050  14.530 -0.4389 -0.4165  0.3528
 1265TIP3    H125286   3.631   1.023  14.542 -0.4699 -0.0036  1.6414
 1265TIP3    H225287   3.497   1.026  14.611 -0.8410  1.9050  0.8990
 1266TIP3   OH225288   3.824   0.553   5.332 -0.2221  0.0953  0.1565
 1266TIP3    H125289   3.909   0.530   5.295 -0.7002 -0.9529 -0.3210
 1266TIP3    H225290   3.845   0.590   5.418  0.7285  0.1151 -0.0714
 1267TIP3   OH225291   0.115   2.318   2.146  0.0719  0.1996 -0.6264
 1267TIP3    H125292   0.047   2.294   2.082 -0.1234  0.0805 -0.3739
 1267TIP3    H225293   0.114   2.247   2.210 -0.2985  0.7265 -0.0427
 1268TIP3   OH225294   1.101   1.827   1.426  0.2483  0.4349  0.3154
 1268TIP3    H125295   1.156   1.843   1.503  0.2936  0.3780  0.2951
 1268TIP3    H225296   1.159   1.783   1.364 -0.4255 -1.8169  1.1727
 1269TIP3   OH225297   2.377   2.600   6.030  0.0489 -1.2250  0.0756
 1269TIP3    H125298   2.374   2.552   6.113  0.6142 -1.5330 -0.0812
 1269TIP3    H225299   2.337   2.685   6.051  2.0551 -0.4910  1.2092
 1270TIP3   OH225300   3.662   4.928   6.595  0.0892  0.1030  0.1179
 1270TIP3    H125301   3.710   4.937   6.678  1.4649 -2.2364 -0.3260
 1270TIP3    H225302   3.592   4.866   6.616  0.0360  0.0229 -0.3012
 1271TIP3   OH225303   5.594   3.442  11.698 -0.2004 -0.3771 -0.3900
 1271TIP3    H125304   5.520   3.385  11.719 -1.2542  1.5615  1.4603
 1271TIP3    H225305   5.668   3.405  11.747 -0.1488 -1.7015 -1.4054
 1272TIP3   OH225306   4.573   1.694   4.532  0.1219  0.1342 -0.3453
 1272TIP3    H125307   4.640   1.724   4.470 -0.5430  1.4881 -0.4482
 1272TIP3    H225308   4.619   1.683   4.615  0.4415  1.2749 -0.3629
 1273TIP3   OH225309   5.218   3.117   1.109  0.2579 -0.7161 -0.3756
 1273TIP3    H125310   5.136   3.069   1.097 -0.5601  0.2611  1.0138
 1273TIP3    H225311   5.270   3.061   1.166 -0.1253 -0.6089  0.0914
 1274TIP3   OH225312   2.927   4.750   0.033 -0.1049  0.0912 -0.2284
 1274TIP3    H125313   2.833   4.740   0.048 -0.1318  1.4508  0.7525
 1274TIP3    H225314   2.960   4.791   0.113  1.2248  0.1650 -0.7837
 1275TIP3   OH225315   3.264   4.540   2.772  0.6556 -0.9279 -0.4232
 1275TIP3    H125316   3.347   4.547   2.819  1.5172 -1.5280 -1.7647
 1275TIP3    H225317   3.268   4.609   2.706 -1.2954  1.0508  1.3837
 1276TIP3   OH225318   1.283   3.042  16.619 -0.4565 -0.4068  0.2151
 1276TIP3    H125319   1.350   3.078  16.678 -0.7295 -0.7378  0.7369
 1276TIP3    H225320   1.333   3.012  16.543 -0.0315 -0.4384  0.4991
 1277TIP3   OH225321   2.939   1.292  11.516  0.4983 -0.2540  0.6813
 1277TIP3    H125322   2.847   1.312  11.500  0.1017 -1.5853  1.2284
 1277TIP3    H225323   2.976   1.279  11.428  0.1792  0.2499  0.4652
 1278TIP3   OH225324   6.100   5.248  14.038  0.3441 -0.0791  0.6873
 1278TIP3    H125325   6.039   5.177  14.058  0.4246 -0.3936 -0.1190
 1278TIP3    H225326   6.166   5.207  13.981 -0.0786  0.8309 -0.4868
 1279TIP3   OH225327   2.954   0.059  12.376  0.5534 -0.0782 -0.1701
 1279TIP3    H125328   2.882  -0.002  12.386  1.8048 -1.4196  1.0149
 1279TIP3    H225329   2.920   0.142  12.411 -0.6431 -0.4692 -0.3599
 1280TIP3   OH225330   2.751   1.376   1.639  0.2282  0.2681  0.5813
 1280TIP3    H125331   2.710   1.462   1.639  1.3761  0.8483 -0.0161
 1280TIP3    H225332   2.681   1.315   1.660 -0.9372  1.1999 -0.4768
 1281TIP3   OH225333   5.228   3.776   5.102 -0.0661  0.0366 -0.2217
 1281TIP3    H125334   5.313   3.816   5.121 -0.4228  0.1230  1.3845
 1281TIP3    H225335   5.228   3.696   5.154 -1.3003  0.4850  0.5091
 1282TIP3   OH225336   2.759   3.509  11.951  0.1797 -0.5632 -0.1039
 1282TIP3    H125337   2.706   3.535  11.875 -3.5802 -0.8927  2.1234
 1282TIP3    H225338   2.793   3.422  11.928  0.3062 -0.0776 -1.8954
 1283TIP3   OH225339   0.951   0.342  17.351  0.1436 -0.5275  0.4048
 1283TIP3    H125340   0.881   0.379  17.404 -0.6163 -1.6008  0.1957
 1283TIP3    H225341   0.941   0.247  17.362  1.2680 -0.7077 -0.0147
 1284TIP3   OH225342   3.279   3.681  13.354 -0.2014  0.0918 -0.7004
 1284TIP3    H125343   3.258   3.723  13.437  0.4433 -1.7291  0.4481
 1284TIP3    H225344   3.328   3.746  13.304 -0.3746  1.1182  0.4468
 1285TIP3   OH225345   4.340   6.600  17.183 -0.3477  0.3309  0.3135
 1285TIP3    H125346   4.410   6.543  17.151  0.2244  0.6794  0.9177
 1285TIP3    H225347   4.261   6.567  17.142  0.2159  0.1069 -0.6073
 1286TIP3   OH225348   3.112   4.633   3.895 -0.0115 -0.9854  0.0664
 1286TIP3    H125349   3.129   4.716   3.852  0.6783 -0.3728  1.4549
 1286TIP3    H225350   3.182   4.575   3.863 -0.1121 -0.8530 -0.4059
 1287TIP3   OH225351   3.940   2.680  16.624 -0.4481 -0.7620 -0.1285
 1287TIP3    H125352   4.033   2.679  16.647 -0.4744 -2.3445  0.0669
 1287TIP3    H225353   3.913   2.588  16.634 -1.4323 -0.7949 -2.6131
 1288TIP3   OH225354   2.184   1.019   3.571 -0.5674 -0.0482 -0.3897
 1288TIP3    H125355   2.276   1.024   3.597 -0.5879 -3.4671  0.8808
 1288TIP3    H225356   2.184   1.046   3.479  1.8076 -0.4725 -0.5804
 1289TIP3   OH225357   0.838   0.919  16.257  0.1417 -0.2874  0.5321
 1289TIP3    H125358   0.806   0.896  16.344  4.0529 -1.3146  1.9391
 1289TIP3    H225359   0.818   0.842  16.203  0.1233 -0.8311  1.2963
 1290TIP3   OH225360   5.875   5.376   2.740  0.0230 -0.5390  0.0027
 1290TIP3    H125361   5.952   5.405   2.789  1.0826 -0.7567 -1.4612
 1290TIP3    H225362   5.832   5.456   2.712  1.2383 -0.3381 -1.4278
 1291TIP3   OH225363   0.775   0.014  13.928  0.2020 -0.6725  0.3289
 1291TIP3    H125364   0.737  -0.040  13.998 -0.7814 -1.5474 -0.8407
 1291TIP3    H225365   0.760   0.104  13.956  0.9689 -0.9789  1.8391
 1292TIP3   OH225366   1.831   3.641  12.046 -0.3059  0.7038  0.1326
 1292TIP3    H125367   1.815   3.664  12.138 -0.0033  0.6641  0.1945
 1292TIP3    H225368   1.837   3.546  12.045 -0.2923  0.7052  0.0727
 1293TIP3   OH225369   2.277   1.664  11.450 -0.9631  0.4234 -0.1077
 1293TIP3    H125370   2.328   1.718  11.511 -0.5655 -1.7218  1.5608
 1293TIP3    H225371   2.340   1.638  11.383 -0.2298 -0.7853  1.0042
 1294TIP3   OH225372   6.209   3.118  12.384 -0.6654  0.4306  0.1618
 1294TIP3    H125373   6.260   3.192  12.350 -0.1496 -0.0318 -0.0706
 1294TIP3    H225374   6.183   3.069  12.306 -1.9986  0.9929  0.2244
 1295TIP3   OH225375   3.433   3.165  13.619 -0.1463 -0.1678  0.0094
 1295TIP3    H125376   3.508   3.215  13.651 -0.2883  0.1274 -0.1252
 1295TIP3    H225377   3.388   3.224  13.560 -0.0693 -0.6060 -0.4921
 1296TIP3   OH225378   1.345   2.739   1.198  0.3941 -0.1394 -0.5510
 1296TIP3    H125379   1.401   2.797   1.250 -2.5463  0.1424  2.6342
 1296TIP3    H225380   1.279   2.797   1.160  0.2970 -0.8578 -1.5186
 1297TIP3   OH225381   2.006   4.213  14.548  0.6961 -0.0260 -0.4722
 1297TIP3    H125382   2.033   4.172  14.466  3.3821  0.3802  0.1170
 1297TIP3    H225383   2.016   4.307  14.533 -0.4712  0.1586 -0.1933
 1298TIP3   OH225384   3.204   5.003   0.560 -0.4630 -0.7714  0.2582
 1298TIP3    H125385   3.172   5.033   0.475  0.0044 -0.4565  0.1918
 1298TIP3    H225386   3.237   4.915   0.543  0.1477 -0.4957 -0.0120
 1299TIP3   OH225387   1.817   3.574   5.262 -0.0638  0.0682 -0.3340
 1299TIP3    H125388   1.779   3.594   5.347 -0.5937  1.1548 -0.8057
 1299TIP3    H225389   1.743   3.577   5.201  0.4414  0.1254 -0.9556
 1300TIP3   OH225390   0.279   1.433   5.035 -0.3442  0.1688  0.3068
 1300TIP3    H125391   0.340   1.359   5.037 -0.3677  0.0384 -1.6088
 1300TIP3    H225392   0.333   1.510   5.052  0.2631 -0.0263 -0.6440
 1301TIP3   OH225393   6.662   2.141   4.761 -0.6519 -0.3332 -0.3862
 1301TIP3    H125394   6.645   2.112   4.850  0.7951  2.4127  0.9066
 1301TIP3    H225395   6.663   2.060   4.709 -0.6931 -2.1083  2.1947
 1302TIP3   OH225396   5.766   3.888   4.492  0.6041 -0.3201  0.8054
 1302TIP3    H125397   5.736   3.964   4.542  0.0560 -0.3452  0.5321
 1302TIP3    H225398   5.721   3.896   4.408  0.1145 -1.2252  0.9593
 1303TIP3   OH225399   4.264   5.109   3.816 -0.3544  0.7922 -0.3370
 1303TIP3    H125400   4.278   5.183   3.758  1.7137  0.3062 -0.5380
 1303TIP3    H225401   4.340   5.110   3.875  0.1607 -1.5638 -0.8338
 1304TIP3   OH225402   3.240   3.795   5.590 -0.6176  0.5427  0.4985
 1304TIP3    H125403   3.285   3.879   5.582 -2.3999  1.4552 -0.7679
 1304TIP3    H225404   3.307   3.733   5.618  1.1974  1.9732 -0.5332
 1305TIP3   OH225405   4.838   3.759  15.413 -0.3832  0.1652 -0.8542
 1305TIP3    H125406   4.789   3.681  15.387 -1.8478  0.8327 -0.1936
 1305TIP3    H225407   4.774   3.813  15.459  0.7839  1.4478 -0.6880
 1306TIP3   OH225408   1.241   4.569   2.034 -0.4248  0.2768 -0.3495
 1306TIP3    H125409   1.271   4.489   2.078 -0.8010 -0.3237 -1.1572
 1306TIP3    H225410   1.258   4.553   1.941 -1.8064  0.5540 -0.6695
 1307TIP3   OH225411   0.079   4.083  16.419  0.3672 -0.6776 -0.2623
 1307TIP3    H125412   0.158   4.031  16.404 -0.0300 -0.9358 -1.5159
 1307TIP3    H225413   0.082   4.151  16.352 -0.5077 -0.7318 -0.3623
 1308TIP3   OH225414   6.091   4.970  14.705  0.1546 -0.1197 -0.1776
 1308TIP3    H125415   6.186   4.958  14.710 -0.0146 -1.4069  0.1092
 1308TIP3    H225416   6.058   4.942  14.790 -0.5050  0.2023 -0.3165
 1309TIP3   OH225417   3.735   2.726   4.870  0.1545  0.3527  0.3982
 1309TIP3    H125418   3.736   2.671   4.791  2.4609  1.3811 -0.3873
 1309TIP3    H225419   3.662   2.692   4.922 -1.7604 -0.1098 -2.3282
 1310TIP3   OH225420   3.526   1.132  15.663  0.2418  0.1836  0.4970
 1310TIP3    H125421   3.606   1.122  15.715  1.7486  2.2338 -1.2206
 1310TIP3    H225422   3.556   1.176  15.583 -2.1424 -1.6627 -1.5529
 1311TIP3   OH225423   2.582   4.142   1.954 -0.2289 -0.2672 -0.1050
 1311TIP3    H125424   2.490   4.118   1.965 -0.5023  0.9834  0.5525
 1311TIP3    H225425   2.594   4.148   1.859 -1.2961  1.1400 -0.1861
 1312TIP3   OH225426   3.337   4.410  17.332 -0.0147  0.8317  0.0316
 1312TIP3    H125427   3.370   4.374  17.250  0.4491 -0.2049  0.6677
 1312TIP3    H225428   3.242   4.396  17.328 -0.0637  1.3010 -0.5666
 1313TIP3   OH225429   1.855   6.617  12.278  0.3118  0.1400 -0.0196
 1313TIP3    H125430   1.920   6.645  12.213  0.4340  0.0836  0.0789
 1313TIP3    H225431   1.886   6.653  12.361  0.5468 -0.3929  0.1333
 1314TIP3   OH225432   3.166   2.816  15.744  0.7028  0.0759 -0.0969
 1314TIP3    H125433   3.134   2.753  15.679  2.9846 -0.6028 -0.6668
 1314TIP3    H225434   3.168   2.768  15.826  1.5780 -0.3363 -0.3498
 1315TIP3   OH225435   6.774   3.649  12.238  0.1881 -0.1593 -0.8731
 1315TIP3    H125436   6.774   3.556  12.258 -0.5753 -0.6107 -2.7930
 1315TIP3    H225437   6.848   3.684  12.288  0.5940 -1.8083 -0.2541
 1316TIP3   OH225438   3.443   0.159  12.823 -0.0536 -0.4967  0.3580
 1316TIP3    H125439   3.358   0.151  12.866 -0.1912 -0.2340  0.1392
 1316TIP3    H225440   3.500   0.199  12.888 -0.2544 -0.1256  0.3101
 1317TIP3   OH225441   3.588   2.850  15.208  0.1325 -0.1947  0.2666
 1317TIP3    H125442   3.546   2.863  15.293  1.3280  0.5869  0.7508
 1317TIP3    H225443   3.680   2.868  15.223  0.3109  0.3446 -1.2872
 1318TIP3   OH225444   6.460   5.595  12.419  0.3425  0.5096  0.5668
 1318TIP3    H125445   6.462   5.691  12.427  1.2698  0.3985  1.9261
 1318TIP3    H225446   6.380   5.577  12.370  0.1382  1.9786  0.3098
 1319TIP3   OH225447   5.641   2.201  15.012  0.1543 -0.3442  0.1071
 1319TIP3    H125448   5.601   2.184  14.927  0.1073  3.2356 -0.7329
 1319TIP3    H225449   5.600   2.282  15.043 -0.0968 -1.6647  3.7843
 1320TIP3   OH225450   0.830   1.551  12.891 -0.0065  0.1580 -0.1130
 1320TIP3    H125451   0.816   1.476  12.950  0.0657  1.3295  1.4664
 1320TIP3    H225452   0.919   1.538  12.857 -0.1868 -0.7376 -0.2757
 1321TIP3   OH225453   4.536   2.112   1.616 -0.0588  0.3164 -0.7163
 1321TIP3    H125454   4.461   2.166   1.640 -1.5835 -1.5942 -0.9364
 1321TIP3    H225455   4.527   2.097   1.522  1.4079  1.1866 -1.0324
 1322TIP3   OH225456   5.964   3.241  12.365  0.7057 -0.1003 -0.0793
 1322TIP3    H125457   5.926   3.153  12.361 -0.7948  0.5289 -0.6220
 1322TIP3    H225458   6.043   3.231  12.418  0.1782 -1.6332  0.4751
 1323TIP3   OH225459   6.627   5.077   0.576  0.1348  0.0364  0.7152
 1323TIP3    H125460   6.542   5.098   0.538 -0.2924  0.9200  2.0918
 1323TIP3    H225461   6.652   4.994   0.534  0.1402  1.3540 -2.0952
 1324TIP3   OH225462   2.803   3.774   2.875 -0.0685  0.5892 -0.4053
 1324TIP3    H125463   2.861   3.716   2.825  0.9557  1.3622 -0.1387
 1324TIP3    H225464   2.731   3.717   2.902  0.5417 -0.3922 -0.7773
 1325TIP3   OH225465   2.378   6.625   6.622  0.0966 -0.4184  0.1157
 1325TIP3    H125466   2.417   6.550   6.577  0.4767  0.1255 -0.4909
 1325TIP3    H225467   2.291   6.596   6.647 -0.7751 -0.2664 -2.3924
 1326TIP3   OH225468   2.758   2.710   3.128  0.1657 -0.0596  0.4099
 1326TIP3    H125469   2.725   2.626   3.161  0.3898 -0.4718 -0.3785
 1326TIP3    H225470   2.827   2.734   3.189  1.6176 -1.5601 -0.5610
 1327TIP3   OH225471   5.686   2.690   4.154 -0.6664 -0.4132 -0.1658
 1327TIP3    H125472   5.683   2.595   4.163 -1.4574 -0.6946 -2.7632
 1327TIP3    H225473   5.595   2.718   4.163 -0.4354  0.1493  0.6241
 1328TIP3   OH225474   4.718   5.242   0.927  0.1498  0.4821  0.0959
 1328TIP3    H125475   4.623   5.229   0.915  0.0401  0.4507  0.9144
 1328TIP3    H225476   4.725   5.302   1.001  0.7709  0.4531  0.0665
 1329TIP3   OH225477   3.132   3.890  12.691  0.3905 -0.1498  0.0890
 1329TIP3    H125478   3.215   3.859  12.727  0.6787  0.0584 -0.3737
 1329TIP3    H225479   3.065   3.854  12.749  0.8536  0.4326  1.0072
 1330TIP3   OH225480   4.122   3.550  16.653 -0.0260 -0.1577 -0.3441
 1330TIP3    H125481   4.124   3.641  16.624  1.8012 -0.3977 -1.1995
 1330TIP3    H225482   4.143   3.500  16.573 -0.5188 -1.2889  0.2144
 1331TIP3   OH225483   4.435   6.074  16.581  0.2038  0.2390 -0.3221
 1331TIP3    H125484   4.451   6.011  16.511  4.3507  0.6941 -0.0599
 1331TIP3    H225485   4.465   6.030  16.660 -0.7045  1.1194  0.5349
 1332TIP3   OH225486   0.612   5.051  12.721 -0.0796  0.1374 -0.3472
 1332TIP3    H125487   0.697   5.089  12.745 -0.0793 -0.5186  0.7503
 1332TIP3    H225488   0.577   5.018  12.804 -0.7533 -0.9004 -1.0351
 1333TIP3   OH225489   0.953   1.245   3.298  0.3168  0.0907  0.1384
 1333TIP3    H125490   0.929   1.190   3.372  0.2553 -0.0386  0.0212
 1333TIP3    H225491   1.010   1.312   3.336  0.3833 -0.0466  0.2807
 1334TIP3   OH225492   5.166   2.471   4.758  0.2766 -0.0455  0.2193
 1334TIP3    H125493   5.254   2.438   4.778  0.4345 -0.3187 -0.8632
 1334TIP3    H225494   5.138   2.514   4.839  1.5722  0.4127  0.4558
 1335TIP3   OH225495   2.677   4.088  17.062  0.4018 -0.2740  0.1616
 1335TIP3    H125496   2.618   4.161  17.082  0.2745 -0.4398  0.4027
 1335TIP3    H225497   2.655   4.064  16.972  1.6460  1.1146 -0.5640
 1336TIP3   OH225498   3.652   0.058   4.686  0.0904 -0.2232  0.1411
 1336TIP3    H125499   3.558   0.071   4.691  0.1340  2.3007 -2.6987
 1336TIP3    H225500   3.663  -0.013   4.623  0.1526 -1.4936  1.5192
 1337TIP3   OH225501   4.492   6.097   1.372  0.0587 -0.2966  0.2022
 1337TIP3    H125502   4.493   6.144   1.289 -1.1819 -1.1688 -0.3473
 1337TIP3    H225503   4.475   6.165   1.437 -2.3145  0.0169 -0.6344
 1338TIP3   OH225504   2.431   2.236   5.436  0.5152 -0.3104  0.1549
 1338TIP3    H125505   2.413   2.281   5.518  0.0074  0.4810 -0.3753
 1338TIP3    H225506   2.483   2.298   5.385  1.8592 -1.2459  0.3230
 1339TIP3   OH225507   0.798   0.429  15.982 -0.2056 -0.3422 -0.1421
 1339TIP3    H125508   0.758   0.355  16.027  0.0242 -0.5511 -0.2767
 1339TIP3    H225509   0.892   0.415  15.992 -0.1459 -0.5511 -0.9277
 1340TIP3   OH225510   5.002   3.101   5.325  0.4891  0.2662  0.1469
 1340TIP3    H125511   4.912   3.119   5.299  0.3817 -0.6686 -0.1590
 1340TIP3    H225512   5.018   3.011   5.296  1.5492  0.4516  0.1045
 1341TIP3   OH225513   5.652   1.261  13.343  0.5148  0.2631  0.6514
 1341TIP3    H125514   5.672   1.325  13.275 -3.2549  1.5513  0.5563
 1341TIP3    H225515   5.646   1.177  13.296  0.2051  0.7615 -0.2151
 1342TIP3   OH225516   4.624   4.113  17.324 -0.0397 -0.1938 -0.2594
 1342TIP3    H125517   4.604   4.200  17.358  1.6410 -0.1959  0.8107
 1342TIP3    H225518   4.558   4.099  17.256 -2.1087  0.7374  1.4459
 1343TIP3   OH225519   4.246   2.447  16.892  0.5162  0.1333  0.4403
 1343TIP3    H125520   4.188   2.378  16.861  0.8503  0.7856 -1.8252
 1343TIP3    H225521   4.239   2.444  16.987 -3.9083  0.7325  0.3420
 1344TIP3   OH225522   3.087   2.757   4.248 -0.4671 -0.2899  0.0221
 1344TIP3    H125523   3.091   2.678   4.193 -0.0375 -0.2477 -0.0156
 1344TIP3    H225524   3.179   2.779   4.264 -0.5785  0.5990 -0.5289
 1345TIP3   OH225525   3.213   4.184   1.451 -0.5281  0.0415  0.3743
 1345TIP3    H125526   3.152   4.188   1.526 -1.0234  0.1311 -0.0292
 1345TIP3    H225527   3.166   4.131   1.386 -0.1042 -0.0176  0.1178
 1346TIP3   OH225528   0.893   0.786   4.369 -0.0154 -0.4843  0.1389
 1346TIP3    H125529   0.873   0.871   4.409 -0.7972 -0.5437 -0.1175
 1346TIP3    H225530   0.845   0.786   4.287  0.9863 -0.6750 -0.4609
 1347TIP3   OH225531   4.808   3.528   4.616  0.2076  0.1189  0.6553
 1347TIP3    H125532   4.747   3.593   4.651 -1.3570 -0.7672 -0.3034
 1347TIP3    H225533   4.773   3.444   4.643  1.9745 -0.4003  1.5101
 1348TIP3   OH225534   0.772   6.740  16.608  0.6287 -0.2697 -0.0526
 1348TIP3    H125535   0.724   6.801  16.550  0.9723  0.8360  0.7975
 1348TIP3    H225536   0.704   6.681  16.641  0.4795 -1.1747 -1.8564
 1349TIP3   OH225537   6.182   1.075  16.878 -0.2034 -0.2344 -0.3052
 1349TIP3    H125538   6.179   1.156  16.928  2.7553  0.1994 -0.6324
 1349TIP3    H225539   6.192   1.007  16.945  0.5488  0.0222 -0.1444
 1350TIP3   OH225540   6.135   6.467   2.779  0.3249  0.0714 -0.1270
 1350TIP3    H125541   6.170   6.549   2.743  0.1822  0.3808  0.4357
 1350TIP3    H225542   6.164   6.400   2.717  0.3603  0.5571 -0.6463
 1351TIP3   OH225543   5.972   5.939  12.131 -0.3909 -0.5757 -0.2020
 1351TIP3    H125544   5.972   5.875  12.202  1.2447 -0.1243  0.2310
 1351TIP3    H225545   6.056   5.928  12.087 -0.0099  1.3456 -0.0431
 1352TIP3   OH225546   2.614   6.223  17.399 -0.2630 -0.5638 -0.2793
 1352TIP3    H125547   2.667   6.147  17.377 -0.0336 -0.5967  0.3591
 1352TIP3    H225548   2.559   6.237  17.322 -1.6523 -2.4992  0.2965
 1353TIP3   OH225549   5.577   6.189  13.441  0.4756 -0.2620 -0.3729
 1353TIP3    H125550   5.488   6.164  13.414  0.7252 -0.3681 -1.1285
 1353TIP3    H225551   5.574   6.285  13.446 -0.0626 -0.3325  1.0180
 1354TIP3   OH225552   3.528   1.954  13.334  0.5491  0.5549  0.1539
 1354TIP3    H125553   3.488   1.867  13.338  1.8217 -0.0793 -0.4530
 1354TIP3    H225554   3.581   1.952  13.255  2.1805  1.1767  1.1963
 1355TIP3   OH225555   0.930   4.516  11.190  0.4635 -0.0814 -0.3561
 1355TIP3    H125556   0.864   4.498  11.258  0.3680  1.0576 -0.1306
 1355TIP3    H225557   0.992   4.443  11.198  0.0426 -0.3701  0.4519
 1356TIP3   OH225558   6.364   5.026   1.425  0.6224  0.2032 -0.2563
 1356TIP3    H125559   6.429   4.967   1.386  0.7637 -0.1935  0.5685
 1356TIP3    H225560   6.310   4.969   1.480 -0.1129  0.6163 -0.5381
 1357TIP3   OH225561   0.765   3.297   6.098 -0.3801  0.1676 -0.3029
 1357TIP3    H125562   0.712   3.372   6.071 -0.3274  0.7234  1.0498
 1357TIP3    H225563   0.854   3.331   6.101 -0.1215 -0.4006 -1.2611
 1358TIP3   OH225564   0.250   6.480  13.048  0.5688  0.5767 -0.1037
 1358TIP3    H125565   0.333   6.500  13.091  0.1921  2.7775 -0.2874
 1358TIP3    H225566   0.220   6.564  13.014 -1.6489 -0.1956 -0.2117
 1359TIP3   OH225567   4.924   2.230   0.729  0.3890 -0.2845  1.1175
 1359TIP3    H125568   4.976   2.268   0.659  1.4195 -1.5688  1.1475
 1359TIP3    H225569   4.954   2.276   0.808  1.1554 -0.6786  1.0669
 1360TIP3   OH225570   2.284   0.555  12.585  0.5254 -0.1113 -0.3195
 1360TIP3    H125571   2.368   0.511  12.570  0.4291  0.1879 -1.8925
 1360TIP3    H225572   2.297   0.643  12.548 -0.6551 -0.2553 -1.1186
 1361TIP3   OH225573   4.654   2.824   6.688 -0.6910  0.2295 -0.2674
 1361TIP3    H125574   4.562   2.849   6.691 -1.0590 -1.1322  1.1586
 1361TIP3    H225575   4.665   2.784   6.602 -0.3349  3.9578 -2.1954
 1362TIP3   OH225576   6.378   1.352  16.691 -0.0019 -0.1812 -0.5299
 1362TIP3    H125577   6.290   1.348  16.729 -0.1645  4.2744  0.0984
 1362TIP3    H225578   6.431   1.298  16.749 -1.6691  0.2152  1.4977
 1363TIP3   OH225579   0.701   5.141   0.966 -0.2009  0.3409  0.0268
 1363TIP3    H125580   0.663   5.135   1.054 -1.8070  0.6389 -0.6185
 1363TIP3    H225581   0.785   5.095   0.973 -1.3733 -1.7829  1.1317
 1364TIP3   OH225582   6.727   6.140   5.187 -0.1758  0.1697  0.3688
 1364TIP3    H125583   6.714   6.235   5.177  0.4847  0.5059  2.2683
 1364TIP3    H225584   6.640   6.106   5.208 -0.4141  0.3478 -0.3004
 1365TIP3   OH225585   5.091   6.095   3.837  0.1919  0.2897 -0.6614
 1365TIP3    H125586   5.107   6.182   3.802  2.3557 -0.0703 -0.7011
 1365TIP3    H225587   5.157   6.084   3.906 -0.7127 -0.9272  0.0586
 1366TIP3   OH225588   4.066   3.281   1.148 -1.2329 -0.0074  0.7306
 1366TIP3    H125589   4.044   3.207   1.205 -1.2615 -0.2723  0.3789
 1366TIP3    H225590   4.117   3.340   1.204 -1.1699 -0.3134  0.9995
 1367TIP3   OH225591   3.322   5.702   0.345 -0.7302 -0.3868  0.5538
 1367TIP3    H125592   3.255   5.707   0.414 -0.5705 -1.4986  0.8086
 1367TIP3    H225593   3.388   5.642   0.380  0.5727  0.9287  0.4328
 1368TIP3   OH225594   1.164   4.795  14.648  0.3320 -0.3133 -0.0071
 1368TIP3    H125595   1.154   4.818  14.741 -0.2263  0.0336 -0.1464
 1368TIP3    H225596   1.137   4.874  14.601 -0.3490 -0.8212 -0.4793
 1369TIP3   OH225597   5.688   0.732   3.940  0.2038 -0.4705  0.1959
 1369TIP3    H125598   5.699   0.809   3.995  0.1635  1.0909 -1.8439
 1369TIP3    H225599   5.593   0.722   3.930  0.2196  0.1545 -0.7195
 1370TIP3   OH225600   3.956   1.094   2.589 -0.0702 -0.4829  0.2563
 1370TIP3    H125601   3.913   1.065   2.669  0.7838 -0.2507  0.8177
 1370TIP3    H225602   3.956   1.190   2.596 -1.0853 -0.4070 -0.6170
 1371TIP3   OH225603   5.649   2.961  13.757  0.5303  0.3557  0.6561
 1371TIP3    H125604   5.644   3.025  13.687  1.3987 -0.8451 -0.5662
 1371TIP3    H225605   5.734   2.976  13.799  1.6219 -1.1395 -0.8737
 1372TIP3   OH225606   2.073   4.231  17.203  0.3185 -0.1214  0.3824
 1372TIP3    H125607   2.003   4.226  17.138  0.7625  0.2441 -0.1258
 1372TIP3    H225608   2.103   4.321  17.200  0.7342 -0.2460  0.6889
 1373TIP3   OH225609   5.205   2.781  15.580  0.3467  0.2672 -0.0522
 1373TIP3    H125610   5.192   2.754  15.671  1.4916 -0.8167 -0.1937
 1373TIP3    H225611   5.294   2.755  15.559 -0.8708 -2.5824 -2.4950
 1374TIP3   OH225612   0.689   4.374   5.008 -0.0599  0.5210 -0.4723
 1374TIP3    H125613   0.752   4.308   5.035  1.1007  1.2042 -1.3784
 1374TIP3    H225614   0.609   4.325   4.991 -0.1772 -0.2159  1.8653
 1375TIP3   OH225615   3.090   3.617   0.188 -0.2760 -0.3086  0.1768
 1375TIP3    H125616   3.149   3.676   0.236 -0.6534 -0.0438  0.3192
 1375TIP3    H225617   3.024   3.591   0.252 -0.4976 -0.3485 -0.0659
 1376TIP3   OH225618   0.339   6.203   2.520  0.3667 -0.9189 -0.1643
 1376TIP3    H125619   0.310   6.143   2.588 -0.4217 -0.3411  0.0297
 1376TIP3    H225620   0.386   6.148   2.457  0.8362 -1.5043  0.6816
 1377TIP3   OH225621   5.292   2.683  15.026  0.6105  0.1290  0.6321
 1377TIP3    H125622   5.312   2.590  15.034  0.4635 -0.0033 -0.4062
 1377TIP3    H225623   5.226   2.699  15.094  2.9971  0.2499  3.0660
 1378TIP3   OH225624   2.684   2.192   2.928  0.6128  0.0916  0.2650
 1378TIP3    H125625   2.704   2.124   2.992 -0.9928 -0.5032  0.1985
 1378TIP3    H225626   2.666   2.144   2.847 -0.0854  0.6151  0.0992
 1379TIP3   OH225627   4.009   1.668  14.903 -0.5737  0.0405  0.0142
 1379TIP3    H125628   4.101   1.643  14.888 -1.3225 -2.5587 -0.8977
 1379TIP3    H225629   3.968   1.657  14.818 -2.0966 -0.7726  0.8183
 1380TIP3   OH225630   2.275   2.368  15.337  0.6014 -0.3620  0.3048
 1380TIP3    H125631   2.221   2.371  15.416 -0.1041  1.5413 -0.1964
 1380TIP3    H225632   2.280   2.459  15.308  2.6126 -0.7285 -0.6800
 1381TIP3   OH225633   2.175   4.167   5.437 -0.0524  0.0416  0.0671
 1381TIP3    H125634   2.081   4.170   5.421  0.1426 -0.9292 -1.4335
 1381TIP3    H225635   2.201   4.259   5.443 -1.1082  0.3174  0.7439
 1382TIP3   OH225636   3.474   3.666   1.546  0.2155  0.5877 -0.0617
 1382TIP3    H125637   3.414   3.595   1.521 -2.1902  2.0594  1.1023
 1382TIP3    H225638   3.516   3.691   1.463  1.4673 -2.3664 -0.4384
 1383TIP3   OH225639   6.521   2.495   3.075 -0.1164 -0.5331 -0.4113
 1383TIP3    H125640   6.435   2.534   3.061 -0.1658 -0.2689  0.5384
 1383TIP3    H225641   6.555   2.477   2.988 -0.9123 -0.1455 -0.8022
 1384TIP3   OH225642   1.280   3.189  13.295  0.0232  0.1659  0.4017
 1384TIP3    H125643   1.315   3.255  13.235  0.8802 -0.0607  0.6422
 1384TIP3    H225644   1.330   3.201  13.376 -1.8538  1.2055  1.4798
 1385TIP3   OH225645   6.380   4.034  11.793  0.4170  0.4518  0.4540
 1385TIP3    H125646   6.416   4.123  11.797  0.9579  0.2800 -0.2267
 1385TIP3    H225647   6.418   3.990  11.869 -0.5363  1.0236  1.2943
 1386TIP3   OH225648   1.314   1.348   2.123  0.6441  0.0242  0.1846
 1386TIP3    H125649   1.352   1.279   2.178 -1.9308 -0.8909  0.9939
 1386TIP3    H225650   1.307   1.424   2.181  1.2870  0.2165  0.0123
 1387TIP3   OH225651   4.555   5.364   2.624  0.1651  0.4488  0.5061
 1387TIP3    H125652   4.596   5.300   2.681  0.7723 -0.9727 -1.4414
 1387TIP3    H225653   4.488   5.405   2.679  1.2474 -0.2537  2.4533
 1388TIP3   OH225654   4.645   0.269  16.392 -0.3679  0.4563  0.0565
 1388TIP3    H125655   4.640   0.293  16.485 -1.8798  1.0181 -0.1419
 1388TIP3    H225656   4.688   0.183  16.392  1.1956  1.1860  1.1149
 1389TIP3   OH225657   1.609   0.462   0.772 -0.3679 -0.2721  0.5734
 1389TIP3    H125658   1.612   0.557   0.764 -0.9749 -0.1768  1.3566
 1389TIP3    H225659   1.561   0.446   0.853 -0.2366 -1.2480  0.4747
 1390TIP3   OH225660   1.299   6.467  11.811 -0.7543 -0.0287 -0.3355
 1390TIP3    H125661   1.335   6.492  11.726 -1.5605  0.9179 -0.4115
 1390TIP3    H225662   1.369   6.489  11.873 -0.5484  0.2290 -0.6517
 1391TIP3   OH225663   3.238   6.647  17.394  0.1737  1.1127  0.4056
 1391TIP3    H125664   3.251   6.585  17.466  0.4279  0.3660 -0.2668
 1391TIP3    H225665   3.144   6.646  17.377  0.1955  0.8157  0.3091
 1392TIP3   OH225666   1.272   2.334   3.776  0.7712  0.1450  0.0527
 1392TIP3    H125667   1.269   2.412   3.721  0.0772 -0.3523 -0.6442
 1392TIP3    H225668   1.365   2.310   3.778  1.1372  1.5627  1.1355
 1393TIP3   OH225669   5.808   0.148   0.347  0.1687 -0.6425  0.0250
 1393TIP3    H125670   5.841   0.185   0.429 -0.1215 -1.0006  0.3053
 1393TIP3    H225671   5.737   0.091   0.373  0.1438 -0.8450 -0.4719
 1394TIP3   OH225672   3.725   3.064  16.415 -0.0399  0.3608 -0.6224
 1394TIP3    H125673   3.770   2.984  16.444  1.4555  0.7888 -1.6385
 1394TIP3    H225674   3.684   3.099  16.494  0.2538 -0.7905  0.0649
 1395TIP3   OH225675   3.615   6.720  12.755 -0.0573 -0.7790  0.0429
 1395TIP3    H125676   3.587   6.683  12.672 -1.8862  0.4992  0.0173
 1395TIP3    H225677   3.538   6.767  12.787  1.4482  1.1407  1.0787
 1396TIP3   OH225678   1.056   0.767  14.391 -0.3600  0.6436 -0.2278
 1396TIP3    H125679   1.131   0.750  14.447  0.1019 -0.0041 -1.0217
 1396TIP3    H225680   1.034   0.859  14.407  1.3753  1.2048 -0.8911
 1397TIP3   OH225681   2.216   1.914   3.863 -0.4011  0.0740  0.0706
 1397TIP3    H125682   2.227   1.828   3.903  0.1002  0.6698  1.2832
 1397TIP3    H225683   2.299   1.931   3.819 -1.0982 -0.7626 -1.6850
 1398TIP3   OH225684   5.268   0.410  15.590 -0.0897  0.4034  0.1309
 1398TIP3    H125685   5.190   0.439  15.542 -0.0016 -0.4429 -0.5432
 1398TIP3    H225686   5.235   0.385  15.676 -0.6450 -0.3987 -0.3052
 1399TIP3   OH225687   3.578   4.187   4.436  0.0624 -0.4990  0.5076
 1399TIP3    H125688   3.501   4.240   4.415  0.2144  0.0393  1.2707
 1399TIP3    H225689   3.590   4.130   4.359 -1.4449 -1.0170  0.6253
 1400TIP3   OH225690   5.619   4.578   5.805  0.1414 -0.5737 -0.1979
 1400TIP3    H125691   5.675   4.629   5.863  1.1655 -1.7651 -0.1001
 1400TIP3    H225692   5.660   4.585   5.719  0.3620 -1.3123 -0.1591
 1401TIP3   OH225693   5.802   3.497   5.399 -0.2628  0.6156  0.4360
 1401TIP3    H125694   5.814   3.488   5.494  0.5118  0.1759  0.3005
 1401TIP3    H225695   5.890   3.502   5.364 -0.2778 -3.4581 -0.6837
 1402TIP3   OH225696   0.986   1.459  14.020  0.3383 -0.5100  0.1707
 1402TIP3    H125697   0.976   1.414  14.104 -0.4797 -0.1974  0.2552
 1402TIP3    H225698   1.031   1.396  13.964  2.6820 -0.0346  1.3793
 1403TIP3   OH225699   6.687   2.487  14.652  0.9490 -0.9489  0.3130
 1403TIP3    H125700   6.663   2.489  14.745  3.2267  0.9025  0.9304
 1403TIP3    H225701   6.609   2.452  14.609 -1.4886  1.2881  2.5377
 1404TIP3   OH225702   3.726   3.663  15.104  0.1504  0.5947 -0.6625
 1404TIP3    H125703   3.768   3.711  15.033  1.0447  0.5122 -0.1978
 1404TIP3    H225704   3.754   3.573  15.092 -0.8288  0.3259 -1.0201
 1405TIP3   OH225705   5.114   1.665   3.826 -0.3406 -0.5783 -0.0521
 1405TIP3    H125706   5.084   1.739   3.878 -1.2658 -0.9026 -0.1083
 1405TIP3    H225707   5.125   1.700   3.738 -2.5947 -0.8921 -0.5165
 1406TIP3   OH225708   2.215   5.323  11.751  0.0007 -0.1244  0.5833
 1406TIP3    H125709   2.166   5.310  11.833  0.0262  0.9064  0.7740
 1406TIP3    H225710   2.151   5.361  11.691  0.5614  1.2844  0.8510
 1407TIP3   OH225711   1.782   1.671  14.701 -0.0720  0.3910  0.8464
 1407TIP3    H125712   1.690   1.694  14.714  0.1938  0.5382  2.7584
 1407TIP3    H225713   1.780   1.593  14.647 -1.3954 -0.2318  1.7439
 1408TIP3   OH225714   0.910   1.370   6.215 -0.8428  0.6498  0.1544
 1408TIP3    H125715   0.949   1.282   6.213 -0.7067  0.6918  0.7891
 1408TIP3    H225716   0.817   1.355   6.199 -0.3931  0.6960 -3.1006
 1409TIP3   OH225717   5.644   0.182   3.489  0.3186 -0.0171 -0.3351
 1409TIP3    H125718   5.666   0.166   3.581 -0.6095 -1.6629 -0.3639
 1409TIP3    H225719   5.729   0.196   3.447  0.8503 -0.4786  0.5500
 1410TIP3   OH225720   6.454   5.562   0.981 -0.4098 -0.2092  0.0973
 1410TIP3    H125721   6.414   5.530   0.901 -0.3958 -0.9379  0.3749
 1410TIP3    H225722   6.498   5.643   0.955 -1.7091  0.3995 -0.2954
 1411TIP3   OH225723   4.098   0.859  15.698 -0.0317  0.0331 -0.4125
 1411TIP3    H125724   4.117   0.896  15.784  0.8544 -0.9002 -0.1803
 1411TIP3    H225725   4.104   0.764  15.711 -0.2662 -0.1292 -1.4129
 1412TIP3   OH225726   6.181   5.999   3.020 -0.3969 -0.6862  0.2444
 1412TIP3    H125727   6.175   5.913   3.061  0.7368 -0.6719  0.4630
 1412TIP3    H225728   6.117   5.996   2.949  0.4247 -2.1317 -0.4845
 1413TIP3   OH225729   1.447   2.356  13.282  0.0143 -0.4055  0.6886
 1413TIP3    H125730   1.419   2.437  13.239  1.7738  0.1146  0.4518
 1413TIP3    H225731   1.365   2.312  13.305 -1.0035  0.0149 -1.8097
 1414TIP3   OH225732   4.591   3.576   4.783 -0.5972 -0.0039  0.4774
 1414TIP3    H125733   4.535   3.613   4.851 -1.2724 -0.1938  0.0347
 1414TIP3    H225734   4.611   3.487   4.813 -1.3633 -0.2903  0.1712
 1415TIP3   OH225735   3.587   1.272  15.418 -1.1846 -0.0832 -0.4369
 1415TIP3    H125736   3.674   1.253  15.383 -1.3045 -2.8785  0.5007
 1415TIP3    H225737   3.538   1.306  15.343 -0.1823 -1.6702 -1.9064
 1416TIP3   OH225738   4.600   3.134   2.752 -0.2200 -0.5427  0.5770
 1416TIP3    H125739   4.541   3.170   2.818 -0.9641  0.5812 -0.6491
 1416TIP3    H225740   4.551   3.142   2.670  1.4588  0.0138 -0.4113
 1417TIP3   OH225741   2.186   0.607   3.965  0.2789 -0.1702 -0.1690
 1417TIP3    H125742   2.282   0.603   3.964  0.3132  0.0582  1.1199
 1417TIP3    H225743   2.167   0.687   4.014 -0.5864 -0.8858  0.6730
 1418TIP3   OH225744   1.883   2.446   0.374 -0.0041 -0.3891 -0.6721
 1418TIP3    H125745   1.793   2.444   0.407  1.0210  0.0641  2.4843
 1418TIP3    H225746   1.914   2.534   0.393  1.4937 -0.9252 -0.4847
 1419TIP3   OH225747   3.346   0.272   1.309 -0.1895 -0.0229 -0.4266
 1419TIP3    H125748   3.341   0.211   1.382  0.8237  0.6071  0.1872
 1419TIP3    H225749   3.425   0.324   1.326 -1.4509  1.9912 -0.5234
 1420TIP3   OH225750   2.415   4.470  13.278  0.1424 -0.0732 -0.3582
 1420TIP3    H125751   2.447   4.454  13.367  1.2805 -1.3972 -0.9551
 1420TIP3    H225752   2.401   4.382  13.242 -0.7273  0.4492 -1.3446
 1421TIP3   OH225753   0.150   1.280   1.349 -0.2807 -0.3526 -0.7635
 1421TIP3    H125754   0.147   1.358   1.404  1.0892 -1.2152  0.5814
 1421TIP3    H225755   0.218   1.299   1.284  0.7796 -0.7889  0.1882
 1422TIP3   OH225756   2.813   4.083  16.086 -0.3738  0.6349 -0.0722
 1422TIP3    H125757   2.751   4.021  16.048  1.8887 -0.9837 -1.4071
 1422TIP3    H225758   2.878   4.028  16.130  0.6276  2.1801  0.4759
 1423TIP3   OH225759   3.752   3.989   5.813  0.0372 -0.2429  0.1041
 1423TIP3    H125760   3.704   3.920   5.859  1.2639 -1.6829 -0.6566
 1423TIP3    H225761   3.800   4.034   5.882 -0.5931 -0.3066  0.5914
 1424TIP3   OH225762   0.592   6.337  13.916  0.2476 -0.4177 -0.1710
 1424TIP3    H125763   0.503   6.338  13.881 -0.6289  0.8630  1.8936
 1424TIP3    H225764   0.640   6.398  13.860 -1.1305  1.6400  0.7371
 1425TIP3   OH225765   0.699   0.115  16.396 -0.0017  0.2785 -0.2998
 1425TIP3    H125766   0.652   0.198  16.387  0.4378  0.7858  1.6131
 1425TIP3    H225767   0.761   0.114  16.323 -0.2288  1.4737 -0.5305
 1426TIP3   OH225768   3.575   4.491   2.816  0.3842  0.1040 -0.1794
 1426TIP3    H125769   3.648   4.544   2.785 -0.2124  1.0799  0.0405
 1426TIP3    H225770   3.511   4.496   2.745  0.4982 -0.6849 -0.3412
 1427TIP3   OH225771   3.671   5.414  11.510  0.5412 -0.1563 -0.0746
 1427TIP3    H125772   3.580   5.391  11.528 -0.0384  0.1040 -2.3337
 1427TIP3    H225773   3.696   5.470  11.583 -1.2759  0.1952  0.3426
 1428TIP3   OH225774   6.077   0.862  11.911  0.3378 -0.3682  0.0455
 1428TIP3    H125775   6.107   0.948  11.880  0.0436 -0.4855 -0.5855
 1428TIP3    H225776   6.084   0.805  11.834 -2.2316 -0.2126 -0.3859
 1429TIP3   OH225777   1.969   0.875   3.111  0.3118 -0.0727  0.1977
 1429TIP3    H125778   2.032   0.944   3.092  1.4434 -1.4168 -1.1849
 1429TIP3    H225779   1.884   0.919   3.109  1.0139  1.3071 -0.4220
 1430TIP3   OH225780   1.522   1.981  16.396 -0.2780  0.2667 -0.5961
 1430TIP3    H125781   1.474   1.948  16.473  1.4790  0.2884  0.5487
 1430TIP3    H225782   1.614   1.971  16.419  0.3008  2.0029 -1.9787
 1431TIP3   OH225783   2.756   6.300   3.609 -0.2910  0.3802 -0.2764
 1431TIP3    H125784   2.751   6.389   3.577 -0.5482  0.6339  0.4452
 1431TIP3    H225785   2.816   6.305   3.684  0.7568 -0.2985 -1.0476
 1432TIP3   OH225786   1.246   4.187  13.197 -0.0581 -0.0323 -0.3174
 1432TIP3    H125787   1.275   4.193  13.288  0.4567 -0.2785 -0.4593
 1432TIP3    H225788   1.321   4.148  13.151  0.1912  1.3176 -1.0893
 1433TIP3   OH225789   0.361   1.165  11.721  0.0333 -0.4900  0.9561
 1433TIP3    H125790   0.346   1.136  11.631  1.5128  1.0714  0.1481
 1433TIP3    H225791   0.310   1.245  11.730  1.9434  0.8419  0.5670
 1434TIP3   OH225792   4.917   3.271   2.727  0.3884  0.0838 -0.3158
 1434TIP3    H125793   4.973   3.225   2.665 -0.2020  0.8700 -1.4794
 1434TIP3    H225794   4.929   3.364   2.705 -1.1837  0.2749 -0.4389
 1435TIP3   OH225795   0.280   5.584  14.430 -0.3453 -0.3960 -0.7694
 1435TIP3    H125796   0.322   5.666  14.406  0.6397 -0.7211 -0.2312
 1435TIP3    H225797   0.298   5.525  14.357 -0.6451 -0.2770 -0.9417
 1436TIP3   OH225798   2.408   4.910   5.073 -0.0329  0.3319  0.1130
 1436TIP3    H125799   2.336   4.953   5.119  0.2231  0.0789  0.7453
 1436TIP3    H225800   2.467   4.880   5.141  1.0729  1.2113 -0.4137
 1437TIP3   OH225801   1.262   5.609   3.636 -0.1125  0.6652 -0.1486
 1437TIP3    H125802   1.207   5.541   3.676 -0.6037  1.8267  1.2380
 1437TIP3    H225803   1.307   5.650   3.710  1.1323  1.0490 -1.0827
 1438TIP3   OH225804   0.221   0.083   2.589 -0.1093 -0.2367  0.9421
 1438TIP3    H125805   0.299   0.124   2.551 -0.9596 -0.8303 -1.6384
 1438TIP3    H225806   0.236  -0.011   2.578 -1.0182 -0.3687  0.7755
 1439TIP3   OH225807   6.580   4.977  11.407 -0.4327 -0.0887 -0.2788
 1439TIP3    H125808   6.561   5.070  11.392 -2.0495 -0.4337 -0.5037
 1439TIP3    H225809   6.494   4.935  11.413  0.2132 -1.3039  1.6000
 1440TIP3   OH225810   4.657   0.430  12.702 -0.3134  0.3126 -0.1803
 1440TIP3    H125811   4.573   0.464  12.669  0.4815  3.2837  0.5978
 1440TIP3    H225812   4.723   0.482  12.657  0.9279  1.9280  3.2012
 1441TIP3   OH225813   5.633   2.171   3.834  0.4627  0.0587 -0.1746
 1441TIP3    H125814   5.570   2.232   3.871 -0.9741 -1.3460 -0.1730
 1441TIP3    H225815   5.580   2.109   3.784  1.9517 -0.6185 -0.9932
 1442TIP3   OH225816   4.274   6.315  12.260  0.3861 -0.2406  0.8323
 1442TIP3    H125817   4.351   6.365  12.234  0.6220 -0.6653  0.6967
 1442TIP3    H225818   4.231   6.369  12.326  1.6269 -0.6925  2.0379
 1443TIP3   OH225819   3.635   6.058  15.828 -0.3487  0.2399  0.2919
 1443TIP3    H125820   3.629   6.014  15.913 -1.8282 -2.1876 -0.9440
 1443TIP3    H225821   3.718   6.027  15.791 -0.5541 -0.1328  0.1386
 1444TIP3   OH225822   3.532   6.062   2.458 -0.0092  0.1114 -0.1108
 1444TIP3    H125823   3.593   5.993   2.483  0.1253  0.3160  0.1225
 1444TIP3    H225824   3.540   6.068   2.363  0.4436  0.2363 -0.0678
 1445TIP3   OH225825   1.066   2.473  12.401 -0.6209 -0.3898  0.0466
 1445TIP3    H125826   1.108   2.528  12.467 -1.6867  0.0667  0.3662
 1445TIP3    H225827   1.131   2.407  12.379  0.4652  0.6382  0.1012
 1446TIP3   OH225828   1.426   0.070   5.949 -0.3285  0.1909  0.3138
 1446TIP3    H125829   1.450   0.123   6.025 -2.0541  0.1137  0.9420
 1446TIP3    H225830   1.359   0.010   5.980  0.4548 -1.3383 -0.7750
 1447TIP3   OH225831   0.891   2.424  12.060  0.1191  0.4470  0.5084
 1447TIP3    H125832   0.897   2.332  12.034 -0.0646  0.0156  1.9325
 1447TIP3    H225833   0.971   2.464  12.027 -0.0810 -0.0689 -0.6555
 1448TIP3   OH225834   0.942   4.660   0.746 -0.6740  0.6017  0.3916
 1448TIP3    H125835   1.025   4.615   0.764 -0.4879 -0.2797 -2.2399
 1448TIP3    H225836   0.908   4.684   0.832  0.0292 -3.1340  1.8672
 1449TIP3   OH225837   4.157   4.000  14.928 -0.4751 -0.0186  0.0531
 1449TIP3    H125838   4.149   3.978  15.021  0.4914  0.1208  0.1840
 1449TIP3    H225839   4.239   4.049  14.923 -0.7597  0.3689 -0.8063
 1450TIP3   OH225840   2.471   1.208   2.762 -0.3739  0.5808  0.2574
 1450TIP3    H125841   2.388   1.220   2.717  0.9081  1.9168 -1.9256
 1450TIP3    H225842   2.519   1.289   2.747  2.1394 -0.9027 -0.3873
 1451TIP3   OH225843   1.503   2.555  14.526  0.0627  0.4016  0.7724
 1451TIP3    H125844   1.443   2.607  14.472 -0.1554  0.3850  0.9986
 1451TIP3    H225845   1.489   2.587  14.615 -0.4339 -0.3846  0.9849
 1452TIP3   OH225846   2.238   2.975   1.800  0.0830  0.7431 -0.5071
 1452TIP3    H125847   2.147   2.964   1.771  0.5561  0.8943 -2.1551
 1452TIP3    H225848   2.287   2.909   1.751  1.1358  1.9610 -1.1354
 1453TIP3   OH225849   2.288   2.851   6.115 -0.6233 -0.2177 -0.2892
 1453TIP3    H125850   2.290   2.897   6.032 -0.3382 -0.4166 -0.3945
 1453TIP3    H225851   2.206   2.878   6.156 -2.2981 -2.4445 -1.9384
 1454TIP3   OH225852   2.328   0.228  17.288 -0.1008 -0.5088 -0.1841
 1454TIP3    H125853   2.326   0.299  17.223  0.1443 -2.2295 -2.1947
 1454TIP3    H225854   2.421   0.216  17.308  0.2065 -2.2601 -2.2948
 1455TIP3   OH225855   5.689   0.058   6.418  0.7154  0.4418  1.2123
 1455TIP3    H125856   5.622   0.033   6.354  1.3398 -1.8141  1.3551
 1455TIP3    H225857   5.735   0.132   6.378  0.3432 -0.1779 -0.4099
 1456TIP3   OH225858   3.544   4.622  12.001  0.0567  0.2515  0.1445
 1456TIP3    H125859   3.583   4.551  11.950  2.8315  2.5198 -1.1690
 1456TIP3    H225860   3.520   4.687  11.935  2.2967  2.6181  1.5079
 1457TIP3   OH225861   0.350   4.062  13.607  0.0840  0.1671  0.0093
 1457TIP3    H125862   0.287   4.121  13.649 -0.7803  0.8989 -2.2060
 1457TIP3    H225863   0.337   3.979  13.652 -2.5380  0.2729 -0.4122
 1458TIP3   OH225864   6.385   0.749   4.478 -0.3950  0.2940  0.1012
 1458TIP3    H125865   6.314   0.794   4.432 -1.4202 -1.2612  0.0656
 1458TIP3    H225866   6.457   0.747   4.414 -0.9705  0.2769 -0.5637
 1459TIP3   OH225867   2.676   6.048  14.630 -0.4116 -0.2439 -0.9883
 1459TIP3    H125868   2.701   5.962  14.598 -1.4588 -0.1058 -2.2945
 1459TIP3    H225869   2.743   6.107  14.595 -0.6970 -0.3048 -1.6681
 1460TIP3   OH225870   6.642   5.894  14.594 -0.0534 -0.1389 -0.2279
 1460TIP3    H125871   6.626   5.929  14.506 -0.3001 -2.2018 -1.0505
 1460TIP3    H225872   6.723   5.843  14.585  0.3033  0.1913  0.9297
 1461TIP3   OH225873   0.017   1.423  10.875 -0.2155  0.1506 -0.1155
 1461TIP3    H125874  -0.013   1.513  10.865 -0.1119  0.0610 -1.3905
 1461TIP3    H225875  -0.015   1.378  10.797 -0.2726 -0.9256  0.5103
 1462TIP3   OH225876   6.243   5.873  12.258  0.3873  0.3017 -0.5448
 1462TIP3    H125877   6.253   5.950  12.313  2.7240  0.9487 -1.7194
 1462TIP3    H225878   6.202   5.807  12.314  0.6309  1.6114  1.2365
 1463TIP3   OH225879   2.270   2.288   1.243  0.0401  0.2278  0.7131
 1463TIP3    H125880   2.264   2.337   1.161 -0.0403 -0.1985  0.4567
 1463TIP3    H225881   2.187   2.303   1.287  0.5582  1.4629  1.3042
 1464TIP3   OH225882   4.930   0.488   4.157 -0.2716  0.1321 -0.8138
 1464TIP3    H125883   5.002   0.467   4.217 -0.2618 -0.6152 -1.0769
 1464TIP3    H225884   4.852   0.454   4.200 -0.2741 -0.3376 -1.1824
 1465TIP3   OH225885   6.028   6.377   0.555  0.0985  0.1492 -0.5951
 1465TIP3    H125886   6.109   6.329   0.536 -0.5709 -0.6726 -1.4632
 1465TIP3    H225887   6.006   6.350   0.645  0.6083  0.1310 -0.4678
 1466TIP3   OH225888   4.203   5.354   4.250  0.4864  0.1868  0.0289
 1466TIP3    H125889   4.263   5.285   4.222 -1.7569 -1.8752 -0.0044
 1466TIP3    H225890   4.257   5.412   4.304  2.4055 -1.8056  0.3869
 1467TIP3   OH225891   5.139   1.909   5.704 -0.1529  0.0896  0.5995
 1467TIP3    H125892   5.162   1.935   5.615  0.6045 -0.5697  0.5852
 1467TIP3    H225893   5.182   1.824   5.715  0.0654  0.3377  1.7221
 1468TIP3   OH225894   4.507   5.191  11.424  0.7768 -0.1111  0.0311
 1468TIP3    H125895   4.438   5.245  11.385 -0.1393 -0.5002  1.0635
 1468TIP3    H225896   4.536   5.239  11.501  2.1509  0.3564 -0.7393
 1469TIP3   OH225897   5.047   4.152   3.085  0.8707  0.4765  0.9645
 1469TIP3    H125898   5.007   4.069   3.061 -0.2651  0.9593  1.1364
 1469TIP3    H225899   5.079   4.188   3.002  2.7279 -0.7864  1.0698
 1470TIP3   OH225900   0.356   4.715   1.576 -0.7162  0.0044 -0.2270
 1470TIP3    H125901   0.371   4.753   1.662  0.7834  2.0867 -1.3369
 1470TIP3    H225902   0.270   4.747   1.550 -1.3521 -0.9592  0.6249
 1471TIP3   OH225903   5.852   2.696  15.474  0.4816  0.8164  0.1082
 1471TIP3    H125904   5.936   2.738  15.490 -0.2264  2.2339  0.3038
 1471TIP3    H225905   5.849   2.682  15.380  0.6973  1.3275  0.0215
 1472TIP3   OH225906   1.377   5.424   4.518  0.9654 -0.1036  0.3408
 1472TIP3    H125907   1.372   5.515   4.550  0.0252  0.4628 -1.3296
 1472TIP3    H225908   1.366   5.371   4.597 -1.8281  1.2440  0.9934
 1473TIP3   OH225909   0.801   0.618   2.829  0.3265 -0.6299 -0.5282
 1473TIP3    H125910   0.884   0.620   2.875  0.7959  3.0805 -1.2211
 1473TIP3    H225911   0.739   0.582   2.893  1.9851 -1.1631  0.8495
 1474TIP3   OH225912   4.112   6.363   0.798  0.4463 -0.0464  0.1653
 1474TIP3    H125913   4.063   6.282   0.809 -1.1017  0.4737 -2.1916
 1474TIP3    H225914   4.063   6.427   0.850 -0.6043  0.1528 -1.0178
 1475TIP3   OH225915   0.072   1.383   0.900 -0.6359  0.1932 -0.5741
 1475TIP3    H125916   0.046   1.433   0.977 -0.7816  1.2482 -1.2923
 1475TIP3    H225917  -0.008   1.339   0.872 -0.0174 -2.4892  1.4685
 1476TIP3   OH225918   4.389   0.805   5.718 -0.5288  0.1690 -0.3006
 1476TIP3    H125919   4.322   0.757   5.764 -1.6721  2.5166  0.6683
 1476TIP3    H225920   4.354   0.817   5.629 -0.5098 -0.2460 -0.3646
 1477TIP3   OH225921   4.754   2.541  16.529  0.0942 -0.0933  0.5883
 1477TIP3    H125922   4.693   2.481  16.486  0.0526 -0.3352  0.9795
 1477TIP3    H225923   4.841   2.506  16.511  0.1082  0.1376  0.2025
 1478TIP3   OH225924   3.771   4.725  13.701  0.0375  0.3043 -0.2868
 1478TIP3    H125925   3.804   4.812  13.724 -0.2480  0.5443 -0.7793
 1478TIP3    H225926   3.849   4.669  13.701 -0.0664  0.0297  2.3752
 1479TIP3   OH225927   5.627   0.096  15.032 -0.5924  0.3559 -0.2605
 1479TIP3    H125928   5.599   0.152  14.959 -2.4221  0.0010  0.1272
 1479TIP3    H225929   5.578   0.015  15.020  0.0507 -0.1807  0.6556
 1480TIP3   OH225930   1.603   0.171   0.886 -0.0102  0.7479  0.3302
 1480TIP3    H125931   1.591   0.084   0.847  0.9741  0.9155 -0.4016
 1480TIP3    H225932   1.597   0.231   0.812  1.0187  1.1482  0.5474
 1481TIP3   OH225933   5.023   1.351  14.425  0.6216  0.3746 -0.4889
 1481TIP3    H125934   4.999   1.442  14.442  2.0887  0.7170 -0.0317
 1481TIP3    H225935   4.992   1.333  14.337 -1.3145  0.7149  0.0919
 1482TIP3   OH225936   0.942   0.881   3.116  0.4066 -0.6356  0.1620
 1482TIP3    H125937   0.894   0.925   3.045  1.2925  0.3290  0.1358
 1482TIP3    H225938   0.941   0.789   3.092 -2.1224 -0.7836  0.5717
 1483TIP3   OH225939   0.335   3.506   0.614 -0.4093 -0.2382 -0.0072
 1483TIP3    H125940   0.262   3.541   0.563  0.4492  1.8426  0.1036
 1483TIP3    H225941   0.409   3.509   0.554  0.4811  1.6677  1.1132
 1484TIP3   OH225942   4.761   1.888   3.994 -0.4845  0.4670 -0.0697
 1484TIP3    H125943   4.743   1.880   3.901 -0.6596 -1.4230  0.0771
 1484TIP3    H225944   4.675   1.896   4.035 -0.6125 -1.3066  0.0875
 1485TIP3   OH225945   3.088   1.577   0.036  0.0711  0.4943  0.3024
 1485TIP3    H125946   3.045   1.498   0.067 -1.7340  1.7106  1.0917
 1485TIP3    H225947   3.130   1.551  -0.046 -2.4271 -0.7841 -0.6924
 1486TIP3   OH225948   1.359   6.345  14.836 -0.1100  0.1664  0.2157
 1486TIP3    H125949   1.448   6.359  14.804 -0.2937  2.9703  0.6584
 1486TIP3    H225950   1.303   6.371  14.763 -0.6130 -1.0575  0.1336
 1487TIP3   OH225951   1.628   1.658  17.287 -0.0732 -0.1906  0.5106
 1487TIP3    H125952   1.691   1.604  17.238  0.1514 -0.0876  0.6816
 1487TIP3    H225953   1.672   1.743  17.296 -0.1128 -0.2076  0.8850
 1488TIP3   OH225954   2.024   2.783  12.707  0.1018  0.1135  0.4211
 1488TIP3    H125955   2.112   2.759  12.676 -0.2762 -1.9261  0.8122
 1488TIP3    H225956   2.017   2.741  12.792 -1.3270  0.1235  0.3204
 1489TIP3   OH225957   0.022   2.210  10.713 -0.5155 -0.5681 -0.4334
 1489TIP3    H125958   0.071   2.129  10.728 -0.6214 -0.3110  1.5145
 1489TIP3    H225959   0.076   2.279  10.753 -0.8603  0.2181 -1.2671
 1490TIP3   OH225960   6.298   2.782   0.706 -0.2390  0.1344 -0.5841
 1490TIP3    H125961   6.331   2.744   0.788  1.8204 -0.6864 -1.7293
 1490TIP3    H225962   6.259   2.708   0.660  0.5943  0.1165 -1.2820
 1491TIP3   OH225963   2.011   2.449  12.304 -0.1275 -0.2706  0.0686
 1491TIP3    H125964   2.045   2.381  12.247  1.1469 -0.2812  0.7922
 1491TIP3    H225965   1.918   2.453  12.284 -0.1692 -1.9783 -0.2244
 1492TIP3   OH225966   2.981   6.042   1.894 -0.5532 -0.6465  0.0386
 1492TIP3    H125967   3.036   6.119   1.910 -0.0054 -0.7676 -1.1334
 1492TIP3    H225968   3.005   6.013   1.806 -1.2379 -1.7656  0.1939
 1493TIP3   OH225969   3.627   5.853  10.843  0.3612 -0.1640  0.8458
 1493TIP3    H125970   3.596   5.770  10.880 -0.8751 -0.3104 -0.4011
 1493TIP3    H225971   3.591   5.920  10.901  1.0535 -0.4775  1.6502
 1494TIP3   OH225972   1.262   0.063  15.936 -0.0734 -0.6204  0.5431
 1494TIP3    H125973   1.296   0.122  16.002  1.0323 -1.2825  0.5865
 1494TIP3    H225974   1.229   0.120  15.867 -1.6860  0.0988  1.8369
 1495TIP3   OH225975   3.933   6.387   3.959 -0.2047 -0.2541 -0.6569
 1495TIP3    H125976   3.949   6.390   3.865  1.5638  0.0703 -0.3849
 1495TIP3    H225977   3.997   6.324   3.992 -1.9881 -1.7706  0.1524
 1496TIP3   OH225978   3.995   3.126   6.682  0.4601 -0.2304  0.1280
 1496TIP3    H125979   3.960   3.102   6.596 -0.8228 -0.3134  0.6532
 1496TIP3    H225980   3.984   3.047   6.735 -0.4930  0.3928  0.8800
 1497TIP3   OH225981   1.429   3.228  15.525 -0.0934  0.3119  0.4724
 1497TIP3    H125982   1.346   3.187  15.546  0.5427 -0.7375  1.0319
 1497TIP3    H225983   1.494   3.176  15.571  0.8040  1.6810  0.8183
 1498TIP3   OH225984   2.792   3.652  15.907  0.2019 -0.1919  0.2353
 1498TIP3    H125985   2.848   3.708  15.960  0.8843 -0.7439  0.1229
 1498TIP3    H225986   2.821   3.563  15.928  0.0022 -0.4420 -0.5230
 1499TIP3   OH225987   4.879   0.908  11.314 -0.7955  0.2343  0.1138
 1499TIP3    H125988   4.949   0.906  11.379 -1.2536 -0.8962  0.5865
 1499TIP3    H225989   4.805   0.947  11.359 -0.6588  0.8960 -0.2150
 1500TIP3   OH225990   3.073   2.522  15.447 -0.3726 -0.3706  0.8178
 1500TIP3    H125991   2.990   2.530  15.401  0.9277 -0.5818 -1.7586
 1500TIP3    H225992   3.091   2.428  15.449  0.6827 -0.2290 -0.4539
 1501TIP3   OH225993   3.238   2.255  14.994 -0.1007 -0.2554  0.5125
 1501TIP3    H125994   3.259   2.232  14.903  0.1953 -0.6153  0.6696
 1501TIP3    H225995   3.154   2.213  15.011  0.2930 -0.9808  0.7012
 1502TIP3   OH225996   4.229   1.945   3.155  0.3003  0.2625  0.5138
 1502TIP3    H125997   4.197   1.887   3.224  0.5123  0.5574  0.8647
 1502TIP3    H225998   4.302   1.992   3.196  0.2414  0.6469  0.1776
 1503TIP3   OH225999   5.859   5.396   0.934  0.2145 -0.9138  0.3623
 1503TIP3    H126000   5.808   5.444   0.868 -0.9100  0.7115  2.3205
 1503TIP3    H226001   5.950   5.423   0.916 -0.1459  0.0873 -0.0758
 1504TIP3   OH226002   2.186   1.330   1.444 -0.3931 -0.1910  0.0266
 1504TIP3    H126003   2.115   1.266   1.433  0.2011 -0.5911 -1.9561
 1504TIP3    H226004   2.146   1.415   1.427 -0.7321 -0.2454  0.5405
 1505TIP3   OH226005   6.587   2.152  11.037 -0.1159  0.0992  0.0921
 1505TIP3    H126006   6.504   2.176  10.996  0.2469 -1.0188 -1.3739
 1505TIP3    H226007   6.564   2.131  11.127 -1.1535  1.3507  0.1524
 1506TIP3   OH226008   4.028   3.361   3.323  0.1977  0.1329  0.0602
 1506TIP3    H126009   4.036   3.397   3.235  0.7426 -0.7241 -0.2555
 1506TIP3    H226010   4.117   3.343   3.351  0.0266  0.3588  0.7783
 1507TIP3   OH226011   5.334   1.057  11.628  0.1450 -0.4178  0.7110
 1507TIP3    H126012   5.320   0.962  11.623  1.1689 -0.8584  3.9366
 1507TIP3    H226013   5.429   1.067  11.629  0.1220  0.9415 -2.0648
 1508TIP3   OH226014   1.100   6.018  14.054  0.3988  0.5370 -0.4037
 1508TIP3    H126015   1.107   5.998  14.147  3.2813  0.4249 -0.5375
 1508TIP3    H226016   1.102   5.933  14.010  0.8210  0.6436 -0.6024
 1509TIP3   OH226017   6.506   2.887  15.446  0.6796  0.1463  0.6548
 1509TIP3    H126018   6.473   2.804  15.482  1.4825 -0.7272 -0.5332
 1509TIP3    H226019   6.564   2.860  15.375  0.9290  1.7506  0.2235
 1510TIP3   OH226020   6.716   3.130   1.689 -1.1135  0.2508 -0.2409
 1510TIP3    H126021   6.803   3.109   1.722 -0.9173  0.7488 -0.4315
 1510TIP3    H226022   6.667   3.158   1.767 -1.6000 -1.5449  0.1473
 1511TIP3   OH226023   0.887   0.375   3.423  0.1704 -0.7434  0.8830
 1511TIP3    H126024   0.862   0.467   3.410 -0.3664 -1.0702 -0.6044
 1511TIP3    H226025   0.933   0.374   3.507  0.0351  0.8518  1.0036
 1512TIP3   OH226026   1.470   0.114   1.159 -0.7826 -0.6595 -0.7136
 1512TIP3    H126027   1.389   0.154   1.190 -1.3975 -0.9015 -1.9329
 1512TIP3    H226028   1.502   0.174   1.092  0.3981 -0.2607  0.1615
 1513TIP3   OH226029   4.450   0.225   3.776 -0.4928 -0.3584 -0.0561
 1513TIP3    H126030   4.360   0.252   3.793 -0.7849 -2.4925  2.4059
 1513TIP3    H226031   4.441   0.144   3.726  0.1726  0.3768 -1.4263
 1514TIP3   OH226032   4.020   5.743   4.845  0.0717 -0.3773 -0.6155
 1514TIP3    H126033   4.069   5.821   4.873  2.0470 -1.5262 -0.6795
 1514TIP3    H226034   3.948   5.778   4.792  0.7444  1.4127 -0.4266
 1515TIP3   OH226035   3.772   6.048  12.612  0.5772 -0.2496  1.0952
 1515TIP3    H126036   3.748   6.132  12.574 -0.2516 -0.8528  0.2403
 1515TIP3    H226037   3.711   6.037  12.686 -0.1703 -0.6479  0.4412
 1516TIP3   OH226038   1.391   5.654   3.288 -0.5677 -0.1382 -0.0300
 1516TIP3    H126039   1.359   5.651   3.198 -1.4348 -1.8213  0.2964
 1516TIP3    H226040   1.397   5.562   3.315 -0.9055  0.3330  1.8156
 1517TIP3   OH226041   0.480   1.143   1.981 -0.1304 -0.1009 -0.2234
 1517TIP3    H126042   0.441   1.168   1.897  1.2545  0.3922 -0.7507
 1517TIP3    H226043   0.557   1.091   1.957  0.8667  0.9037  0.6959
 1518TIP3   OH226044   4.389   3.856  13.472 -0.1209  0.0303 -0.0658
 1518TIP3    H126045   4.393   3.854  13.568  0.9858  0.0434 -0.0940
 1518TIP3    H226046   4.327   3.926  13.451 -2.9002 -2.0368  0.6346
 1519TIP3   OH226047   2.604   0.743   5.637 -0.3194 -0.6325  0.2570
 1519TIP3    H126048   2.650   0.789   5.567 -0.2008  0.2555  0.8838
 1519TIP3    H226049   2.617   0.800   5.714 -1.8176 -0.7497  0.6199
 1520TIP3   OH226050   2.021   1.795   0.250  0.4264 -0.5095 -0.0099
 1520TIP3    H126051   2.112   1.772   0.269  0.8837  1.6949  0.7770
 1520TIP3    H226052   2.027   1.878   0.203 -1.1646 -0.9491 -1.1019
 1521TIP3   OH226053   0.270   2.374  16.977  0.4399 -0.2602  0.2112
 1521TIP3    H126054   0.222   2.299  17.013 -0.3240 -0.0515 -0.3514
 1521TIP3    H226055   0.288   2.429  17.053 -0.9365  0.0555  0.3336
 1522TIP3   OH226056   6.462   1.224   4.081  0.0193 -0.1910  0.0975
 1522TIP3    H126057   6.478   1.318   4.095  2.8881 -0.6967  0.7965
 1522TIP3    H226058   6.472   1.212   3.987 -1.9336  0.3945 -0.2323
 1523TIP3   OH226059   5.055   3.512   3.418 -0.1117 -0.4802  0.0461
 1523TIP3    H126060   4.967   3.493   3.385  0.2875 -1.3518 -0.5395
 1523TIP3    H226061   5.113   3.453   3.370  1.3495  2.7064 -2.4921
 1524TIP3   OH226062   1.356   5.592  12.609  0.0088  0.0211 -0.3517
 1524TIP3    H126063   1.371   5.514  12.663  2.0041 -0.1939 -1.1421
 1524TIP3    H226064   1.443   5.619  12.582 -0.4624  3.4926  1.1390
 1525TIP3   OH226065   1.459   0.018  11.289  0.1185  1.3005 -0.1227
 1525TIP3    H126066   1.504  -0.050  11.339  2.4300  1.8856 -1.2781
 1525TIP3    H226067   1.437   0.085  11.353 -0.3451  0.4023  0.6840
 1526TIP3   OH226068   0.289   0.170  16.667 -0.4299 -0.3476  0.3926
 1526TIP3    H126069   0.343   0.168  16.746  0.3278 -1.8444 -0.1239
 1526TIP3    H226070   0.346   0.205  16.599  0.3545 -2.9360 -0.4091
 1527TIP3   OH226071   0.449   1.955   0.532 -0.2117  0.2746  0.1123
 1527TIP3    H126072   0.465   2.046   0.506 -0.8821  0.8362  1.5177
 1527TIP3    H226073   0.396   1.919   0.461 -2.3326  1.8625  0.7766
 1528TIP3   OH226074   3.739   4.493  14.361  0.5209  0.6762 -0.4795
 1528TIP3    H126075   3.821   4.473  14.407  0.3059  0.9197  0.0215
 1528TIP3    H226076   3.745   4.443  14.280  0.2175 -1.0719  0.5106
 1529TIP3   OH226077   2.637   0.341  10.721  0.3340  0.1546  0.0511
 1529TIP3    H126078   2.585   0.415  10.691 -0.2035 -0.0208  0.5288
 1529TIP3    H226079   2.584   0.264  10.702  1.2131 -0.1878 -1.1392
 1530TIP3   OH226080   1.875   2.081   2.203  0.0094 -0.8389  0.9898
 1530TIP3    H126081   1.923   2.117   2.128  1.4546  0.2150  2.3547
 1530TIP3    H226082   1.850   1.993   2.176  0.3711 -0.4402 -0.7653
 1531TIP3   OH226083   4.637   4.994  17.110  0.4058  0.4168 -0.5007
 1531TIP3    H126084   4.570   5.047  17.152  0.7526 -0.3420  1.1150
 1531TIP3    H226085   4.591   4.916  17.080  0.3223  0.5053 -0.5983
 1532TIP3   OH226086   1.364   3.192  10.905 -0.4230  0.1285 -0.1571
 1532TIP3    H126087   1.376   3.283  10.934  0.9708 -0.8632  2.7433
 1532TIP3    H226088   1.449   3.168  10.866 -0.8098  0.0468 -0.9817
 1533TIP3   OH226089   2.611   3.332  14.338  0.0323 -0.3256 -0.7522
 1533TIP3    H126090   2.637   3.250  14.297 -1.3256 -1.8638  1.2865
 1533TIP3    H226091   2.526   3.353  14.298 -1.1017 -1.6147  0.8699
 1534TIP3   OH226092   1.919   4.525  14.782 -0.8485  0.0911  0.3464
 1534TIP3    H126093   1.851   4.458  14.785 -1.7242  0.9625  1.9015
 1534TIP3    H226094   1.871   4.606  14.763 -0.1548  0.6137  0.7814
 1535TIP3   OH226095   0.259   6.632  12.199 -0.2322  0.1867  0.0442
 1535TIP3    H126096   0.219   6.607  12.283 -1.8935 -2.2255 -1.3487
 1535TIP3    H226097   0.208   6.708  12.170  0.4107  1.0953  1.2041
 1536TIP3   OH226098   4.572   2.877   0.209  0.3958 -0.0528  0.2970
 1536TIP3    H126099   4.554   2.791   0.171 -0.2750 -0.0093  0.5028
 1536TIP3    H226100   4.634   2.917   0.148 -0.3179 -0.1585 -0.5386
 1537TIP3   OH226101   4.435   4.011  11.559 -0.2963 -0.2623  0.3786
 1537TIP3    H126102   4.344   4.029  11.585 -0.7065 -1.4220 -0.1976
 1537TIP3    H226103   4.428   3.979  11.469  0.4147 -2.5922  1.0806
 1538TIP3   OH226104   1.794   3.752  11.320 -0.3479  0.3901  0.0360
 1538TIP3    H126105   1.734   3.786  11.254 -1.4612 -0.5038  0.5567
 1538TIP3    H226106   1.799   3.821  11.386  1.9180  1.9249 -1.6014
 1539TIP3   OH226107   1.115   2.013  16.450 -0.3853  0.3697 -0.1178
 1539TIP3    H126108   1.189   2.021  16.510 -1.1635 -0.3600  0.9738
 1539TIP3    H226109   1.102   1.919  16.440 -0.8031  0.4863 -0.7671
 1540TIP3   OH226110   4.271   0.000  12.729 -0.2896 -0.1829  0.2765
 1540TIP3    H126111   4.219  -0.078  12.712 -1.2789  0.8357 -1.7145
 1540TIP3    H226112   4.242   0.030  12.815  0.7942 -2.4729  1.5251
 1541TIP3   OH226113   0.738   5.228   0.047  0.0238 -0.5030 -0.1619
 1541TIP3    H126114   0.724   5.284   0.123  2.3548 -0.0992  0.0177
 1541TIP3    H226115   0.690   5.147   0.068  0.5981 -0.3960  1.7406
 1542TIP3   OH226116   4.990   0.358  13.208 -0.6313 -0.6907  0.1211
 1542TIP3    H126117   4.963   0.425  13.146  0.9440  0.5223  0.6783
 1542TIP3    H226118   4.934   0.371  13.284  0.3989  0.8042  0.6755
 1543TIP3   OH226119   5.578   0.936   5.826  0.1308 -0.0505  0.0282
 1543TIP3    H126120   5.531   0.967   5.903 -0.1801  0.2614 -0.2839
 1543TIP3    H226121   5.520   0.871   5.787  0.3265 -0.2719  0.1061
 1544TIP3   OH226122   3.247   0.149  11.620  0.1663 -0.5921  0.4383
 1544TIP3    H126123   3.255   0.112  11.532  0.7968  1.5975 -0.4886
 1544TIP3    H226124   3.333   0.136  11.660  0.8656  1.0251 -0.4234
 1545TIP3   OH226125   5.476   1.840  13.109 -0.6609 -0.3638 -0.1262
 1545TIP3    H126126   5.426   1.903  13.160  0.8145  0.3780  0.4714
 1545TIP3    H226127   5.485   1.764  13.166  0.5596  0.2727  0.5638
 1546TIP3   OH226128   3.700   5.575  13.002 -0.0262 -0.3409  0.2634
 1546TIP3    H126129   3.735   5.508  13.061 -0.2517  0.4047  1.2871
 1546TIP3    H226130   3.681   5.649  13.060  0.6448  0.7758 -0.9057
 1547TIP3   OH226131   2.913   6.605  15.485  0.1754 -0.2576  0.2266
 1547TIP3    H126132   3.003   6.639  15.488  0.5706 -1.3006  0.7434
 1547TIP3    H226133   2.919   6.519  15.526 -0.8407 -0.8370 -0.7800
 1548TIP3   OH226134   3.778   6.281  14.603  0.0247  1.0774 -0.0668
 1548TIP3    H126135   3.858   6.259  14.651 -0.1649 -0.0010 -0.2136
 1548TIP3    H226136   3.796   6.251  14.513 -1.4423 -1.5913  0.4194
 1549TIP3   OH226137   4.012   0.925   0.727 -0.1229  0.2130 -0.7592
 1549TIP3    H126138   4.001   0.847   0.673  0.0822  0.2288 -0.8219
 1549TIP3    H226139   3.939   0.981   0.702 -0.0867  0.1777 -0.9439
 1550TIP3   OH226140   3.672   6.566   0.472  0.1128 -0.2135  0.4274
 1550TIP3    H126141   3.640   6.551   0.561  1.9165  0.6968  1.2824
 1550TIP3    H226142   3.655   6.484   0.426 -1.1365 -0.5921  1.5039
 1551TIP3   OH226143   3.030   2.153   1.089  0.8111  0.1523  0.4732
 1551TIP3    H126144   3.017   2.071   1.043 -0.1662  0.4076  0.2761
 1551TIP3    H226145   2.979   2.144   1.169 -1.9017  1.6996 -0.9528
 1552TIP3   OH226146   4.785   0.323   1.835  0.1806  0.5503  0.2325
 1552TIP3    H126147   4.704   0.275   1.849 -0.3314  0.8033 -1.6058
 1552TIP3    H226148   4.757   0.411   1.809  1.0501  0.8386  0.2307
 1553TIP3   OH226149   3.351   5.687   0.826 -0.3927  0.5758 -0.1985
 1553TIP3    H126150   3.392   5.749   0.886  0.4362  0.5975 -0.7803
 1553TIP3    H226151   3.381   5.601   0.857 -1.1322  0.4743  0.2915
 1554TIP3   OH226152   3.330   1.316  13.125  0.1716  0.0144 -0.2903
 1554TIP3    H126153   3.388   1.240  13.133 -0.4308 -0.5624 -1.1901
 1554TIP3    H226154   3.274   1.313  13.202 -1.1434 -1.5951 -1.2547
 1555TIP3   OH226155   6.538   2.470   0.150  0.4239  0.5208 -0.9422
 1555TIP3    H126156   6.455   2.447   0.190  1.7998  1.2875  2.7034
 1555TIP3    H226157   6.525   2.558   0.116 -1.0930 -0.5520 -3.4904
 1556TIP3   OH226158   0.270   4.004   5.351 -0.2262 -0.7330 -0.4778
 1556TIP3    H126159   0.242   4.079   5.404  1.7964 -1.8987  2.5356
 1556TIP3    H226160   0.230   3.929   5.395  0.0333 -1.6549 -1.7811
 1557TIP3   OH226161   4.182   1.659   3.941  0.1212 -0.4587  0.0066
 1557TIP3    H126162   4.185   1.702   4.026 -1.4759  0.2159 -0.2447
 1557TIP3    H226163   4.097   1.616   3.939  0.2441 -0.6762 -1.1539
 1558TIP3   OH226164   2.320   4.069  13.773  0.1896  0.3740 -0.4782
 1558TIP3    H126165   2.279   4.031  13.851 -0.9542 -0.6972 -1.5634
 1558TIP3    H226166   2.247   4.106  13.723  1.0945  2.6478 -0.2475
 1559TIP3   OH226167   1.934   1.428  14.320  0.1987  0.0539 -0.3151
 1559TIP3    H126168   2.029   1.425  14.320  0.2187  0.4919 -0.7216
 1559TIP3    H226169   1.913   1.515  14.286 -0.3724 -0.7356 -2.0672
 1560TIP3   OH226170   0.989   1.079   6.704  0.6786  0.2083  0.5959
 1560TIP3    H126171   0.919   1.138   6.677  0.4271  0.1601  1.1400
 1560TIP3    H226172   0.944   0.998   6.729  0.9272  0.1756  0.9442
 1561TIP3   OH226173   2.289   2.201  16.937  0.2534 -0.7335 -0.1358
 1561TIP3    H126174   2.364   2.174  16.990  1.7503 -0.0232 -1.7841
 1561TIP3    H226175   2.320   2.195  16.847 -1.3622  0.5030 -0.8321
 1562TIP3   OH226176   5.367   1.800  17.280  0.4874 -0.4445  0.4116
 1562TIP3    H126177   5.446   1.805  17.226 -0.1704  0.6137 -0.4967
 1562TIP3    H226178   5.398   1.764  17.364  1.2366 -3.8965 -1.1689
 1563TIP3   OH226179   4.976   0.434   5.090 -0.3548  0.0887  0.1599
 1563TIP3    H126180   4.897   0.406   5.042 -0.2859 -1.0047  0.6592
 1563TIP3    H226181   5.036   0.464   5.022 -0.1222 -1.7746 -0.5062
 1564TIP3   OH226182   1.561   2.082  16.884 -0.3444 -0.6808 -0.1902
 1564TIP3    H126183   1.585   2.047  16.970 -0.5996 -0.6782 -0.1174
 1564TIP3    H226184   1.562   2.177  16.895 -0.4956 -0.6834 -0.1589
 1565TIP3   OH226185   5.878   1.334   1.782  0.4771 -0.1711 -0.3099
 1565TIP3    H126186   5.852   1.287   1.703  0.5205  0.4885 -0.7182
 1565TIP3    H226187   5.814   1.306   1.848  0.4662 -0.7548 -0.5597
 1566TIP3   OH226188   5.382   2.905  13.591 -0.1234  0.4033 -0.5832
 1566TIP3    H126189   5.424   2.866  13.514 -2.3809  1.2716 -2.3815
 1566TIP3    H226190   5.426   2.865  13.666  2.1233 -0.5583 -2.3067
 1567TIP3   OH226191   4.479   4.714  16.124  0.1175 -0.6951 -0.1864
 1567TIP3    H126192   4.527   4.755  16.195 -3.6201  2.4107  0.9348
 1567TIP3    H226193   4.440   4.635  16.162  0.0438 -0.3166  0.5316
 1568TIP3   OH226194   2.488   0.229   2.270 -0.1103  0.6222  0.3347
 1568TIP3    H126195   2.485   0.267   2.182 -0.4428  2.3517  1.0489
 1568TIP3    H226196   2.499   0.135   2.255  0.1514  0.9044 -1.5402
 1569TIP3   OH226197   3.975   5.287  16.201  0.6583  0.0260 -0.4507
 1569TIP3    H126198   4.047   5.276  16.139  1.7210  1.8507  0.3840
 1569TIP3    H226199   3.961   5.382  16.205 -1.7205 -0.2670 -0.4724
 1570TIP3   OH226200   6.537   4.250  16.273 -0.5073 -0.0335  0.6946
 1570TIP3    H126201   6.551   4.218  16.362 -0.3111 -1.7130  0.0906
 1570TIP3    H226202   6.443   4.269  16.270 -0.6152 -0.4798  1.0958
 1571TIP3   OH226203   3.586   0.646   5.803 -0.2213  0.2018  0.3299
 1571TIP3    H126204   3.510   0.686   5.845 -0.4116  1.0165 -0.7550
 1571TIP3    H226205   3.554   0.563   5.769 -0.8745  0.9374 -0.8985
 1572TIP3   OH226206   0.729   1.536  14.309 -0.2823 -0.1278 -0.0055
 1572TIP3    H126207   0.774   1.585  14.241 -0.2113 -1.0445 -0.6305
 1572TIP3    H226208   0.797   1.517  14.374  0.0425 -0.7084 -0.5024
 1573TIP3   OH226209   0.888   4.417  12.007 -0.7711 -0.3069  0.4474
 1573TIP3    H126210   0.896   4.511  11.995  1.7487 -0.4534  0.5268
 1573TIP3    H226211   0.838   4.387  11.931  1.3791  0.7125 -1.4955
 1574TIP3   OH226212   1.946   5.561   5.187 -0.5046  0.1336 -0.4982
 1574TIP3    H126213   1.979   5.629   5.128 -1.1208 -0.5422 -1.6543
 1574TIP3    H226214   2.025   5.518   5.220 -0.1442  0.6521 -0.6686
 1575TIP3   OH226215   3.662   5.852   5.528  0.0513 -0.2047  0.7756
 1575TIP3    H126216   3.710   5.854   5.445 -0.6960 -2.0765  0.2231
 1575TIP3    H226217   3.729   5.861   5.596  0.9931 -1.0602 -0.0097
 1576TIP3   OH226218   2.773   5.144  12.333  0.1750 -0.3452 -0.0212
 1576TIP3    H126219   2.778   5.105  12.245 -1.8239 -1.7438  0.4168
 1576TIP3    H226220   2.733   5.230  12.318  1.1644  0.0230 -0.6178
 1577TIP3   OH226221   3.150   3.272  11.809  0.5863  0.0870 -0.4720
 1577TIP3    H126222   3.195   3.345  11.852 -0.1482 -0.4496  1.3233
 1577TIP3    H226223   3.201   3.256  11.730  1.9280  1.2625  0.0976
 1578TIP3   OH226224   2.672   5.675  12.821 -0.1439 -0.1744  0.0793
 1578TIP3    H126225   2.603   5.737  12.798 -1.6065 -2.1468 -1.1883
 1578TIP3    H226226   2.735   5.683  12.750  1.2524  1.9249  1.4444
 1579TIP3   OH226227   3.363   0.990  16.689 -0.8144  0.3048  0.4803
 1579TIP3    H126228   3.338   0.937  16.765  0.1287  1.5922  1.7477
 1579TIP3    H226229   3.297   1.060  16.687 -0.7139  0.3925  0.2413
 1580TIP3   OH226230   4.732   0.971  16.456 -0.0557  0.0655  0.6677
 1580TIP3    H126231   4.697   1.057  16.480  0.2779 -0.0507  1.6124
 1580TIP3    H226232   4.820   0.989  16.424  0.5550 -0.0396  2.1993
 1581TIP3   OH226233   6.524   4.368  13.957  0.2896  0.7105  0.2823
 1581TIP3    H126234   6.433   4.397  13.968  0.2303  0.5415  0.2458
 1581TIP3    H226235   6.563   4.432  13.898  0.4457  1.2930  1.0139
 1582TIP3   OH226236   3.557   0.504   5.007 -0.3385 -0.1622 -0.4604
 1582TIP3    H126237   3.573   0.495   4.913  0.7120  2.0958 -0.5703
 1582TIP3    H226238   3.485   0.567   5.013  0.7415  1.0767  0.2006
 1583TIP3   OH226239   0.055   4.690   7.125 -0.1790 -0.0095  0.2823
 1583TIP3    H126240   0.127   4.695   7.062 -0.1602  1.3864  0.3899
 1583TIP3    H226241  -0.008   4.631   7.084  1.2484 -1.7670  0.4489
 1584TIP3   OH226242   0.027   1.493   3.553  0.5044 -0.0984  0.1798
 1584TIP3    H126243  -0.064   1.518   3.535  0.2358 -1.6934 -0.8747
 1584TIP3    H226244   0.077   1.574   3.542 -0.5108  0.3668 -1.3705
 1585TIP3   OH226245   2.567   2.219  15.885  0.8308  0.0567 -0.3858
 1585TIP3    H126246   2.643   2.275  15.872  0.4275  0.7199  0.0139
 1585TIP3    H226247   2.519   2.223  15.802  0.5229  0.7529 -0.1802
 1586TIP3   OH226248   6.319   2.038   5.579  0.1125 -0.6758 -0.7129
 1586TIP3    H126249   6.227   2.049   5.604 -0.1665 -1.1964 -1.4916
 1586TIP3    H226250   6.350   1.968   5.637  0.7540  1.2000  1.3481
 1587TIP3   OH226251   4.435   5.960   5.491  0.0935  0.0404  0.0292
 1587TIP3    H126252   4.461   5.964   5.583 -1.2112  0.0425  0.4273
 1587TIP3    H226253   4.491   6.023   5.447  1.5489 -0.7996  0.5949
 1588TIP3   OH226254   1.871   6.036   2.218  0.1135  0.4551  0.1929
 1588TIP3    H126255   1.939   6.074   2.274 -1.7209 -0.1984  3.0412
 1588TIP3    H226256   1.885   5.941   2.224 -0.7780  0.3342  0.4664
 1589TIP3   OH226257   5.341   5.774  12.032  0.0663 -0.2278  0.2076
 1589TIP3    H126258   5.295   5.790  11.950  0.3147  1.6272  0.3825
 1589TIP3    H226259   5.414   5.835  12.031 -0.0141 -0.0550  1.8635
 1590TIP3   OH226260   1.118   3.643   4.357 -0.4877 -0.1322 -0.8269
 1590TIP3    H126261   1.134   3.593   4.277  1.3838 -0.3357 -0.3615
 1590TIP3    H226262   1.186   3.711   4.357 -0.7086  0.1106  0.3852
 1591TIP3   OH226263   5.968   4.531  17.411 -0.1628  0.1578 -0.1304
 1591TIP3    H126264   5.897   4.596  17.417 -0.8068 -0.6015  0.7389
 1591TIP3    H226265   5.962   4.482  17.493  1.7673  0.4615  0.2432
 1592TIP3   OH226266   4.417   0.599  15.893  0.0540 -0.1076 -0.4361
 1592TIP3    H126267   4.499   0.565  15.856  0.7430 -0.3083  1.1622
 1592TIP3    H226268   4.374   0.643  15.820  0.0206 -2.7537 -2.1587
 1593TIP3   OH226269   0.482   4.674   2.192 -0.3197 -0.2440  0.3278
 1593TIP3    H126270   0.551   4.616   2.225 -0.0028 -0.7566 -1.1716
 1593TIP3    H226271   0.511   4.698   2.104 -3.0769 -2.2775 -1.2974
 1594TIP3   OH226272   4.898   3.091   0.309  0.1378 -0.6078  0.2867
 1594TIP3    H126273   4.928   3.094   0.400  0.4926  0.6653  0.1432
 1594TIP3    H226274   4.807   3.120   0.313  0.9972  2.4171 -0.0671
 1595TIP3   OH226275   1.188   0.552  16.859  0.1567 -0.3539  0.0179
 1595TIP3    H126276   1.244   0.629  16.847 -1.8603  1.0862 -0.8669
 1595TIP3    H226277   1.222   0.510  16.938  3.0371 -0.1511 -0.9819
 1596TIP3   OH226278   1.717   1.380   5.507 -0.8086  0.0368  0.1268
 1596TIP3    H126279   1.656   1.375   5.434 -1.0603  3.0713 -0.0203
 1596TIP3    H226280   1.795   1.422   5.470 -0.7085  1.0683  1.4142
 1597TIP3   OH226281   4.614   2.858   2.730 -0.0454  0.7271  0.2684
 1597TIP3    H126282   4.636   2.946   2.759 -3.1519  1.5039  0.6739
 1597TIP3    H226283   4.608   2.865   2.635 -2.7511  1.7385  0.4253
 1598TIP3   OH226284   5.939   5.719  15.776  0.9211 -0.2238  0.1239
 1598TIP3    H126285   5.878   5.667  15.724 -0.1886 -0.9182  2.0165
 1598TIP3    H226286   6.026   5.689  15.749  0.3896 -0.7763 -1.0534
 1599TIP3   OH226287   4.685   4.102  13.467  0.1926 -0.3746 -0.3549
 1599TIP3    H126288   4.678   4.077  13.375  1.8120  2.7164 -1.4590
 1599TIP3    H226289   4.779   4.099  13.485 -0.1682 -2.2907  1.7318
 1600TIP3   OH226290   5.277   4.794   5.231 -0.3424 -0.6435  0.4720
 1600TIP3    H126291   5.333   4.739   5.176 -0.0313  0.7714 -0.7288
 1600TIP3    H226292   5.190   4.756   5.223 -0.4877  0.0098 -1.8224
 1601TIP3   OH226293   5.566   5.191   2.300  0.2666  0.6735  0.2391
 1601TIP3    H126294   5.478   5.176   2.264  0.4287 -1.3455  0.5590
 1601TIP3    H226295   5.615   5.232   2.229 -0.2235 -0.5769 -0.8401
 1602TIP3   OH226296   1.491   2.909   3.565 -0.1856 -0.1932 -0.0516
 1602TIP3    H126297   1.442   2.866   3.495 -0.5739  1.9140 -1.1588
 1602TIP3    H226298   1.579   2.872   3.559 -0.5911 -1.0752 -0.7073
 1603TIP3   OH226299   5.984   3.479  12.230  0.4032 -0.6098  0.2525
 1603TIP3    H126300   5.975   3.395  12.275 -2.1002 -0.5407  0.0266
 1603TIP3    H226301   5.980   3.457  12.137  0.8220 -0.3253  0.1653
 1604TIP3   OH226302   2.103   2.634  13.835  0.3250  0.3387 -0.1190
 1604TIP3    H126303   2.188   2.592  13.819  0.3413  0.9818 -1.9514
 1604TIP3    H226304   2.115   2.683  13.916  1.2179 -0.7709  0.4533
 1605TIP3   OH226305   3.718   0.798   3.717  0.2096 -0.1612 -0.5852
 1605TIP3    H126306   3.624   0.785   3.706  0.1166  0.0240 -0.0385
 1605TIP3    H226307   3.726   0.847   3.799  0.8308 -0.8281 -0.2422
 1606TIP3   OH226308   1.711   5.068  14.331  0.0366 -0.0012  0.6049
 1606TIP3    H126309   1.628   5.070  14.283 -0.2099  1.5204  1.0594
 1606TIP3    H226310   1.779   5.070  14.263 -0.3033  2.7316  0.2684
 1607TIP3   OH226311   0.638   5.370  14.670 -0.4229 -0.3595  0.1400
 1607TIP3    H126312   0.653   5.408  14.584  1.7642 -0.6493  0.3518
 1607TIP3    H226313   0.592   5.288  14.652  1.6512 -1.3482 -0.9561
 1608TIP3   OH226314   4.541   0.992  14.749  0.3036 -0.0469 -0.3625
 1608TIP3    H126315   4.575   1.081  14.759 -1.0906  0.5883 -1.1513
 1608TIP3    H226316   4.496   0.992  14.664  1.5480 -1.9302 -1.0963
 1609TIP3   OH226317   0.265   0.942  15.039 -0.1218 -0.2336 -0.4590
 1609TIP3    H126318   0.205   0.918  14.969  1.6421 -0.1765 -2.0563
 1609TIP3    H226319   0.263   1.037  15.042 -1.6900 -0.2620  0.9893
 1610TIP3   OH226320   0.029   2.604  13.098  0.1902 -0.1911 -0.2967
 1610TIP3    H126321   0.005   2.627  13.009  0.6057 -0.8244 -0.5757
 1610TIP3    H226322   0.086   2.528  13.089  1.8295  0.9127  0.3816
 1611TIP3   OH226323   5.397   2.734  14.509 -0.0131 -0.7078 -0.2140
 1611TIP3    H126324   5.448   2.814  14.521 -1.8765  0.4064  0.6779
 1611TIP3    H226325   5.343   2.728  14.588 -0.3520 -2.5334 -0.5423
 1612TIP3   OH226326   5.753   0.891   4.983  0.7129  0.2593  0.0555
 1612TIP3    H126327   5.738   0.800   5.010  0.6108  0.0663 -0.6326
 1612TIP3    H226328   5.683   0.941   5.027 -0.5469 -0.3002 -1.2176
 1613TIP3   OH226329   2.813   2.150  13.391 -0.0346  0.7549 -0.1928
 1613TIP3    H126330   2.790   2.199  13.312 -0.2024 -2.0559 -2.0367
 1613TIP3    H226331   2.769   2.066  13.380  0.9042 -0.1517  2.3648
 1614TIP3   OH226332   4.001   3.061  14.971 -0.0746 -0.2855  0.3805
 1614TIP3    H126333   4.062   3.135  14.980 -1.5959  1.0618  0.0964
 1614TIP3    H226334   4.031   2.998  15.036 -0.3627  1.7704  2.6314
 1615TIP3   OH226335   2.122   0.311   2.700 -0.2122 -0.1063 -0.1948
 1615TIP3    H126336   2.034   0.329   2.734 -0.4277  0.0823 -0.8339
 1615TIP3    H226337   2.174   0.385   2.730 -0.9518  1.3822 -2.2729
 1616TIP3   OH226338   3.628   2.563   3.448 -0.9834  0.6472 -0.3100
 1616TIP3    H126339   3.608   2.572   3.355  1.6810  0.1016 -1.0209
 1616TIP3    H226340   3.651   2.651   3.477 -0.1096  0.5318 -0.6348
 1617TIP3   OH226341   2.990   3.054   4.154  0.2405 -0.0310  0.3608
 1617TIP3    H126342   2.996   2.967   4.192  1.3649 -0.7030 -1.2442
 1617TIP3    H226343   3.008   3.041   4.061  0.1291  1.8739  0.0308
 1618TIP3   OH226344   4.948   6.285   4.490 -0.2975 -0.3370 -0.2787
 1618TIP3    H126345   4.953   6.251   4.401  0.6041 -0.5702 -0.1554
 1618TIP3    H226346   4.903   6.369   4.482 -1.0133 -0.7645 -0.8242
 1619TIP3   OH226347   6.627   3.198   0.764 -0.4517  0.2908  0.2290
 1619TIP3    H126348   6.610   3.124   0.822  0.5176  1.4608  2.0908
 1619TIP3    H226349   6.638   3.273   0.823  4.3693  0.9172 -1.0236
 1620TIP3   OH226350   2.737   5.645  15.930 -0.2306  0.4844 -0.0465
 1620TIP3    H126351   2.725   5.639  16.025 -1.4108  0.9264 -0.1443
 1620TIP3    H226352   2.821   5.688  15.919 -0.0084  0.2923  0.7949
 1621TIP3   OH226353   0.703   4.800   3.663  0.0170  0.2906  0.6413
 1621TIP3    H126354   0.677   4.716   3.699 -0.1089  0.1904  0.3245
 1621TIP3    H226355   0.797   4.792   3.646  0.0110  0.2226  0.6412
 1622TIP3   OH226356   2.785   6.436  14.974 -0.1167 -0.3365 -0.0034
 1622TIP3    H126357   2.820   6.396  14.895  0.4133  0.2122 -0.0579
 1622TIP3    H226358   2.806   6.529  14.965 -2.9476  0.3149 -0.7593
 1623TIP3   OH226359   2.745   1.277   2.152  0.2345 -0.0543  0.0446
 1623TIP3    H126360   2.747   1.198   2.099  1.0392 -0.1709  0.2341
 1623TIP3    H226361   2.656   1.311   2.142  0.5185  0.2473 -1.8529
 1624TIP3   OH226362   6.549   0.653   0.106 -0.4302  0.3715 -0.4437
 1624TIP3    H126363   6.542   0.652   0.202  0.1404 -0.3769 -0.4011
 1624TIP3    H226364   6.478   0.596   0.077 -1.0486  1.1537 -0.5133
 1625TIP3   OH226365   1.477   0.583   3.803  0.0561  0.3101  0.0464
 1625TIP3    H126366   1.492   0.498   3.843  1.4790  0.9284  0.8982
 1625TIP3    H226367   1.553   0.598   3.747  0.0569  1.2175  0.2628
 1626TIP3   OH226368   5.758   3.721   2.736  0.7726 -0.7496 -0.5122
 1626TIP3    H126369   5.715   3.643   2.702  0.7641 -1.3483  0.8049
 1626TIP3    H226370   5.846   3.718   2.698  1.7194 -2.9239  1.6014
 1627TIP3   OH226371   4.471   1.486   0.091 -0.4953  0.3466  0.5166
 1627TIP3    H126372   4.491   1.530   0.174  1.5624 -1.8294  1.2978
 1627TIP3    H226373   4.425   1.406   0.116 -0.1214 -0.1945 -0.4615
 1628TIP3   OH226374   3.894   5.891   0.608 -0.1311  0.6244  0.0746
 1628TIP3    H126375   3.915   5.931   0.524 -2.5268  3.1889  0.5376
 1628TIP3    H226376   3.897   5.796   0.592 -0.1621  1.0398 -2.7573
 1629TIP3   OH226377   2.580   2.660  14.498 -0.3492 -0.0652 -0.1942
 1629TIP3    H126378   2.648   2.708  14.547 -2.1518  1.5841  0.8207
 1629TIP3    H226379   2.585   2.571  14.531  0.8662  0.1887  0.3596
 1630TIP3   OH226380   2.222   5.865   4.784  0.0083 -0.1881 -0.7666
 1630TIP3    H126381   2.176   5.946   4.765 -1.0797 -0.5515  0.2134
 1630TIP3    H226382   2.300   5.892   4.832 -0.6743  0.2458  0.1159
 1631TIP3   OH226383   2.626   3.070   1.419 -0.0923  0.0563 -0.0284
 1631TIP3    H126384   2.667   3.059   1.333  0.7561  0.0460  0.3727
 1631TIP3    H226385   2.699   3.072   1.481 -0.7733 -2.5977  0.9995
 1632TIP3   OH226386   3.388   4.186   6.298  0.3853  0.3846 -0.2035
 1632TIP3    H126387   3.474   4.171   6.258 -0.2399  2.0444 -2.3181
 1632TIP3    H226388   3.386   4.280   6.318 -0.0557 -0.0446  2.1804
 1633TIP3   OH226389   6.237   1.824   3.072  0.2811 -0.2153  0.1817
 1633TIP3    H126390   6.187   1.767   3.014  0.9274 -1.1885  0.5708
 1633TIP3    H226391   6.296   1.871   3.013  0.4947 -0.7385 -0.0293
 1634TIP3   OH226392   6.795   4.467  13.819  0.0943 -0.0458 -0.4356
 1634TIP3    H126393   6.871   4.408  13.825  0.4265  0.1967 -1.9344
 1634TIP3    H226394   6.806   4.512  13.735 -0.9560  1.0584 -0.0049
 1635TIP3   OH226395   2.104   1.564   2.768  0.3078  0.4012 -0.2417
 1635TIP3    H126396   2.025   1.613   2.747  0.2822  0.8527  0.8479
 1635TIP3    H226397   2.176   1.616   2.732  0.1035 -0.2571 -1.6737
 1636TIP3   OH226398   0.042   5.121  12.112 -0.0037 -0.2632 -0.4817
 1636TIP3    H126399   0.005   5.205  12.084  0.3658 -0.7420 -2.6118
 1636TIP3    H226400   0.073   5.137  12.201 -1.7943  1.2519 -0.0682
 1637TIP3   OH226401   0.079   5.296  12.710 -0.2354 -0.3451 -0.2606
 1637TIP3    H126402   0.016   5.341  12.654  0.9934  1.9762  0.0931
 1637TIP3    H226403   0.159   5.290  12.656  0.1982 -0.3780  0.3704
 1638TIP3   OH226404   2.784   1.579   0.295  0.1612 -0.3946 -0.4086
 1638TIP3    H126405   2.773   1.649   0.360 -0.2261 -0.1461 -0.7422
 1638TIP3    H226406   2.833   1.511   0.342 -2.8304 -1.6352  1.2217
 1639TIP3   OH226407   1.640   0.668  11.237  0.3985  0.3136  0.0645
 1639TIP3    H126408   1.685   0.628  11.162  0.0418  0.0891 -0.0302
 1639TIP3    H226409   1.548   0.648  11.223  0.1140  1.8628 -0.3911
 1640TIP3   OH226410   2.604   1.824   4.214  0.3440  0.1075 -0.2512
 1640TIP3    H126411   2.557   1.907   4.201 -0.9998 -0.2144  2.0642
 1640TIP3    H226412   2.693   1.843   4.183  0.3574  2.7729  1.0657
 1641TIP3   OH226413   4.400   2.688  15.262  0.3227 -0.1657 -0.4296
 1641TIP3    H126414   4.466   2.679  15.330 -0.1756 -1.0602 -0.0520
 1641TIP3    H226415   4.341   2.756  15.294 -0.1938 -0.9343  0.2754
 1642TIP3   OH226416   4.525   5.615   5.763  0.2448 -0.0463 -0.7708
 1642TIP3    H126417   4.443   5.636   5.807 -0.2106  0.5366 -1.8566
 1642TIP3    H226418   4.563   5.544   5.816 -1.0483 -0.4634 -0.3595
 1643TIP3   OH226419   0.858   1.677   2.335 -0.2118 -0.2459 -0.5215
 1643TIP3    H126420   0.869   1.590   2.375 -0.1049  0.0978  0.2114
 1643TIP3    H226421   0.836   1.659   2.244 -0.1402 -1.0458 -0.3857
 1644TIP3   OH226422   0.091   6.519  11.939 -0.1328 -0.7308  0.4912
 1644TIP3    H126423   0.105   6.594  11.997 -0.7825 -1.3466  1.4661
 1644TIP3    H226424   0.059   6.557  11.858  2.4501  0.3163 -0.1440
 1645TIP3   OH226425   4.385   2.836  17.165 -0.4533  0.2024  0.0868
 1645TIP3    H126426   4.394   2.866  17.074  1.4171  1.3711  0.6030
 1645TIP3    H226427   4.407   2.912  17.218 -1.4852 -0.4668  1.5550
 1646TIP3   OH226428   3.329   0.375  13.234  0.2635  0.1126 -0.0723
 1646TIP3    H126429   3.340   0.291  13.278 -0.8697  1.1020  2.2816
 1646TIP3    H226430   3.277   0.355  13.156 -0.5994 -1.2906  0.8179
 1647TIP3   OH226431   2.837   3.099  15.261 -0.3485  0.1431 -0.3290
 1647TIP3    H126432   2.925   3.077  15.231 -0.3195 -2.9284  1.5107
 1647TIP3    H226433   2.780   3.036  15.216 -1.4658  1.4076 -0.7259
 1648TIP3   OH226434   1.244   3.014  15.304 -0.0823  0.1080  0.6361
 1648TIP3    H126435   1.340   3.013  15.312  0.2915  1.8522 -2.0826
 1648TIP3    H226436   1.212   2.993  15.391  2.7848  2.0140  2.3174
 1649TIP3   OH226437   0.912   5.727   4.878  0.1766 -0.5154  0.6699
 1649TIP3    H126438   0.855   5.797   4.909  1.9446  0.9444  0.7741
 1649TIP3    H226439   0.905   5.660   4.946 -1.1805 -0.2728  0.8033
 1650TIP3   OH226440   5.358   3.124   0.315  0.7951  0.3107 -0.2910
 1650TIP3    H126441   5.297   3.120   0.242  0.2301 -1.9819  0.2152
 1650TIP3    H226442   5.413   3.046   0.305  0.2222 -0.4940  2.0618
 1651TIP3   OH226443   3.450   2.094   0.513  0.2102 -0.1830 -0.1344
 1651TIP3    H126444   3.394   2.029   0.556  0.9479 -0.5524  0.2700
 1651TIP3    H226445   3.411   2.104   0.426 -1.9213  1.3252  0.8823
 1652TIP3   OH226446   6.116   0.682   1.187  0.8264 -0.6036  0.1128
 1652TIP3    H126447   6.114   0.590   1.214  1.0647 -0.6532 -0.0446
 1652TIP3    H226448   6.208   0.702   1.174  0.7837 -0.3114  0.2487
 1653TIP3   OH226449   0.223   1.048   3.805  0.4398  0.2131 -0.0745
 1653TIP3    H126450   0.172   1.127   3.789  0.7514  0.2775 -0.7926
 1653TIP3    H226451   0.249   1.054   3.897  0.8947  1.2062 -0.2517
 1654TIP3   OH226452   5.725   6.775   4.214  0.2672 -0.4390  0.1823
 1654TIP3    H126453   5.739   6.681   4.218 -0.3218 -0.5520 -0.2321
 1654TIP3    H226454   5.682   6.797   4.297  1.7988 -0.2694  0.9607
 1655TIP3   OH226455   6.391   4.007   4.169 -0.7913  0.0691  0.7261
 1655TIP3    H126456   6.297   4.024   4.166 -0.8318  0.3921  2.7432
 1655TIP3    H226457   6.416   4.021   4.260  1.3610  0.7060  0.1100
 1656TIP3   OH226458   3.236   3.351   3.324 -0.2504 -0.2336  0.1313
 1656TIP3    H126459   3.263   3.370   3.414  0.0896  0.4666 -0.1151
 1656TIP3    H226460   3.228   3.437   3.282  1.4923 -0.5852 -1.0516
 1657TIP3   OH226461   1.840   5.148  11.417 -0.3171 -0.1911 -0.0960
 1657TIP3    H126462   1.824   5.100  11.336 -1.4168 -1.7582  0.9875
 1657TIP3    H226463   1.753   5.166  11.452  0.1391  0.4691  0.7314
 1658TIP3   OH226464   5.707   5.196   5.276 -0.2644  0.4541 -0.6207
 1658TIP3    H126465   5.712   5.112   5.230 -0.3186 -0.1279  0.4051
 1658TIP3    H226466   5.798   5.221   5.291 -0.2476  0.0153  0.0494
 1659TIP3   OH226467   0.874   5.279  13.385 -0.2201  0.0806 -0.0812
 1659TIP3    H126468   0.948   5.316  13.434  0.2995 -1.1576  0.1129
 1659TIP3    H226469   0.801   5.336  13.406 -0.2132 -0.8160  2.8418
 1660TIP3   OH226470   2.547   0.843   5.950  0.1241 -0.3387  0.1074
 1660TIP3    H126471   2.522   0.813   6.038 -0.6668 -0.5646 -0.1911
 1660TIP3    H226472   2.486   0.914   5.931  0.9222  0.3693  0.1289
 1661TIP3   OH226473   4.709   0.678   4.820 -0.3176  0.1092  0.2114
 1661TIP3    H126474   4.724   0.771   4.839  0.3809  0.1201 -0.3471
 1661TIP3    H226475   4.659   0.646   4.895  2.5943  0.0358  2.2821
 1662TIP3   OH226476   4.476   6.259  12.714  0.3160 -0.0648  0.3506
 1662TIP3    H126477   4.442   6.216  12.635 -0.7348  0.1090  0.6864
 1662TIP3    H226478   4.462   6.195  12.784  0.4287  0.1181  0.5412
 1663TIP3   OH226479   1.084   0.496  12.042 -0.3167  0.1233  0.0625
 1663TIP3    H126480   1.146   0.569  12.053  1.4573 -1.3795  0.4732
 1663TIP3    H226481   1.009   0.520  12.096  1.0299  0.7834  1.7408
 1664TIP3   OH226482   2.025   3.258  14.904  0.2132 -0.3112  0.2784
 1664TIP3    H126483   1.993   3.323  14.967 -0.7515 -0.6823  0.1840
 1664TIP3    H226484   2.023   3.175  14.952 -2.1624 -0.8954 -0.6993
 1665TIP3   OH226485   6.287   4.093  14.108  0.3059  0.0505 -0.1012
 1665TIP3    H126486   6.303   4.144  14.029  1.2622  1.1682  0.7916
 1665TIP3    H226487   6.371   4.092  14.154 -0.1799 -0.7526  0.8116
 1666TIP3   OH226488   5.146   2.030  14.964  0.1307 -0.1705 -0.1533
 1666TIP3    H126489   5.069   1.978  14.988  0.8841 -1.6775 -0.8433
 1666TIP3    H226490   5.130   2.057  14.873 -0.0661  0.4703  0.0658
 1667TIP3   OH226491   1.696   0.175   3.883 -0.6146  0.3324 -0.6830
 1667TIP3    H126492   1.745   0.161   3.963  0.2958  2.0609 -0.8900
 1667TIP3    H226493   1.692   0.088   3.842 -0.1518 -0.3636  0.6813
 1668TIP3   OH226494   0.482   2.621  15.669 -0.4543 -0.3516  0.1355
 1668TIP3    H126495   0.518   2.686  15.730 -0.7288  0.3157 -0.4094
 1668TIP3    H226496   0.391   2.610  15.697 -0.5589 -0.1021 -0.1107
 1669TIP3   OH226497   1.775   2.412  16.902 -0.2406 -0.0189  0.0550
 1669TIP3    H126498   1.852   2.451  16.861  0.1782 -1.3611 -0.4867
 1669TIP3    H226499   1.799   2.320  16.915 -0.8841  0.0465  2.0345
 1670TIP3   OH226500   4.891   3.751   1.108 -0.2983 -1.1595  0.0937
 1670TIP3    H126501   4.835   3.758   1.185 -0.2142  0.2461  0.0570
 1670TIP3    H226502   4.967   3.806   1.130 -0.5141 -0.3230 -1.1763
 1671TIP3   OH226503   0.528   4.746  16.955  0.0385 -0.5507  0.1573
 1671TIP3    H126504   0.567   4.702  16.880  2.9640 -0.5552  1.5690
 1671TIP3    H226505   0.536   4.683  17.027 -0.1029  0.5052  1.1215
 1672TIP3   OH226506   2.697   6.242  15.999  0.3997 -0.4216 -0.2360
 1672TIP3    H126507   2.771   6.289  16.036 -0.8056  1.3610 -0.0012
 1672TIP3    H226508   2.704   6.257  15.904  1.0616 -1.3867 -0.3565
 1673TIP3   OH226509   3.668   3.786   2.077 -0.1617  0.3090  0.4331
 1673TIP3    H126510   3.660   3.717   2.011 -1.7125  1.9044 -1.1886
 1673TIP3    H226511   3.737   3.756   2.136  2.0097 -0.8076 -2.4488
 1674TIP3   OH226512   1.527   3.298   5.336 -0.8673  0.5051 -0.7144
 1674TIP3    H126513   1.578   3.223   5.366 -0.8164 -0.3290 -2.6967
 1674TIP3    H226514   1.589   3.350   5.284 -1.6343  0.2196 -1.9722
 1675TIP3   OH226515   0.206   0.926  10.833  0.2484  0.4439  0.0549
 1675TIP3    H126516   0.276   0.916  10.769  0.1893  0.9411 -0.0916
 1675TIP3    H226517   0.132   0.962  10.784 -0.0960 -0.0250  0.2214
 1676TIP3   OH226518   1.885   2.087  15.783  0.0576 -0.1597 -0.0889
 1676TIP3    H126519   1.834   2.088  15.703 -0.1782 -1.2487  0.0308
 1676TIP3    H226520   1.855   2.164  15.832  0.1340  0.4483 -0.9926
 1677TIP3   OH226521   3.832   3.647   0.374  0.5199  0.0634 -0.5047
 1677TIP3    H126522   3.900   3.589   0.409  0.8199  0.6187 -0.1520
 1677TIP3    H226523   3.778   3.590   0.320 -0.7903 -1.1722  1.9400
 1678TIP3   OH226524   4.960   4.709   1.517 -0.0737  0.1929  0.6619
 1678TIP3    H126525   4.992   4.746   1.435 -0.4810  0.6872  0.7203
 1678TIP3    H226526   5.040   4.688   1.567  0.2819 -2.3636 -0.7926
 1679TIP3   OH226527   2.883   0.580  16.682  0.0243  0.0089 -0.7212
 1679TIP3    H126528   2.856   0.528  16.606 -1.5413  0.2864 -0.4007
 1679TIP3    H226529   2.838   0.664  16.670  0.6013  0.4257 -0.0199
 1680TIP3   OH226530   4.883   2.217  15.093 -0.0082 -0.0198 -0.2182
 1680TIP3    H126531   4.973   2.242  15.111 -0.1934  0.2057  0.4270
 1680TIP3    H226532   4.831   2.264  15.159 -0.4286 -1.6997  0.7014
 1681TIP3   OH226533   4.853   2.173  14.827 -0.2749 -0.2228 -0.0685
 1681TIP3    H126534   4.847   2.186  14.922 -2.2026 -0.0372 -0.1607
 1681TIP3    H226535   4.803   2.092  14.811  1.0208 -0.9008 -0.8224
 1682TIP3   OH226536   4.234   5.346  15.522  0.4807 -0.3428  0.2337
 1682TIP3    H126537   4.155   5.390  15.553  0.2894  0.3620 -1.1632
 1682TIP3    H226538   4.305   5.384  15.574 -0.1112 -1.2355  1.7473
 1683TIP3   OH226539   1.314   1.021   0.199  0.3013 -0.2214 -0.2624
 1683TIP3    H126540   1.252   1.045   0.130 -0.6136 -2.0935 -0.1516
 1683TIP3    H226541   1.327   1.101   0.248 -0.7889  0.6108 -1.2678
 1684TIP3   OH226542   6.003   0.205   1.040  0.1902  1.0335  0.2798
 1684TIP3    H126543   6.027   0.158   1.120 -2.6241 -1.4608 -0.1483
 1684TIP3    H226544   5.942   0.273   1.070 -2.7475 -1.3778  0.2482
 1685TIP3   OH226545   0.979   3.889  12.075  0.5768  0.1423 -0.1619
 1685TIP3    H126546   0.905   3.830  12.060  1.5533 -1.1736  0.0668
 1685TIP3    H226547   1.025   3.891  11.991 -0.5094  2.1463 -0.7641
 1686TIP3   OH226548   6.095   3.239   0.147 -0.1231 -0.1974  0.3594
 1686TIP3    H126549   6.095   3.173   0.077  0.3146 -1.4885  1.5156
 1686TIP3    H226550   6.134   3.193   0.221 -3.3710  0.1194  2.4114
 1687TIP3   OH226551   6.568   0.743   4.216  0.0841 -0.3812 -0.5719
 1687TIP3    H126552   6.584   0.787   4.133 -0.4503 -1.1670 -1.0998
 1687TIP3    H226553   6.519   0.664   4.193  0.0734 -0.6962  0.4697
 1688TIP3   OH226554   5.733   2.984  14.495  0.4367  0.3306  0.0204
 1688TIP3    H126555   5.722   2.929  14.572  2.5497  0.6031  0.5921
 1688TIP3    H226556   5.680   3.062  14.513 -2.0960 -1.1468 -0.5301
 1689TIP3   OH226557   1.050   3.260   2.803 -0.1399  0.4942  0.4772
 1689TIP3    H126558   1.109   3.326   2.766  0.7102  0.2725  1.4050
 1689TIP3    H226559   0.981   3.312   2.845 -0.6540  0.7537 -0.6596
 1690TIP3   OH226560   4.815   1.449  12.764  0.1172 -0.4311  0.1741
 1690TIP3    H126561   4.903   1.428  12.794  0.3418 -2.9397 -1.8319
 1690TIP3    H226562   4.759   1.384  12.807 -0.3455 -0.4742 -0.4691
 1691TIP3   OH226563   6.303   1.244   0.824 -0.2683  0.0278  0.2927
 1691TIP3    H126564   6.279   1.318   0.879 -0.7751  1.0721 -1.2577
 1691TIP3    H226565   6.241   1.175   0.849 -0.7451  0.6066  0.7339
 1692TIP3   OH226566   4.350   1.958  10.405  0.0541  0.3878  0.2930
 1692TIP3    H126567   4.300   1.877  10.388 -1.0436  1.5036 -2.4516
 1692TIP3    H226568   4.287   2.016  10.447 -0.0722  0.7689 -0.4070
 1693TIP3   OH226569   0.968   5.589  13.971 -0.5259 -0.4990 -0.2674
 1693TIP3    H126570   0.932   5.654  13.911 -1.7666 -2.2611 -1.5244
 1693TIP3    H226571   0.914   5.512  13.959  0.8414 -1.7810  1.2297
 1694TIP3   OH226572   3.193   4.752   2.377 -0.1566 -0.4386 -0.0740
 1694TIP3    H126573   3.235   4.793   2.302  0.5990  0.6409  0.9273
 1694TIP3    H226574   3.258   4.756   2.447 -1.6212  0.6114  1.2963
 1695TIP3   OH226575   3.042   0.297  14.287  0.0778  0.2042  0.3487
 1695TIP3    H126576   3.018   0.212  14.324  2.8003 -1.1722 -0.7598
 1695TIP3    H226577   2.958   0.339  14.268 -1.3696 -1.5378  2.3700
 1696TIP3   OH226578   5.695   2.241  15.482 -0.0474 -0.1255 -0.1388
 1696TIP3    H126579   5.676   2.232  15.575  0.1795 -2.8053 -0.2636
 1696TIP3    H226580   5.611   2.225  15.439 -0.0334  0.5185 -0.4059
 1697TIP3   OH226581   3.248   0.764   0.320  0.1002  0.6897 -0.5448
 1697TIP3    H126582   3.245   0.753   0.415 -0.0492  3.3734 -0.1553
 1697TIP3    H226583   3.297   0.688   0.289 -1.9264 -1.5770  1.3668
 1698TIP3   OH226584   6.663   4.885   1.670  0.1137 -0.2431  0.4756
 1698TIP3    H126585   6.632   4.967   1.708 -1.7249 -0.0859 -1.1670
 1698TIP3    H226586   6.674   4.827   1.744 -0.7037  0.8392  1.4866
 1699TIP3   OH226587   5.052   2.113   2.393 -0.3928 -0.7124 -0.0318
 1699TIP3    H126588   4.977   2.168   2.371 -0.7084 -1.6432 -1.4162
 1699TIP3    H226589   5.044   2.098   2.487 -1.6481 -0.3443 -0.0652
 1700TIP3   OH226590   4.603   4.537   3.865 -0.0886  0.7163 -0.2444
 1700TIP3    H126591   4.693   4.568   3.853 -0.2769  0.9176 -1.1850
 1700TIP3    H226592   4.604   4.496   3.952  1.1118  0.0284 -0.5597
 1701TIP3   OH226593   0.050   4.558  15.277  0.0235  0.0671  0.2319
 1701TIP3    H126594   0.049   4.471  15.237  0.3074  0.2546 -0.1925
 1701TIP3    H226595   0.001   4.613  15.216  0.1508  0.2812  0.3217
 1702TIP3   OH226596   4.207   3.449  16.400  0.0685  0.3717  0.1486
 1702TIP3    H126597   4.188   3.472  16.309  0.3860  0.1407  0.0224
 1702TIP3    H226598   4.216   3.354  16.400 -0.2168  0.3412  0.4779
 1703TIP3   OH226599   4.499   5.768  15.400 -0.4291  0.5181  0.4800
 1703TIP3    H126600   4.579   5.818  15.383 -1.5502  2.6144  0.9934
 1703TIP3    H226601   4.432   5.810  15.345 -1.3189 -0.8257  0.4731
 1704TIP3   OH226602   5.508   1.510   1.763 -0.1630 -0.0380 -0.4260
 1704TIP3    H126603   5.451   1.437   1.739 -0.3819  0.2295 -0.7221
 1704TIP3    H226604   5.581   1.504   1.702  0.3906 -0.6905  0.2854
 1705TIP3   OH226605   6.301   0.787   3.538  0.3344  0.2986  0.1654
 1705TIP3    H126606   6.366   0.730   3.496  1.0542  1.7298 -0.7416
 1705TIP3    H226607   6.344   0.816   3.619  0.9479  1.3741 -0.5121
 1706TIP3   OH226608   6.345   1.723  13.105 -0.4061  0.2155  0.2596
 1706TIP3    H126609   6.334   1.766  13.190 -0.9115 -0.7650  0.7121
 1706TIP3    H226610   6.288   1.646  13.110 -0.1617 -0.0495 -0.8363
 1707TIP3   OH226611   2.358   0.707  13.088  0.2228  0.0845  0.4996
 1707TIP3    H126612   2.288   0.642  13.082 -0.2210  0.5010  1.0884
 1707TIP3    H226613   2.415   0.688  13.013  0.4689 -1.3934  1.0435
 1708TIP3   OH226614   6.303   2.950   1.034  0.0151  0.6109 -0.8962
 1708TIP3    H126615   6.279   2.858   1.047 -2.9559  1.5826  1.8721
 1708TIP3    H226616   6.377   2.964   1.092  0.7218 -0.0695 -1.6075
 1709TIP3   OH226617   5.733   0.240   1.901 -0.2324  0.1445 -0.3108
 1709TIP3    H126618   5.674   0.167   1.922  0.8261 -0.4446  0.7374
 1709TIP3    H226619   5.675   0.311   1.874 -1.4302 -0.4142  0.6917
 1710TIP3   OH226620   1.117   5.946   1.068 -0.1860  0.2522  0.1881
 1710TIP3    H126621   1.063   6.023   1.049  0.4924  0.6229 -0.2803
 1710TIP3    H226622   1.128   5.948   1.163  0.0745  0.9088  0.1483
 1711TIP3   OH226623   3.734   3.050   3.310 -0.0290 -0.5699 -0.1459
 1711TIP3    H126624   3.789   3.098   3.372 -1.4719  0.5218  0.3352
 1711TIP3    H226625   3.739   3.101   3.230 -3.1703  1.7020  0.9273
 1712TIP3   OH226626   6.002   5.078  11.875  0.0204 -0.2856 -0.0614
 1712TIP3    H126627   6.002   4.993  11.920  0.7745  0.1112  0.7136
 1712TIP3    H226628   6.068   5.068  11.806  0.4063 -0.2036  0.2904
 1713TIP3   OH226629   2.132   1.948  11.216 -0.0777  0.5209  0.0139
 1713TIP3    H126630   2.216   1.942  11.171 -0.5593  1.0714 -1.0136
 1713TIP3    H226631   2.154   1.957  11.308  0.9640 -0.0827 -0.1555
 1714TIP3   OH226632   6.721   0.438  14.337 -0.1867 -0.1661  0.2657
 1714TIP3    H126633   6.778   0.424  14.261  1.6740 -1.1793  1.7336
 1714TIP3    H226634   6.772   0.404  14.411 -0.3372  3.9378  2.5535
 1715TIP3   OH226635   4.405   2.223   6.711 -0.0313 -0.1161  0.2570
 1715TIP3    H126636   4.343   2.288   6.678  0.2343  0.5541  1.0466
 1715TIP3    H226637   4.484   2.273   6.730  1.0361 -1.0780 -1.4466
 1716TIP3   OH226638   6.117   6.393  16.465 -0.1919  0.2363 -0.5690
 1716TIP3    H126639   6.171   6.416  16.541 -1.0185  2.2810 -0.5304
 1716TIP3    H226640   6.180   6.378  16.395  0.5814  3.9970 -0.9095
 1717TIP3   OH226641   6.127   2.126   4.651  0.3298  0.4384 -0.3158
 1717TIP3    H126642   6.070   2.167   4.715 -2.5749 -2.2546 -0.9408
 1717TIP3    H226643   6.175   2.060   4.700 -1.4375 -1.1953 -0.6540
 1718TIP3   OH226644   5.787   1.184  16.731 -0.1267 -0.0862  0.3779
 1718TIP3    H126645   5.693   1.176  16.718 -0.0520  0.3269 -0.4760
 1718TIP3    H226646   5.797   1.249  16.800 -0.5107 -1.6625  2.0132
 1719TIP3   OH226647   4.318   6.147  11.105  0.3432 -0.3623 -0.2697
 1719TIP3    H126648   4.316   6.066  11.054  0.8420  0.4878 -1.7150
 1719TIP3    H226649   4.404   6.147  11.148  0.6567 -0.2421 -0.8896
 1720TIP3   OH226650   0.525   0.795  12.863 -0.8558  0.1867 -0.0448
 1720TIP3    H126651   0.452   0.852  12.889 -2.2779 -0.4517 -2.3399
 1720TIP3    H226652   0.593   0.855  12.834 -0.9364  0.7750  0.9506
 1721TIP3   OH226653   0.866   0.250  11.521  0.0856  0.3010  0.1824
 1721TIP3    H126654   0.825   0.285  11.441  1.2856 -0.6678 -0.8919
 1721TIP3    H226655   0.960   0.259  11.506  0.3649 -1.2920  0.8237
 1722TIP3   OH226656   0.925   5.194  13.033 -0.4634 -0.3815  0.1761
 1722TIP3    H126657   0.891   5.275  13.070  1.6473 -0.0540  1.6069
 1722TIP3    H226658   0.979   5.223  12.959  0.0406 -0.4858  0.4958
 1723TIP3   OH226659   5.193   0.399  17.057 -0.7134  0.7770  0.1809
 1723TIP3    H126660   5.200   0.495  17.050  1.1245  0.7645  1.1521
 1723TIP3    H226661   5.232   0.366  16.977 -1.5711  0.8264 -0.2666
 1724TIP3   OH226662   6.505   4.624   5.127 -0.7995  0.6427  0.4683
 1724TIP3    H126663   6.449   4.595   5.055 -0.9181  1.4117  0.2418
 1724TIP3    H226664   6.472   4.711   5.149  0.6126  1.3161 -0.0006
 1725TIP3   OH226665   6.344   5.110   4.968 -0.5721 -0.1785 -0.5946
 1725TIP3    H126666   6.339   5.205   4.966  0.2792 -0.1306 -1.3585
 1725TIP3    H226667   6.397   5.087   4.891 -0.6194 -1.2507 -0.3276
 1726TIP3   OH226668   2.347   1.831   2.093 -0.2219  0.6200 -0.6514
 1726TIP3    H126669   2.388   1.785   2.020  2.5182 -0.8074  1.5957
 1726TIP3    H226670   2.276   1.773   2.121  2.0101 -1.5390  0.9549
 1727TIP3   OH226671   0.570   1.035   4.359  0.5248 -0.0799 -0.0646
 1727TIP3    H126672   0.540   1.110   4.411  0.7067 -0.2087  0.2293
 1727TIP3    H226673   0.659   1.020   4.390  0.5146 -0.3719 -0.1800
 1728TIP3   OH226674   2.790   4.531  13.986 -0.7292 -0.2683 -0.3977
 1728TIP3    H126675   2.844   4.540  13.908 -0.2185  0.3434  0.0089
 1728TIP3    H226676   2.850   4.499  14.053 -1.1509 -0.7382 -0.2436
 1729TIP3   OH226677   1.710   4.468   5.010  0.1803 -0.4104  0.7229
 1729TIP3    H126678   1.758   4.543   4.976 -0.5153 -0.8015 -1.2304
 1729TIP3    H226679   1.638   4.507   5.061  1.8661  0.1708  2.8011
 1730TIP3   OH226680   0.344   4.251   3.839 -0.2755 -0.3259  0.9064
 1730TIP3    H126681   0.297   4.186   3.786  0.5120 -0.3045  0.1596
 1730TIP3    H226682   0.279   4.282   3.901 -1.5522  0.4277 -0.7177
 1731TIP3   OH226683   6.545   2.181  15.546 -0.3432 -0.5422 -0.1029
 1731TIP3    H126684   6.632   2.172  15.507 -0.5538  0.1707 -0.7553
 1731TIP3    H226685   6.535   2.101  15.598 -0.2533 -1.8217 -1.9239
 1732TIP3   OH226686   5.408   6.602   4.085 -0.7527 -0.0294  0.7413
 1732TIP3    H126687   5.358   6.598   4.167 -0.4752 -1.8619  0.8671
 1732TIP3    H226688   5.425   6.510   4.063  1.3332  0.4872 -0.0469
 1733TIP3   OH226689   3.907   5.597   3.787 -0.3728  0.5845 -0.1816
 1733TIP3    H126690   3.947   5.684   3.793 -2.0393  1.4517 -0.9767
 1733TIP3    H226691   3.978   5.537   3.807  0.5100  2.1733  1.8402
 1734TIP3   OH226692   2.905   5.305  17.183 -0.3317 -0.2629  0.3586
 1734TIP3    H126693   2.919   5.400  17.191 -0.3776 -0.2379  0.1613
 1734TIP3    H226694   2.890   5.292  17.089 -0.4842 -0.4454  0.4087
 1735TIP3   OH226695   3.385   0.130   2.778  0.2916  0.4074 -0.4270
 1735TIP3    H126696   3.301   0.107   2.817  0.7083 -0.7237 -0.1349
 1735TIP3    H226697   3.448   0.073   2.822  1.3211  1.7206 -0.1449
 1736TIP3   OH226698   4.843   3.811  11.062  0.4363  0.1094 -0.0069
 1736TIP3    H126699   4.790   3.833  11.138  1.2342  3.0700 -0.1960
 1736TIP3    H226700   4.780   3.807  10.989  0.0933  0.5797  0.2606
 1737TIP3   OH226701   0.947   3.402  15.660 -0.1067 -0.2452  0.3964
 1737TIP3    H126702   0.898   3.325  15.687  0.5155 -0.5244  0.7472
 1737TIP3    H226703   0.948   3.458  15.737 -1.0819  0.3989 -0.0419
 1738TIP3   OH226704   3.151   4.831   2.748  0.5884  0.5778  0.0507
 1738TIP3    H126705   3.112   4.916   2.727  0.6484  0.7154  0.4731
 1738TIP3    H226706   3.234   4.830   2.700 -0.4373 -0.2005 -1.7731
 1739TIP3   OH226707   2.281   0.190   0.275 -0.3441  0.1849  0.0333
 1739TIP3    H126708   2.356   0.157   0.227 -1.9099 -0.6504 -1.9861
 1739TIP3    H226709   2.232   0.111   0.300 -1.6833  0.7675 -0.6590
 1740TIP3   OH226710   4.745   4.237  12.857  0.6692  0.1620  0.5941
 1740TIP3    H126711   4.781   4.318  12.821  1.2565 -0.2960  0.1313
 1740TIP3    H226712   4.652   4.255  12.868  0.8676  1.0574  0.9397
 1741TIP3   OH226713   6.517   2.775   3.890 -0.2101 -0.2874 -0.2437
 1741TIP3    H126714   6.460   2.766   3.814 -1.3029  0.6864  0.4170
 1741TIP3    H226715   6.504   2.866   3.919  2.0168  0.1004 -0.3135
 1742TIP3   OH226716   4.031   1.742  12.194  0.3876 -0.4783  0.6422
 1742TIP3    H126717   4.083   1.785  12.262  1.5752 -1.1056  0.1671
 1742TIP3    H226718   3.956   1.704  12.241  0.1201  0.7926  1.2757
 1743TIP3   OH226719   4.223   2.755   2.697 -0.8744 -0.1809  0.0695
 1743TIP3    H126720   4.134   2.721   2.694 -0.9391  0.0355 -0.8580
 1743TIP3    H226721   4.215   2.847   2.671 -0.5196  0.1637  1.1075
 1744TIP3   OH226722   2.539   6.021  13.784  0.2459  0.1111  0.2043
 1744TIP3    H126723   2.466   6.081  13.801  1.4375  1.3821  1.0834
 1744TIP3    H226724   2.535   5.957  13.856 -0.1258  0.0590  0.1363
 1745TIP3   OH226725   2.476   2.792  11.764  0.2967  0.2879 -0.0416
 1745TIP3    H126726   2.510   2.871  11.805  0.5654 -1.0930  2.6382
 1745TIP3    H226727   2.452   2.735  11.838  0.0548 -2.0898 -1.8278
 1746TIP3   OH226728   5.165   4.222  15.734  0.5235  0.1951  0.1408
 1746TIP3    H126729   5.229   4.154  15.753  0.0798 -0.5019 -0.7515
 1746TIP3    H226730   5.210   4.305  15.753  0.9884 -0.3466  1.4580
 1747TIP3   OH226731   5.557   1.870   0.336 -0.5329 -0.2175  0.4070
 1747TIP3    H126732   5.647   1.840   0.323 -0.1016  0.0122  2.5233
 1747TIP3    H226733   5.517   1.802   0.391 -0.7528  1.0390  1.8760
 1748TIP3   OH226734   5.498   0.721  12.397  0.0100  0.4475 -0.4492
 1748TIP3    H126735   5.581   0.680  12.421 -0.0320  0.5104 -0.1868
 1748TIP3    H226736   5.483   0.786  12.466 -0.2809  0.4010 -0.4679
 1749TIP3   OH226737   5.294   6.383   5.344 -0.2528  0.5230 -0.0465
 1749TIP3    H126738   5.239   6.354   5.416 -1.1458 -1.3978 -1.4053
 1749TIP3    H226739   5.304   6.305   5.289  1.7233  1.4943 -1.1679
 1750TIP3   OH226740   5.202   5.324  11.260 -0.5018 -0.4135 -0.1443
 1750TIP3    H126741   5.274   5.381  11.232 -0.7916 -0.3478 -0.7652
 1750TIP3    H226742   5.214   5.315  11.355  1.0368 -1.4054 -0.4084
 1751TIP3   OH226743   5.503   2.566   2.155  0.4674  0.2986 -0.2195
 1751TIP3    H126744   5.526   2.635   2.217 -0.0165  1.1616 -0.9739
 1751TIP3    H226745   5.422   2.529   2.190  1.5239 -0.9820  1.0251
 1752TIP3   OH226746   2.084   0.140  15.051 -0.4108 -0.1117 -0.6180
 1752TIP3    H126747   2.175   0.118  15.035 -0.2200  1.0801 -1.1896
 1752TIP3    H226748   2.048   0.162  14.965 -0.1027  3.5704  0.0461
 1753TIP3   OH226749   6.406   1.097  14.911 -0.3361  0.2745 -0.5246
 1753TIP3    H126750   6.321   1.091  14.953  0.2102 -0.9582  0.4528
 1753TIP3    H226751   6.469   1.087  14.982  0.6224  0.1724 -1.3636
 1754TIP3   OH226752   5.020   0.575  12.786  0.3110 -0.2490 -0.5697
 1754TIP3    H126753   5.020   0.648  12.724 -0.8145  1.1148  0.9539
 1754TIP3    H226754   4.953   0.598  12.851  0.9875 -1.9074  0.8013
 1755TIP3   OH226755   5.290   3.261  15.132  0.6522 -0.2272 -0.4743
 1755TIP3    H126756   5.226   3.323  15.168  0.2529 -0.8299 -0.1301
 1755TIP3    H226757   5.242   3.178  15.127  1.1777 -0.5067 -0.9432
 1756TIP3   OH226758   0.832   0.978  13.866 -0.0543 -0.6416 -0.4387
 1756TIP3    H126759   0.918   0.955  13.902 -0.3258 -1.7412 -0.4387
 1756TIP3    H226760   0.776   0.983  13.943  0.2332  1.2457 -0.3201
 1757TIP3   OH226761   4.747   4.425   2.413  0.2264  0.0479  0.2541
 1757TIP3    H126762   4.818   4.370   2.446 -1.1913 -1.0842  1.5807
 1757TIP3    H226763   4.721   4.479   2.488  0.4122  1.2842 -0.5360
 1758TIP3   OH226764   6.452   0.773   6.014  0.4409  0.8337  0.1283
 1758TIP3    H126765   6.401   0.814   5.944  1.4067  0.8056 -0.6116
 1758TIP3    H226766   6.460   0.841   6.081 -2.0558  0.2994  1.0936
 1759TIP3   OH226767   3.919   2.838   3.827  0.5158 -0.3735  0.1661
 1759TIP3    H126768   4.011   2.837   3.803  0.1672 -0.5639 -1.2745
 1759TIP3    H226769   3.884   2.755   3.795 -0.7615  0.9176 -2.0517
 1760TIP3   OH226770   0.646   4.914  16.089  0.2074  0.2969 -0.7921
 1760TIP3    H126771   0.701   4.992  16.082  0.0461  0.4955  0.0121
 1760TIP3    H226772   0.667   4.862  16.011 -0.4416  1.6038 -1.8598
 1761TIP3   OH226773   4.409   1.585   3.463 -0.5510  0.1752  0.1049
 1761TIP3    H126774   4.403   1.679   3.449  0.3057 -0.1355 -3.2888
 1761TIP3    H226775   4.445   1.576   3.551  0.0617  3.0355  0.2509
 1762TIP3   OH226776   3.668   2.847   0.203  0.3085  0.3559  0.5345
 1762TIP3    H126777   3.746   2.821   0.252  0.5642 -0.9388 -0.5115
 1762TIP3    H226778   3.619   2.766   0.191 -0.7102  0.9869  0.3118
 1763TIP3   OH226779   2.967   6.602  13.609 -0.4174  0.1365  0.4838
 1763TIP3    H126780   3.000   6.673  13.663 -1.7543  0.2577  1.1810
 1763TIP3    H226781   3.030   6.596  13.537 -0.1935  1.9429  0.4649
 1764TIP3   OH226782   1.306   3.826   4.354 -0.3098  0.0790  0.8892
 1764TIP3    H126783   1.395   3.792   4.347 -0.0010  0.6800  1.6496
 1764TIP3    H226784   1.313   3.898   4.417 -1.2927  0.2869  0.7832
 1765TIP3   OH226785   6.445   1.016  16.256  0.3863  0.6124  0.3828
 1765TIP3    H126786   6.365   1.029  16.307  0.4901 -1.1360  1.0794
 1765TIP3    H226787   6.500   0.962  16.312  0.2968 -1.8518 -1.7059
 1766TIP3   OH226788   3.017   1.163   2.448 -0.1793  0.2323 -0.0350
 1766TIP3    H126789   3.028   1.098   2.517 -1.7400  0.5323  0.5458
 1766TIP3    H226790   3.063   1.240   2.481  0.0970  0.0032  0.1205
 1767TIP3   OH226791   3.296   1.208   3.433  0.0841  0.7864  0.2346
 1767TIP3    H126792   3.389   1.186   3.435 -0.5179 -2.0450  1.1924
 1767TIP3    H226793   3.263   1.163   3.356 -0.6178  1.2887  0.2335
 1768TIP3   OH226794   6.156   6.025   4.124 -0.2510  0.1470  0.3360
 1768TIP3    H126795   6.156   5.994   4.034  1.6042  1.4433 -0.1568
 1768TIP3    H226796   6.063   6.032   4.147 -0.7432 -1.1854 -1.0981
 1769TIP3   OH226797   3.503   5.514   0.410  0.6644 -0.7566  0.4465
 1769TIP3    H126798   3.582   5.567   0.417  1.1542 -1.6234  2.2144
 1769TIP3    H226799   3.535   5.428   0.382  0.0890 -0.6137 -0.7015
 1770TIP3   OH226800   1.886   1.864  14.572  0.6456  0.0209  0.0259
 1770TIP3    H126801   1.951   1.885  14.639 -0.5997  0.3441  1.1945
 1770TIP3    H226802   1.833   1.794  14.610  0.8586 -0.8880 -1.2821
 1771TIP3   OH226803   2.150   3.493  12.690 -0.0482 -0.5745  0.4590
 1771TIP3    H126804   2.078   3.472  12.630 -0.3454  1.3201  0.0944
 1771TIP3    H226805   2.227   3.501  12.634 -0.5174  2.2424  0.0702
 1772TIP3   OH226806   3.886   6.069  17.048  0.0715  0.3044 -0.2931
 1772TIP3    H126807   3.886   6.085  17.142 -4.3189 -0.0906 -0.0111
 1772TIP3    H226808   3.879   6.156  17.009  3.4951  0.6196 -0.5326
 1773TIP3   OH226809   2.290   3.133  15.653 -0.3125  0.1757  0.2676
 1773TIP3    H126810   2.367   3.159  15.602 -2.7328  2.2149 -2.6455
 1773TIP3    H226811   2.243   3.072  15.597 -1.9712  0.7220  0.9932
 1774TIP3   OH226812   5.843   2.976   0.996 -0.4522  0.0890  0.1738
 1774TIP3    H126813   5.936   2.987   0.975 -0.5293  1.0359  0.3143
 1774TIP3    H226814   5.813   3.063   1.022 -0.9430 -0.5463  1.8689
 1775TIP3   OH226815   3.797   5.199   1.694  0.1358 -0.1303 -0.6412
 1775TIP3    H126816   3.884   5.170   1.667  0.4819  0.1887  0.0949
 1775TIP3    H226817   3.811   5.287   1.730 -0.6916  0.4383 -1.6460
 1776TIP3   OH226818   0.688   1.538   2.147 -0.5831  0.3312  0.1943
 1776TIP3    H126819   0.599   1.506   2.159 -0.5298 -0.0656 -0.4422
 1776TIP3    H226820   0.739   1.461   2.126 -0.5209  0.8568 -1.7190
 1777TIP3   OH226821   0.311   5.160  13.960  0.1955  0.3980 -0.1332
 1777TIP3    H126822   0.218   5.150  13.981  0.2079 -0.9596 -0.6363
 1777TIP3    H226823   0.333   5.249  13.990 -1.4246  1.0088 -0.6471
 1778TIP3   OH226824   5.774   5.697   6.107  0.5747  0.3437  0.6193
 1778TIP3    H126825   5.739   5.706   6.195  1.2412 -2.3436  1.2495
 1778TIP3    H226826   5.868   5.690   6.119  0.5457 -1.8362 -0.0645
 1779TIP3   OH226827   0.060   6.535  12.689 -0.1203  0.0343 -0.2820
 1779TIP3    H126828   0.136   6.560  12.741  1.3521 -1.8354 -1.4278
 1779TIP3    H226829   0.011   6.617  12.679  0.9728  1.0009  1.6642
 1780TIP3   OH226830   1.732   2.897   5.593  0.5513  0.2258 -0.1059
 1780TIP3    H126831   1.709   2.870   5.504  2.4332  0.3353 -0.6726
 1780TIP3    H226832   1.755   2.816   5.637  3.3543  0.4597 -0.9333
 1781TIP3   OH226833   2.219   2.274   0.413 -0.3534  0.6557  0.2143
 1781TIP3    H126834   2.241   2.276   0.320 -0.6319  0.7591  0.1497
 1781TIP3    H226835   2.140   2.329   0.420 -0.7373  0.0926  0.3982
 1782TIP3   OH226836   1.655   2.767  13.304 -0.0828 -0.4972  0.2463
 1782TIP3    H126837   1.563   2.787  13.285 -0.0280 -1.1021 -0.7573
 1782TIP3    H226838   1.704   2.838  13.264 -0.0683 -0.7510 -0.1984
 1783TIP3   OH226839   1.193   4.868   2.935 -0.0423 -0.2028 -0.7203
 1783TIP3    H126840   1.244   4.924   2.993 -2.1779  0.2049  0.8926
 1783TIP3    H226841   1.230   4.781   2.948  1.7148  0.4058 -1.3840
 1784TIP3   OH226842   0.407   1.747  12.266  0.4337  0.4038 -0.2061
 1784TIP3    H126843   0.393   1.661  12.224 -0.4508 -0.3845  1.5968
 1784TIP3    H226844   0.501   1.762  12.257  0.4612 -0.2756 -1.4044
 1785TIP3   OH226845   0.754   2.680  16.906  0.5542  0.3568  0.0839
 1785TIP3    H126846   0.721   2.650  16.821 -0.2520  0.6623  0.2797
 1785TIP3    H226847   0.727   2.611  16.968  1.6545 -0.1596  0.0127
 1786TIP3   OH226848   2.783   6.092  13.649  0.0315  0.4489 -0.8034
 1786TIP3    H126849   2.814   6.005  13.623 -1.2382 -0.3900  0.3324
 1786TIP3    H226850   2.704   6.075  13.700 -0.3925  2.3010 -0.7639
 1787TIP3   OH226851   4.766   5.370  16.777  0.5775  0.2021  0.1438
 1787TIP3    H126852   4.701   5.319  16.825  1.5885 -2.3759 -1.0505
 1787TIP3    H226853   4.750   5.461  16.803 -0.9003 -0.7533  2.8922
 1788TIP3   OH226854   1.873   6.442   5.381 -0.2797  0.4740 -0.6648
 1788TIP3    H126855   1.915   6.474   5.302  0.4194  1.3827  0.0592
 1788TIP3    H226856   1.782   6.471   5.373 -0.1548  0.7683 -1.0363
 1789TIP3   OH226857   4.616   6.170   5.426 -0.1233 -0.5323 -0.1198
 1789TIP3    H126858   4.661   6.192   5.344  0.5775 -0.4659  0.2702
 1789TIP3    H226859   4.682   6.122   5.477 -0.3244  0.0196  0.6782
 1790TIP3   OH226860   1.769   4.674  13.198 -0.3286  0.5587 -0.2414
 1790TIP3    H126861   1.794   4.597  13.147  1.6767  0.0332  1.3890
 1790TIP3    H226862   1.734   4.736  13.134  0.3668 -0.7433 -1.9477
 1791TIP3   OH226863   4.894   5.104   3.043 -0.4752 -0.4482  0.1003
 1791TIP3    H126864   4.871   5.024   3.090 -1.3806  0.6795  1.6802
 1791TIP3    H226865   4.965   5.078   2.985 -0.6711 -2.3636  0.6494
 1792TIP3   OH226866   6.689   3.076   0.516  0.3828 -0.1472  0.0770
 1792TIP3    H126867   6.600   3.102   0.495  0.9971  0.0501 -2.5691
 1792TIP3    H226868   6.716   3.138   0.584 -1.3362  0.0178  0.6656
 1793TIP3   OH226869   6.258   3.357   1.489 -0.1448 -0.0221  0.1477
 1793TIP3    H126870   6.347   3.328   1.510 -0.8295 -0.7070  2.4775
 1793TIP3    H226871   6.201   3.301   1.542 -1.9641  0.6351 -0.9946
 1794TIP3   OH226872   5.278   4.625   4.418 -0.1270 -0.2535 -0.2231
 1794TIP3    H126873   5.346   4.628   4.486  0.0969  0.6995 -0.4711
 1794TIP3    H226874   5.275   4.534   4.391  1.1814 -0.2868 -0.3281
 1795TIP3   OH226875   2.816   0.211   1.981 -0.7378 -0.4588 -0.0659
 1795TIP3    H126876   2.833   0.305   1.983 -0.1788 -0.5132 -1.4346
 1795TIP3    H226877   2.902   0.172   1.968 -0.6596 -1.3044  2.4574
 1796TIP3   OH226878   0.649   6.497  15.292  0.3988  0.1775 -0.3046
 1796TIP3    H126879   0.585   6.567  15.303  0.4740  0.5211 -1.8577
 1796TIP3    H226880   0.597   6.420  15.269  0.4177  0.0571  0.0567
 1797TIP3   OH226881   3.529   3.246   1.119  0.3689  0.0150 -0.4415
 1797TIP3    H126882   3.487   3.165   1.088  0.3062 -0.3806  0.6376
 1797TIP3    H226883   3.455   3.304   1.139  0.3221 -0.4963  0.9642
 1798TIP3   OH226884   2.750   6.643   4.438 -0.5511 -0.0768 -0.2184
 1798TIP3    H126885   2.839   6.607   4.444 -0.2092  0.2598 -2.3857
 1798TIP3    H226886   2.720   6.617   4.351 -1.0870  3.0373 -1.0674
 1799TIP3   OH226887   6.526   0.028  12.378 -0.2906  0.3805 -0.1624
 1799TIP3    H126888   6.510   0.102  12.321 -0.6575  1.6854  1.5537
 1799TIP3    H226889   6.614  -0.003  12.354  0.2953  2.0222 -0.2355
 1800TIP3   OH226890   2.954   1.197   1.178  0.3982 -0.1800  0.3215
 1800TIP3    H126891   2.869   1.184   1.136  0.5077 -0.1298  0.0798
 1800TIP3    H226892   2.933   1.223   1.268  0.1152  1.6952 -0.2357
 1801TIP3   OH226893   0.646   6.544  14.201 -0.0197 -0.0445  0.1501
 1801TIP3    H126894   0.678   6.457  14.180  0.9536  0.8126 -2.2960
 1801TIP3    H226895   0.556   6.546  14.168 -0.9244 -0.8053  2.3704
 1802TIP3   OH226896   3.740   6.408  14.242  0.4482  0.3314  0.4812
 1802TIP3    H126897   3.768   6.499  14.254 -0.2747  0.6342 -0.1003
 1802TIP3    H226898   3.821   6.360  14.227  1.0588  0.5426  2.6765
 1803TIP3   OH226899   3.987   2.604   2.729 -0.1496 -0.6346 -0.0100
 1803TIP3    H126900   3.895   2.602   2.756  0.0972  1.9020  1.3423
 1803TIP3    H226901   3.998   2.525   2.675 -2.7157 -1.7679  0.9556
 1804TIP3   OH226902   0.423   6.030  11.004 -0.0407 -0.1839  0.4382
 1804TIP3    H126903   0.418   6.036  10.909 -3.3095 -1.0037  0.4497
 1804TIP3    H226904   0.412   5.936  11.023 -0.5736  0.1058  1.6457
 1805TIP3   OH226905   2.991   5.668   1.652 -0.6415  0.4712  0.1037
 1805TIP3    H126906   3.054   5.632   1.716  0.1728  0.5855 -0.6202
 1805TIP3    H226907   3.008   5.618   1.572 -0.6915  1.2898 -0.4196
 1806TIP3   OH226908   2.807   3.953  17.283 -0.5387 -0.0875 -0.2478
 1806TIP3    H126909   2.750   3.882  17.311 -2.5513  2.1441  1.8606
 1806TIP3    H226910   2.760   3.994  17.210 -0.5759  0.4721  0.0848
 1807TIP3   OH226911   4.199   1.922  13.372  0.2391 -0.3339 -0.1217
 1807TIP3    H126912   4.159   1.852  13.424 -2.5047  0.6623 -0.7614
 1807TIP3    H226913   4.144   1.929  13.294  0.8004  2.1046 -0.3719
 1808TIP3   OH226914   3.731   1.751   6.932 -0.3148  0.2747  0.1134
 1808TIP3    H126915   3.763   1.776   7.019 -1.9020  0.1365  0.7839
 1808TIP3    H226916   3.732   1.832   6.881 -1.0812  0.7650  0.8482
 1809TIP3   OH226917   6.178   2.191  15.841  0.2866  0.0538  0.3701
 1809TIP3    H126918   6.210   2.138  15.768  0.5481  0.5730  0.1061
 1809TIP3    H226919   6.246   2.257  15.855 -0.0504  0.3443  0.6795
 1810TIP3   OH226920   0.370   4.579  16.265 -0.1693 -0.7368 -0.3789
 1810TIP3    H126921   0.342   4.488  16.265  1.2168 -1.1805 -0.3170
 1810TIP3    H226922   0.430   4.586  16.191  1.4572 -0.4669  0.8926
 1811TIP3   OH226923   1.081   1.969   0.512 -0.3691 -0.8540  0.4124
 1811TIP3    H126924   1.052   2.033   0.448  0.8201 -1.0338 -0.3520
 1811TIP3    H226925   1.177   1.969   0.503 -0.2926 -2.0580  1.0371
 1812TIP3   OH226926   4.803   4.489  15.451  0.1038  0.7525 -0.8073
 1812TIP3    H126927   4.861   4.419  15.479 -0.9207  0.6873  1.3017
 1812TIP3    H226928   4.861   4.563  15.434  0.7912  1.2893  3.0632
 1813TIP3   OH226929   0.948   0.436  13.330 -0.1082 -0.1077  0.1905
 1813TIP3    H126930   0.860   0.438  13.293 -0.1263 -0.9706  0.1715
 1813TIP3    H226931   0.976   0.345  13.321  0.9380  0.2298 -0.1528
 1814TIP3   OH226932   3.310   2.251  12.702  0.3501 -0.0529  0.2367
 1814TIP3    H126933   3.341   2.252  12.611 -0.6812  0.6421 -0.1278
 1814TIP3    H226934   3.386   2.223  12.753  0.7489 -1.1311 -0.9000
 1815TIP3   OH226935   0.274   4.102   0.478 -0.3038 -0.5406 -0.2878
 1815TIP3    H126936   0.364   4.096   0.510 -0.9777  0.8079  2.0620
 1815TIP3    H226937   0.275   4.175   0.416  0.2687 -0.7603 -0.5459
 1816TIP3   OH226938   2.986   2.418  16.605 -0.7913  0.3566  0.1326
 1816TIP3    H126939   2.951   2.370  16.680 -0.7391 -0.5373 -0.3942
 1816TIP3    H226940   2.929   2.392  16.532 -0.1038  0.2650 -0.3750
 1817TIP3   OH226941   5.384   0.233  16.289  0.0531  0.1609  0.4647
 1817TIP3    H126942   5.335   0.235  16.371 -0.4910 -0.0696  0.1498
 1817TIP3    H226943   5.329   0.283  16.228  0.0147 -0.4319  0.0047
 1818TIP3   OH226944   0.579   3.075  16.274  0.5932 -0.2627 -0.2292
 1818TIP3    H126945   0.631   3.008  16.320  0.7789 -0.8891 -1.3213
 1818TIP3    H226946   0.615   3.158  16.306  1.1941 -0.6813  0.2217
 1819TIP3   OH226947   1.594   3.487  11.918 -0.2832 -0.0868  0.2320
 1819TIP3    H126948   1.598   3.556  11.984  0.8542 -0.7041  0.8360
 1819TIP3    H226949   1.626   3.408  11.962 -1.7512 -1.0699 -0.3874
 1820TIP3   OH226950   1.128   4.392  16.650 -0.4580  0.2540  0.5626
 1820TIP3    H126951   1.128   4.484  16.622  1.1651  0.5935  1.5312
 1820TIP3    H226952   1.213   4.380  16.692  0.7142 -2.5191 -2.2081
 1821TIP3   OH226953   1.725   4.656   4.666 -0.0233 -0.1250 -0.0555
 1821TIP3    H126954   1.809   4.614   4.648  0.2659  1.1365 -1.8325
 1821TIP3    H226955   1.744   4.718   4.737  0.7715  0.7854 -1.0420
 1822TIP3   OH226956   2.911   1.478   2.134 -0.3102 -0.1337 -0.0575
 1822TIP3    H126957   2.863   1.400   2.107  1.7556 -1.6376  0.3962
 1822TIP3    H226958   2.871   1.503   2.217 -0.7623 -0.9309 -0.0239
 1823TIP3   OH226959   1.475   0.018  14.354 -0.1101 -0.5432 -0.6810
 1823TIP3    H126960   1.471  -0.005  14.447 -1.0683 -1.6687 -0.9681
 1823TIP3    H226961   1.461   0.113  14.352  3.1351  0.0685  0.5151
 1824TIP3   OH226962   2.496   0.350  13.825  0.1249 -0.9948 -0.3697
 1824TIP3    H126963   2.437   0.389  13.761  0.2762  2.0866  1.1814
 1824TIP3    H226964   2.439   0.320  13.896  0.2177  1.1647  0.7159
 1825TIP3   OH226965   4.216   6.108   1.412  0.1954  0.3855 -0.1663
 1825TIP3    H126966   4.169   6.058   1.478 -1.2057  1.0152 -0.6436
 1825TIP3    H226967   4.299   6.062   1.401 -0.2381 -0.6733  0.8181
 1826TIP3   OH226968   2.633   3.721   2.233  0.3328  0.4732 -0.7202
 1826TIP3    H126969   2.654   3.691   2.144  1.0955  1.8365 -1.0283
 1826TIP3    H226970   2.673   3.655   2.290 -3.5893 -2.7396 -1.2563
 1827TIP3   OH226971   4.446   3.631  16.474 -0.0886  0.0428 -0.7353
 1827TIP3    H126972   4.395   3.563  16.430 -2.2191  0.1350  1.4002
 1827TIP3    H226973   4.434   3.614  16.567  1.2807  1.9614 -0.1385
 1828TIP3   OH226974   1.732   0.355  13.975  0.7274 -0.3143 -0.7065
 1828TIP3    H126975   1.792   0.281  13.989  0.7658 -0.1340  0.1641
 1828TIP3    H226976   1.649   0.325  14.011  0.1785 -0.6991 -2.2430
 1829TIP3   OH226977   6.349   2.084  13.454 -0.1109 -0.1501  0.3160
 1829TIP3    H126978   6.390   2.171  13.451  2.4392 -1.1843  1.5197
 1829TIP3    H226979   6.295   2.086  13.533 -1.0710  0.6986 -0.3375
 1830TIP3   OH226980   0.002   0.726   3.904 -0.2204  0.0679 -0.0698
 1830TIP3    H126981   0.005   0.663   3.976  1.7526  0.5139  0.3191
 1830TIP3    H226982  -0.033   0.806   3.943 -0.3947 -0.0714  0.0593
 1831TIP3   OH226983   2.958   3.472   2.353  0.3845 -0.0022 -0.0582
 1831TIP3    H126984   2.875   3.504   2.386  0.6754  1.4190 -0.6331
 1831TIP3    H226985   3.022   3.539   2.377  1.3617 -1.0073  0.2686
 1832TIP3   OH226986   0.941   4.567  15.444  0.3100  0.5524  0.6807
 1832TIP3    H126987   0.893   4.644  15.475  0.9192  1.1586  0.1480
 1832TIP3    H226988   1.033   4.593  15.448  0.4956  0.0048  0.0866
 1833TIP3   OH226989   6.438   3.378  10.527 -0.2677 -0.4914 -0.2604
 1833TIP3    H126990   6.531   3.365  10.506 -0.1656  0.0105 -0.1212
 1833TIP3    H226991   6.411   3.296  10.568 -0.2018 -1.1134 -1.4141
 1834TIP3   OH226992   1.879   3.417   3.576 -0.4229  0.3832  0.1067
 1834TIP3    H126993   1.793   3.455   3.591 -0.3600  1.4721 -1.9363
 1834TIP3    H226994   1.940   3.486   3.602 -0.2608  0.7057 -1.0467
 1835TIP3   OH226995   6.643   1.612   3.275  0.2803 -0.2839 -0.2014
 1835TIP3    H126996   6.604   1.589   3.359  0.5237  0.7087  0.1951
 1835TIP3    H226997   6.726   1.564   3.273  0.4835  0.0385  0.3293
 1836TIP3   OH226998   1.665   1.306   3.540  0.1258 -0.3986 -0.3622
 1836TIP3    H126999   1.662   1.289   3.445  0.0569 -1.0611 -0.2511
 1836TIP3    H227000   1.740   1.254   3.571  0.6117  0.4103 -0.1617
 1837TIP3   OH227001   3.795   3.985  13.225 -0.1572  0.3212 -0.0327
 1837TIP3    H127002   3.718   4.042  13.221  0.4738  1.1439 -2.6650
 1837TIP3    H227003   3.868   4.045  13.238  0.1510 -0.4123  1.9740
 1838TIP3   OH227004   0.582   4.075   3.549  0.4555 -0.5878 -0.0514
 1838TIP3    H127005   0.525   4.111   3.481  0.7703 -0.0139 -0.0120
 1838TIP3    H227006   0.661   4.049   3.502 -0.2081 -2.3164 -0.2739
 1839TIP3   OH227007   5.502   3.955   1.709  0.7004 -0.0174  0.4861
 1839TIP3    H127008   5.586   3.974   1.750  1.4869 -0.2173 -1.0024
 1839TIP3    H227009   5.523   3.908   1.629 -0.7606  0.9259 -0.5075
 1840TIP3   OH227010   5.045   0.814  12.171  0.9026  0.5445 -0.2006
 1840TIP3    H127011   5.090   0.767  12.241  1.6036 -0.0214 -0.9985
 1840TIP3    H227012   5.078   0.773  12.090 -1.7256 -0.5284 -0.8261
 1841TIP3   OH227013   3.795   3.961   3.925 -0.0557  0.3226  0.1437
 1841TIP3    H127014   3.854   4.034   3.908 -0.5583  0.4939 -0.9230
 1841TIP3    H227015   3.811   3.900   3.853  0.8541 -0.9750  1.3730
 1842TIP3   OH227016   4.879   6.452  16.110 -0.7834 -0.3583  0.1447
 1842TIP3    H127017   4.916   6.521  16.055 -0.1047 -0.2416  0.7360
 1842TIP3    H227018   4.928   6.373  16.085  0.1235 -0.1386  1.1634
 1843TIP3   OH227019   0.474   5.057   1.687  0.2223  0.6061  0.1486
 1843TIP3    H127020   0.509   4.994   1.750  1.0749  1.6334  0.7335
 1843TIP3    H227021   0.551   5.104   1.655 -0.1503 -0.0337 -1.8625
 1844TIP3   OH227022   2.318   0.560  14.081 -0.6607 -0.4289 -0.7310
 1844TIP3    H127023   2.341   0.474  14.047 -0.6180 -0.9059  0.4639
 1844TIP3    H227024   2.239   0.584  14.034 -0.4122 -0.9060 -1.4140
 1845TIP3   OH227025   4.484   0.661   0.058  0.4188  0.2492 -0.0526
 1845TIP3    H127026   4.496   0.592  -0.007 -0.7280 -1.4037  1.3902
 1845TIP3    H227027   4.406   0.708   0.029 -0.1329 -0.5251  0.1310
 1846TIP3   OH227028   4.529   1.526   0.363 -0.5469 -0.0972  0.1818
 1846TIP3    H127029   4.441   1.522   0.399 -0.6354  0.0347 -0.0227
 1846TIP3    H227030   4.566   1.439   0.379 -0.6632 -0.1062  0.3958
 1847TIP3   OH227031   2.795   5.112   5.542 -0.1653  0.5375  0.1967
 1847TIP3    H127032   2.702   5.111   5.567 -0.6610 -0.0555 -1.5710
 1847TIP3    H227033   2.806   5.195   5.495  0.7151  1.5574  2.0947
 1848TIP3   OH227034   5.263   0.850   3.508 -0.1642 -0.2496 -0.4165
 1848TIP3    H127035   5.216   0.783   3.459 -1.4182  0.1115  0.2315
 1848TIP3    H227036   5.196   0.890   3.564  0.8570  0.5337  0.2944
 1849TIP3   OH227037   5.357   5.012  15.973  0.3866 -0.6894 -0.3479
 1849TIP3    H127038   5.408   4.949  15.922 -2.8507 -3.3417 -0.6588
 1849TIP3    H227039   5.319   5.070  15.908  1.6038  0.2811 -0.2422
 1850TIP3   OH227040   3.758   4.253  11.270  0.0435 -0.4733 -0.2785
 1850TIP3    H127041   3.680   4.255  11.325  0.3275 -3.2275  0.3996
 1850TIP3    H227042   3.725   4.253  11.181 -0.7700 -1.4237 -0.0006
 1851TIP3   OH227043   2.634   6.695  15.066  0.3276 -0.1404  0.3828
 1851TIP3    H127044   2.697   6.761  15.095  0.8451 -1.0153  1.3254
 1851TIP3    H227045   2.624   6.711  14.972 -0.8152  2.2948  0.8545
 1852TIP3   OH227046   3.796   2.653  12.525 -0.7722  0.6007  0.6991
 1852TIP3    H127047   3.859   2.581  12.520 -0.5638  0.8139  0.1510
 1852TIP3    H227048   3.743   2.633  12.602  0.6901  1.0222  1.8368
 1853TIP3   OH227049   5.132   6.657  13.619  0.1512  0.2290 -0.6403
 1853TIP3    H127050   5.130   6.579  13.674 -0.9201  1.8357  1.7829
 1853TIP3    H227051   5.214   6.700  13.642 -0.5216  1.1515  0.0970
 1854TIP3   OH227052   5.761   6.055   3.541 -0.4746  0.1220  0.2512
 1854TIP3    H127053   5.807   6.139   3.541 -1.2827  0.6088 -1.4234
 1854TIP3    H227054   5.673   6.076   3.511 -1.1409 -1.1296  1.2260
 1855TIP3   OH227055   5.434   2.437   1.049  0.2367 -0.6444 -0.6631
 1855TIP3    H127056   5.482   2.380   0.989  0.1647 -0.8148 -0.5612
 1855TIP3    H227057   5.502   2.492   1.089  0.0985  0.6560 -2.1514
 1856TIP3   OH227058   5.130   2.423  14.736  0.1573  0.1459  0.0886
 1856TIP3    H127059   5.061   2.486  14.759  1.1781  1.0270  0.8532
 1856TIP3    H227060   5.087   2.360  14.678 -1.8709 -0.6736  2.3253
 1857TIP3   OH227061   4.304   0.740   1.247 -0.2270  0.0891 -0.1078
 1857TIP3    H127062   4.370   0.692   1.297 -0.2190 -0.6822 -0.8441
 1857TIP3    H227063   4.247   0.779   1.314  0.8474  0.5986  0.5277
 1858TIP3   OH227064   4.505   3.845  13.912 -0.0068  0.3590  0.1569
 1858TIP3    H127065   4.525   3.880  13.825 -2.1766 -0.3535 -0.7011
 1858TIP3    H227066   4.439   3.905  13.948 -0.0838 -0.0746  0.7547
 1859TIP3   OH227067   5.875   6.564   3.868  0.1758  0.2647 -0.3482
 1859TIP3    H127068   5.914   6.630   3.925  2.0237  0.2326 -1.4953
 1859TIP3    H227069   5.799   6.607   3.830  0.7143  1.3529 -0.2230
 1860TIP3   OH227070   6.331   0.941  15.501 -0.4047 -0.3038 -0.1769
 1860TIP3    H127071   6.341   1.020  15.448  2.5692 -0.0293  0.5932
 1860TIP3    H227072   6.295   0.972  15.584 -0.9049 -0.0489 -0.4858
 1861TIP3   OH227073   0.493   2.424  12.254 -0.3470  0.4723  0.3245
 1861TIP3    H127074   0.554   2.496  12.239  0.3771 -0.1227  0.3533
 1861TIP3    H227075   0.447   2.447  12.334 -1.2174  1.6330 -0.4755
 1862TIP3   OH227076   1.794   3.284  16.691 -0.0259  0.6914  0.5474
 1862TIP3    H127077   1.701   3.260  16.687  0.3481 -0.9104  1.0554
 1862TIP3    H227078   1.794   3.371  16.730 -1.2546  0.2579  1.5750
 1863TIP3   OH227079   1.633   1.476   4.942 -0.8106 -0.5510 -0.0041
 1863TIP3    H127080   1.671   1.556   4.979  1.3731 -1.2308 -0.6297
 1863TIP3    H227081   1.608   1.501   4.853 -3.4050  0.3050  0.8668
 1864TIP3   OH227082   2.268   3.816   3.622 -0.1653 -0.3192 -0.1196
 1864TIP3    H127083   2.189   3.781   3.581 -0.8858  0.7934  0.2806
 1864TIP3    H227084   2.297   3.886   3.564  0.0725 -0.1994  0.1394
 1865TIP3   OH227085   5.828   1.821  17.039 -0.1886 -0.2463 -0.0571
 1865TIP3    H127086   5.916   1.797  17.068  0.3859 -0.0742 -1.5909
 1865TIP3    H227087   5.839   1.848  16.948 -1.7651  0.1977 -0.1433
 1866TIP3   OH227088   1.383   2.249   4.066 -0.2861  0.3396 -0.5160
 1866TIP3    H127089   1.375   2.275   4.158  0.0487  0.1840 -0.4432
 1866TIP3    H227090   1.382   2.331   4.018  0.4513  0.4774 -0.3068
 1867TIP3   OH227091   0.432   2.206   1.788  0.1571  1.0643 -0.0327
 1867TIP3    H127092   0.380   2.126   1.796  0.3672  1.0487  1.6215
 1867TIP3    H227093   0.480   2.196   1.706 -0.8361  0.1141 -0.5202
 1868TIP3   OH227094   4.988   5.173  12.696  0.0212  0.3316  0.1663
 1868TIP3    H127095   4.930   5.214  12.632 -1.0838  1.4918  1.8312
 1868TIP3    H227096   5.007   5.087  12.660 -0.8558  0.8164 -1.5340
 1869TIP3   OH227097   0.718   5.486   4.239 -0.2384  0.1383  0.1987
 1869TIP3    H127098   0.719   5.548   4.312  0.8943  0.2302  0.1100
 1869TIP3    H227099   0.809   5.464   4.224 -0.3727  0.7441 -1.7276
 1870TIP3   OH227100   4.680   5.527  12.054 -0.0653 -0.0449  0.2797
 1870TIP3    H127101   4.763   5.544  12.008  0.0575  0.0103  0.5221
 1870TIP3    H227102   4.706   5.512  12.145 -0.3269  0.0028  0.3615
 1871TIP3   OH227103   0.018   0.368   5.024  0.7617 -0.6222  0.2043
 1871TIP3    H127104   0.066   0.443   5.057  0.4274  0.1359 -1.0019
 1871TIP3    H227105   0.080   0.320   4.969  0.1990  0.3523 -1.3457
 1872TIP3   OH227106   3.576   2.569   3.175  0.2500 -0.4378 -0.3104
 1872TIP3    H127107   3.546   2.657   3.194 -0.1715 -1.1201  2.6822
 1872TIP3    H227108   3.641   2.580   3.105 -3.0803  1.6315 -3.3947
 1873TIP3   OH227109   5.617   5.558  13.401 -0.3212 -0.1136  0.4462
 1873TIP3    H127110   5.561   5.542  13.476 -2.4589 -0.2074 -1.0692
 1873TIP3    H227111   5.559   5.596  13.335  1.5716  0.4600 -0.9885
 1874TIP3   OH227112   1.295   0.866  14.110  0.2110 -0.1568 -0.0140
 1874TIP3    H127113   1.295   0.910  14.195  0.1069 -2.1381  1.0570
 1874TIP3    H227114   1.291   0.773  14.131  0.6336 -0.7115 -2.1958
 1875TIP3   OH227115   0.176   1.721   4.639  0.3834 -0.0729  0.2881
 1875TIP3    H127116   0.256   1.717   4.692  0.1836  2.6614  0.9024
 1875TIP3    H227117   0.204   1.752   4.554  0.1797 -0.8886 -0.0936
 1876TIP3   OH227118   0.367   5.100  16.604 -0.2193  0.6790 -0.6743
 1876TIP3    H127119   0.296   5.156  16.635  0.2779  0.6319  0.5811
 1876TIP3    H227120   0.445   5.134  16.647  0.4759  0.4751 -1.7250
 1877TIP3   OH227121   1.092   0.883  11.622 -0.6713 -0.0932  0.5196
 1877TIP3    H127122   1.129   0.830  11.693 -1.2341  1.3272  1.9680
 1877TIP3    H227123   1.163   0.893  11.559  0.9039  1.0380  2.3534
 1878TIP3   OH227124   6.074   4.738   5.489 -0.1472  0.3899  0.7041
 1878TIP3    H127125   6.018   4.676   5.443  0.6433  0.4572 -0.4076
 1878TIP3    H227126   6.024   4.763   5.567 -2.3356  1.6406 -0.9934
 1879TIP3   OH227127   4.965   5.768  13.759 -0.0798 -0.0200  0.5172
 1879TIP3    H127128   5.060   5.757  13.752 -0.1289 -0.1276  0.0095
 1879TIP3    H227129   4.946   5.754  13.852  0.1999 -1.6297  0.3671
 1880TIP3   OH227130   4.626   0.391   3.911  0.3271  0.6090 -0.2273
 1880TIP3    H127131   4.620   0.357   4.000 -1.9493  2.7418  0.5535
 1880TIP3    H227132   4.562   0.339   3.861 -0.4155  1.2412  0.0596
 1881TIP3   OH227133   5.468   1.697   0.555 -0.5890  0.2847  0.1569
 1881TIP3    H127134   5.494   1.606   0.541  0.0788  0.5151 -0.1414
 1881TIP3    H227135   5.377   1.691   0.584 -1.5734 -0.3487 -2.6778
 1882TIP3   OH227136   5.550   0.514   0.499 -0.0964 -1.0985  0.2452
 1882TIP3    H127137   5.504   0.431   0.483 -1.6097 -0.1591 -0.4830
 1882TIP3    H227138   5.480   0.578   0.512  0.9930  0.4058 -0.9392
 1883TIP3   OH227139   5.635   2.381   3.300  0.2119  0.0473 -0.0141
 1883TIP3    H127140   5.602   2.294   3.323  1.2400 -0.2317  0.4868
 1883TIP3    H227141   5.725   2.382   3.333 -0.4835  2.1528  2.1198
 1884TIP3   OH227142   1.973   2.157  14.164 -0.6334  0.2789 -0.3376
 1884TIP3    H127143   1.950   2.072  14.202 -0.0708  0.1805 -0.2051
 1884TIP3    H227144   2.017   2.203  14.235  1.2325 -0.2442 -1.0977
 1885TIP3   OH227145   6.284   6.330   2.475 -0.0469 -0.0036  0.4194
 1885TIP3    H127146   6.201   6.345   2.520 -0.0532  1.6837 -0.0769
 1885TIP3    H227147   6.268   6.255   2.418 -1.3548  0.5433  0.0324
 1886TIP3   OH227148   4.892   5.591   5.741 -0.0784 -0.8892  0.1286
 1886TIP3    H127149   4.833   5.666   5.738 -0.6363 -1.3398 -1.7571
 1886TIP3    H227150   4.977   5.628   5.763 -0.7737 -0.0495  1.5731
 1887TIP3   OH227151   1.357   5.710   4.892  0.6084 -0.6548  0.5754
 1887TIP3    H127152   1.391   5.630   4.933  1.2417 -0.6566  0.0623
 1887TIP3    H227153   1.429   5.741   4.837 -0.6044 -1.3129 -1.4966
 1888TIP3   OH227154   2.414   3.412   4.327  0.5699  0.5095 -0.0446
 1888TIP3    H127155   2.365   3.490   4.352 -1.0223 -0.3766 -0.2749
 1888TIP3    H227156   2.503   3.429   4.358 -0.0160  1.8815  1.0095
 1889TIP3   OH227157   0.550   3.931   4.487 -0.1298 -0.6659 -0.5966
 1889TIP3    H127158   0.585   4.016   4.458 -0.1132 -0.5528 -0.2535
 1889TIP3    H227159   0.557   3.875   4.411  0.7718 -0.6374 -0.5460
 1890TIP3   OH227160   2.013   3.517  16.153 -0.7308  0.1503  0.4330
 1890TIP3    H127161   1.994   3.509  16.060  1.0357  2.0793 -0.1745
 1890TIP3    H227162   1.961   3.592  16.181 -0.5040  0.1902  0.7520
 1891TIP3   OH227163   4.212   4.519  15.951  0.2029 -0.1378  0.6285
 1891TIP3    H127164   4.296   4.563  15.943  1.0512 -1.6570  0.8933
 1891TIP3    H227165   4.232   4.434  15.990 -1.4534 -0.5249  0.7260
 1892TIP3   OH227166   1.179   6.057   1.899 -0.0754 -0.0832  0.4157
 1892TIP3    H127167   1.249   6.038   1.837  0.5105 -0.7509  1.2605
 1892TIP3    H227168   1.127   5.976   1.902 -1.6614  0.8223 -1.1622
 1893TIP3   OH227169   4.861   4.228  16.818 -0.0299 -0.1977 -0.3074
 1893TIP3    H127170   4.821   4.221  16.905  0.0465 -0.6451 -0.3035
 1893TIP3    H227171   4.789   4.212  16.758  0.1217 -0.9606 -0.3021
 1894TIP3   OH227172   5.098   5.229   1.771  0.0595  0.5496  0.1729
 1894TIP3    H127173   5.093   5.299   1.706 -0.5575  1.6516  1.3497
 1894TIP3    H227174   5.050   5.156   1.732 -0.0646  1.0950 -0.7169
 1895TIP3   OH227175   3.809   3.539  16.587 -0.2414 -0.3327  0.1625
 1895TIP3    H127176   3.781   3.508  16.673  1.5988 -2.4859  0.0848
 1895TIP3    H227177   3.900   3.566  16.600  0.2689 -1.3196 -1.2290
 1896TIP3   OH227178   1.309   0.723  16.486 -0.4422  0.0005 -0.4144
 1896TIP3    H127179   1.233   0.750  16.434 -0.4236 -1.2707 -1.1427
 1896TIP3    H227180   1.378   0.706  16.422 -0.3859 -1.4839 -0.0124
 1897TIP3   OH227181   6.610   2.403  15.825 -0.1987  0.5234  0.0036
 1897TIP3    H127182   6.570   2.330  15.873 -0.1252  0.6080  0.1931
 1897TIP3    H227183   6.635   2.466  15.892 -1.3568  1.2722 -0.2389
 1898TIP3   OH227184   6.336   6.297  16.305  0.0455  0.1554  0.2614
 1898TIP3    H127185   6.360   6.261  16.220  0.0359 -0.9011  0.6836
 1898TIP3    H227186   6.416   6.290  16.357 -0.1979 -0.0541  0.6094
 1899TIP3   OH227187   1.662   0.519   1.428 -0.8777  0.0173 -0.4684
 1899TIP3    H127188   1.754   0.519   1.403  0.3477  2.0271  3.3053
 1899TIP3    H227189   1.652   0.444   1.487 -1.1963  0.7991  0.4925
 1900TIP3   OH227190   4.012   3.613   1.756 -0.5117 -0.7524 -0.3635
 1900TIP3    H127191   4.068   3.647   1.686 -1.4608  0.9439 -0.3419
 1900TIP3    H227192   4.002   3.520   1.736  2.3776 -1.1799 -0.2993
 1901TIP3   OH227193   1.827   5.539   3.675 -0.0254  0.3568  0.1151
 1901TIP3    H127194   1.856   5.479   3.605 -2.5852  0.3690 -1.0670
 1901TIP3    H227195   1.859   5.498   3.755  1.8257 -0.4002 -0.9263
 1902TIP3   OH227196   0.702   3.945   0.719 -0.2987 -0.1123 -0.5660
 1902TIP3    H127197   0.711   4.005   0.793  0.1659 -0.4780 -0.3186
 1902TIP3    H227198   0.790   3.942   0.680  0.0435 -1.6482  0.2366
 1903TIP3   OH227199   2.606   2.346  16.189  0.5289 -0.2637  0.2629
 1903TIP3    H127200   2.595   2.420  16.129  1.6878 -0.5833 -0.3678
 1903TIP3    H227201   2.521   2.302  16.189 -0.1055  0.9138  0.4612
 1904TIP3   OH227202   2.707   0.220   1.014 -0.0302 -0.4959  0.4358
 1904TIP3    H127203   2.761   0.180   1.082 -0.6694 -1.5443  0.3460
 1904TIP3    H227204   2.738   0.179   0.933 -0.0302 -0.0739  0.2179
 1905TIP3   OH227205   2.542   1.813   5.381 -0.2127 -0.1603 -0.5149
 1905TIP3    H127206   2.604   1.885   5.388 -0.2595 -0.2630  1.7084
 1905TIP3    H227207   2.456   1.854   5.388 -0.2342 -0.3907  0.9734
 1906TIP3   OH227208   5.681   0.089  16.713  0.1542 -0.0121 -0.5251
 1906TIP3    H127209   5.718   0.076  16.626  0.9270  0.0285 -0.2127
 1906TIP3    H227210   5.719   0.171  16.744 -0.3306  0.1198 -0.2532
 1907TIP3   OH227211   5.337   4.327   4.780  0.1038 -0.2437  0.2562
 1907TIP3    H127212   5.397   4.264   4.819  0.7007 -1.3464 -2.2334
 1907TIP3    H227213   5.266   4.274   4.744 -0.5228  0.7203  0.0267
 1908TIP3   OH227214   1.778   1.072  14.747  0.5118  0.2083 -0.0027
 1908TIP3    H127215   1.804   1.001  14.807  1.0332  0.0094 -0.4520
 1908TIP3    H227216   1.817   1.047  14.664 -0.6545  0.2053 -0.5713
 1909TIP3   OH227217   6.620   4.875  13.918  0.5502  0.1334  0.1982
 1909TIP3    H127218   6.576   4.933  13.856  0.5405  0.0351  0.1122
 1909TIP3    H227219   6.712   4.878  13.893  0.2287 -1.8683 -1.4516
 1910TIP3   OH227220   1.940   3.971  12.307  0.2260 -0.0900  0.0523
 1910TIP3    H127221   1.987   4.030  12.248  2.0991 -1.3855  0.1641
 1910TIP3    H227222   1.991   3.972  12.388 -0.1800 -1.2238  0.3341
 1911TIP3   OH227223   3.233   4.578   3.302 -0.6496  1.0175  0.1539
 1911TIP3    H127224   3.255   4.663   3.340  0.5582  1.1951 -0.8829
 1911TIP3    H227225   3.206   4.525   3.377  0.3988  1.7576  1.0954
 1912TIP3   OH227226   6.168   0.546  12.389  0.3958 -0.2084 -0.3632
 1912TIP3    H127227   6.171   0.628  12.340  2.2327  0.9017  1.4395
 1912TIP3    H227228   6.162   0.573  12.481  0.2079 -2.1248  0.2286
 1913TIP3   OH227229   4.438   4.590   0.517 -0.4534 -0.5299 -0.1742
 1913TIP3    H127230   4.347   4.609   0.493 -0.0488  0.7303 -0.7814
 1913TIP3    H227231   4.431   4.523   0.585 -1.9969  2.1708  2.5200
 1914TIP3   OH227232   6.294   1.736   2.014 -0.1380 -0.3747  0.4145
 1914TIP3    H127233   6.258   1.761   2.099  0.8305  1.0850  0.4409
 1914TIP3    H227234   6.222   1.753   1.952 -0.2817  0.2524  0.7429
 1915TIP3   OH227235   2.289   1.994  17.221 -0.2772  0.1214 -0.8651
 1915TIP3    H127236   2.354   2.064  17.227 -0.3920  0.4873 -3.0032
 1915TIP3    H227237   2.335   1.923  17.176 -1.1932  0.2130 -1.9951
 1916TIP3   OH227238   6.270   4.440  14.044 -0.0086  0.2386 -0.5306
 1916TIP3    H127239   6.302   4.462  14.132  0.7995  0.5243 -0.8824
 1916TIP3    H227240   6.182   4.406  14.058  0.7969 -1.5884  0.6082
 1917TIP3   OH227241   3.004   4.641  13.809  0.0196  0.7046 -0.2340
 1917TIP3    H127242   2.953   4.708  13.763  0.6181  0.1945 -1.6801
 1917TIP3    H227243   3.038   4.584  13.740  1.1128  0.0195  0.8218
 1918TIP3   OH227244   3.811   0.650  15.557  0.3952 -0.4584 -0.1471
 1918TIP3    H127245   3.857   0.644  15.641  0.9437  0.7641 -0.3398
 1918TIP3    H227246   3.862   0.594  15.498  0.3904 -0.7971  0.1652
 1919TIP3   OH227247   2.589   4.765  13.030 -0.2185 -0.9510  0.9538
 1919TIP3    H127248   2.593   4.789  13.122  0.2259  2.3047  0.2114
 1919TIP3    H227249   2.676   4.728  13.010  0.8195  1.2029  1.2214
 1920TIP3   OH227250   4.665   1.530   0.996 -0.0377  0.0213  0.4877
 1920TIP3    H127251   4.645   1.469   1.067 -0.2025  0.2213  0.6166
 1920TIP3    H227252   4.580   1.550   0.957  0.2179 -1.5915 -1.0480
 1921TIP3   OH227253   3.183   2.322  16.438  0.4923 -0.0109 -0.0304
 1921TIP3    H127254   3.106   2.308  16.492  1.7592 -2.4383  1.2698
 1921TIP3    H227255   3.221   2.404  16.471 -0.4743  0.2023  0.5877
 1922TIP3   OH227256   6.374   1.954   5.228  0.2471 -0.1098  0.3831
 1922TIP3    H127257   6.448   1.960   5.168  2.2646 -0.9006  2.6126
 1922TIP3    H227258   6.318   1.886   5.191  0.3703  0.7467 -1.5291
 1923TIP3   OH227259   4.791   2.883   4.563 -0.2527  0.0737  0.0236
 1923TIP3    H127260   4.886   2.885   4.577 -0.2782 -0.7759  0.4057
 1923TIP3    H227261   4.781   2.862   4.470 -0.0470 -0.7866  0.1817
 1924TIP3   OH227262   1.934   5.686  15.244 -0.4301 -0.3405 -0.1319
 1924TIP3    H127263   1.849   5.725  15.222 -0.2998  1.0627  1.7190
 1924TIP3    H227264   1.949   5.709  15.335  1.6730 -1.1070 -0.2307
 1925TIP3   OH227265   4.090   4.565  13.148  0.3651  0.0916 -0.1227
 1925TIP3    H127266   3.998   4.566  13.122  0.6953 -0.6587 -1.3986
 1925TIP3    H227267   4.128   4.639  13.101  0.6238 -0.2385 -0.4338
 1926TIP3   OH227268   0.212   1.607   0.812  0.2005  0.2149  0.0963
 1926TIP3    H127269   0.306   1.594   0.796  0.0277 -0.7218 -0.2133
 1926TIP3    H227270   0.180   1.520   0.836 -0.5981  0.5303  0.1851
 1927TIP3   OH227271   5.965   0.069  10.897 -0.3441 -0.0123 -0.2042
 1927TIP3    H127272   5.994   0.044  10.809  0.7045 -1.1340  0.4301
 1927TIP3    H227273   6.017   0.147  10.918  0.7808 -0.8352  0.1347
 1928TIP3   OH227274   5.341   0.052  11.771 -0.2746 -0.0385  0.0329
 1928TIP3    H127275   5.245   0.051  11.772 -0.2950  1.4094  0.6297
 1928TIP3    H227276   5.364   0.101  11.692  0.0297 -1.7855 -1.0221
 1929TIP3   OH227277   4.095   5.300   5.337 -0.1768  0.2691 -0.5548
 1929TIP3    H127278   4.043   5.373   5.304  0.2887  0.1005 -1.6981
 1929TIP3    H227279   4.154   5.278   5.265 -0.2768 -1.2083 -0.2172
 1930TIP3   OH227280   2.325   3.807   3.057  0.5082 -0.1610  0.1229
 1930TIP3    H127281   2.231   3.794   3.047  0.4260  0.5054 -0.0202
 1930TIP3    H227282   2.342   3.893   3.019  0.8799  0.5522  1.8347
 1931TIP3   OH227283   0.284   5.035   4.047  0.2905  0.2356 -0.0540
 1931TIP3    H127284   0.223   5.092   4.001 -2.0038 -2.4913 -0.6483
 1931TIP3    H227285   0.319   4.977   3.979 -1.1084 -2.1000  1.0782
 1932TIP3   OH227286   6.323   1.385  14.400 -0.0742 -0.1811 -0.1740
 1932TIP3    H127287   6.390   1.434  14.352  1.0270  0.0523  1.5022
 1932TIP3    H227288   6.253   1.449  14.416 -0.4519 -0.2635 -1.4227
 1933TIP3   OH227289   0.279   3.110   3.692  0.0063 -0.1224 -0.2536
 1933TIP3    H127290   0.232   3.168   3.751 -0.5769 -2.1661  1.3825
 1933TIP3    H227291   0.218   3.095   3.620 -0.8645 -0.7082  0.5848
 1934TIP3   OH227292   5.764   5.917   5.491 -0.7557 -0.1053 -0.2099
 1934TIP3    H127293   5.798   5.830   5.469 -1.4185 -1.0646  2.2478
 1934TIP3    H227294   5.816   5.977   5.437  1.9697 -1.7887  0.3534
 1935TIP3   OH227295   6.525   5.612  14.674  0.2858  0.0683  0.1340
 1935TIP3    H127296   6.614   5.591  14.701 -0.1123 -1.1520  0.5626
 1935TIP3    H227297   6.482   5.641  14.755  0.6154  1.9342 -0.3052
 1936TIP3   OH227298   5.067   4.791  14.428 -0.1631  0.0802 -0.4377
 1936TIP3    H127299   5.019   4.847  14.489  2.2970  0.9470  0.8428
 1936TIP3    H227300   5.134   4.848  14.390  2.9450 -1.9589  1.4683
 1937TIP3   OH227301   2.052   0.686   3.340 -0.3192 -0.0239 -0.2136
 1937TIP3    H127302   1.992   0.757   3.318  1.2938  1.3594 -0.3735
 1937TIP3    H227303   2.088   0.659   3.255  0.9795  0.7623  0.0627
 1938TIP3   OH227304   0.067   2.180  13.142 -0.2828  0.9835 -0.0745
 1938TIP3    H127305  -0.012   2.230  13.122 -1.0201  0.2005  0.7652
 1938TIP3    H227306   0.035   2.091  13.160  0.3279  1.3268  3.4286
 1939TIP3   OH227307   3.023   1.842   4.453 -0.3462 -0.1151 -0.0992
 1939TIP3    H127308   3.003   1.834   4.359  0.7748 -0.9820 -0.2801
 1939TIP3    H227309   3.018   1.753   4.486  0.0436  0.0881  0.5112
 1940TIP3   OH227310   6.280   6.405   2.995  0.4133  0.7779 -0.5482
 1940TIP3    H127311   6.332   6.358   2.931 -1.9110 -2.8882 -0.0330
 1940TIP3    H227312   6.211   6.447   2.943 -0.5218 -0.8369 -0.6748
 1941TIP3   OH227313   5.597   5.538  16.768 -0.2525 -0.3253 -0.8304
 1941TIP3    H127314   5.616   5.446  16.787 -0.0304 -0.6776 -2.5755
 1941TIP3    H227315   5.636   5.553  16.682 -0.4676  1.3617 -0.6678
 1942TIP3   OH227316   0.422   3.109   4.043 -0.2449 -0.5185  0.4361
 1942TIP3    H127317   0.353   3.044   4.024  0.4317 -0.7197 -1.6581
 1942TIP3    H227318   0.386   3.162   4.114 -2.7575 -0.3571 -0.8358
 1943TIP3   OH227319   2.866   0.834   5.834  0.4859 -0.2011 -0.8433
 1943TIP3    H127320   2.809   0.771   5.877  1.6122  0.2627  1.5155
 1943TIP3    H227321   2.808   0.905   5.806 -0.4047 -0.9282 -0.8507
 1944TIP3   OH227322   4.674   6.620   3.844  0.3054  0.1601  0.2816
 1944TIP3    H127323   4.748   6.622   3.905  0.1082  1.3792  0.5052
 1944TIP3    H227324   4.681   6.534   3.801  2.5130  0.6907 -0.5522
 1945TIP3   OH227325   0.287   1.336   3.354  0.3765  0.2263  0.2545
 1945TIP3    H127326   0.353   1.292   3.301  0.8150  0.5714  0.4986
 1945TIP3    H227327   0.240   1.266   3.399 -0.8597 -0.1488 -1.5489
 1946TIP3   OH227328   1.070   3.315  13.064 -0.1251  0.0350 -0.2311
 1946TIP3    H127329   1.087   3.272  13.149 -0.2649  0.4037 -0.0141
 1946TIP3    H227330   1.124   3.266  13.002 -0.0438 -0.2602  0.0670
 1947TIP3   OH227331   3.445   2.776   1.746 -0.2188  0.1394 -0.2428
 1947TIP3    H127332   3.471   2.867   1.735  0.1330  0.0635 -0.0640
 1947TIP3    H227333   3.484   2.750   1.829  0.2139 -0.3569 -0.5943
 1948TIP3   OH227334   1.618   3.611   6.516  0.0429  0.1386 -0.1294
 1948TIP3    H127335   1.547   3.553   6.544  0.5339 -0.0275  0.7955
 1948TIP3    H227336   1.620   3.602   6.420 -1.0622  0.0137 -0.1509
 1949TIP3   OH227337   0.362   2.280   3.263  0.1252  0.5829 -0.6341
 1949TIP3    H127338   0.316   2.228   3.197 -1.8749  1.0792  0.3012
 1949TIP3    H227339   0.352   2.370   3.232  0.5735  0.6885 -0.4719
 1950TIP3   OH227340   2.518   1.167  15.510 -0.1599  0.0373 -0.2900
 1950TIP3    H127341   2.564   1.233  15.562 -0.5618  2.1996 -2.4605
 1950TIP3    H227342   2.429   1.201  15.501 -0.5133 -1.0471 -1.1010
 1951TIP3   OH227343   1.394   1.816  12.976 -0.4365 -0.3597  0.3494
 1951TIP3    H127344   1.337   1.874  12.925  0.6425  0.1025 -0.3647
 1951TIP3    H227345   1.418   1.868  13.053  0.5934  0.1844 -0.3298
 1952TIP3   OH227346   1.382   0.443  11.724 -0.1942  0.0667 -0.2139
 1952TIP3    H127347   1.449   0.374  11.727 -0.9580 -0.6448  1.2659
 1952TIP3    H227348   1.308   0.407  11.773 -0.7446  1.8302  0.3174
 1953TIP3   OH227349   4.594   3.643  15.804  0.0752  0.9039  0.5420
 1953TIP3    H127350   4.501   3.631  15.824  0.2772 -0.8966  0.6086
 1953TIP3    H227351   4.597   3.712  15.738 -1.6489 -1.2832 -2.0134
 1954TIP3   OH227352   6.557   3.638  15.961 -0.2576  0.0681 -0.0354
 1954TIP3    H127353   6.562   3.624  16.055 -1.1734  0.7872  0.1245
 1954TIP3    H227354   6.565   3.733  15.950 -0.1946 -0.0060 -0.6802
 1955TIP3   OH227355   4.880   6.561   5.302  0.1032  0.1906  0.1866
 1955TIP3    H127356   4.889   6.530   5.392 -0.1498  0.1144  0.1879
 1955TIP3    H227357   4.889   6.483   5.248 -1.7820 -0.1276  0.2487
 1956TIP3   OH227358   3.628   0.901   3.024  0.3750 -0.6126 -0.3858
 1956TIP3    H127359   3.708   0.921   2.977  0.7853  2.1289  1.2755
 1956TIP3    H227360   3.657   0.873   3.111 -0.4382  0.0428  0.1171
 1957TIP3   OH227361   0.909   0.293   4.247  0.1031  0.0614  0.6730
 1957TIP3    H127362   0.865   0.235   4.310  1.0672 -0.0777  1.2351
 1957TIP3    H227363   0.999   0.296   4.277  0.1266  1.6504  0.4850
 1958TIP3   OH227364   4.691   1.228   1.884 -0.0942  0.6381 -0.1164
 1958TIP3    H127365   4.608   1.243   1.838 -0.1717  0.5665  0.0012
 1958TIP3    H227366   4.707   1.134   1.876 -0.1708  0.6052  0.1101
 1959TIP3   OH227367   0.637   2.035  15.153  0.3057 -0.1252  0.0501
 1959TIP3    H127368   0.604   1.970  15.215  1.1365  0.3269  0.9906
 1959TIP3    H227369   0.568   2.041  15.086 -1.2068  0.2960  1.5699
 1960TIP3   OH227370   3.698   0.546  15.153 -0.1231  0.0216  0.0408
 1960TIP3    H127371   3.746   0.559  15.072  2.6149 -1.3108  1.3249
 1960TIP3    H227372   3.616   0.505  15.126  0.3650  0.3244 -2.0705
 1961TIP3   OH227373   6.337   2.423  14.783  0.7288  0.1645  0.7165
 1961TIP3    H127374   6.308   2.485  14.851 -0.8409  0.9840 -0.6419
 1961TIP3    H227375   6.389   2.358  14.831 -0.0438  0.9002  2.6592
 1962TIP3   OH227376   3.227   3.580  12.863 -0.2475 -0.2286 -0.5040
 1962TIP3    H127377   3.156   3.544  12.811 -0.4242 -1.2668  0.4339
 1962TIP3    H227378   3.231   3.525  12.941  1.6657 -0.2777 -0.5936
 1963TIP3   OH227379   6.204   5.021   0.733 -0.3547  0.6246 -0.2824
 1963TIP3    H127380   6.227   4.938   0.773  0.6421  0.1918 -1.6686
 1963TIP3    H227381   6.245   5.087   0.788  1.4454  0.0185 -0.8407
 1964TIP3   OH227382   3.845   1.964   6.675  0.2465 -0.4031  0.1298
 1964TIP3    H127383   3.775   1.901   6.692  1.2117 -1.1798  1.4210
 1964TIP3    H227384   3.800   2.046   6.655 -1.0432 -1.5326 -1.8444
 1965TIP3   OH227385   5.063   3.888   1.284 -0.3921 -0.3565  0.1713
 1965TIP3    H127386   5.119   3.901   1.360  0.6147  0.4544 -0.6756
 1965TIP3    H227387   4.975   3.912   1.314 -0.0340 -0.1876  1.1115
 1966TIP3   OH227388   1.753   3.004   3.236 -0.4458 -0.3012 -0.4540
 1966TIP3    H127389   1.844   3.031   3.251 -0.5394  0.2590 -0.8688
 1966TIP3    H227390   1.730   2.954   3.315 -0.1633  0.5639  0.1977
 1967TIP3   OH227391   1.023   5.614  17.365 -0.2470  0.0610  0.1027
 1967TIP3    H127392   1.022   5.539  17.306 -1.1249 -0.0624  0.2565
 1967TIP3    H227393   1.009   5.690  17.308  1.4371  0.2040 -0.1544
 1968TIP3   OH227394   1.988   1.842   4.818  0.2726 -0.2831 -0.1435
 1968TIP3    H127395   2.015   1.891   4.741  0.7359 -0.9324 -0.4116
 1968TIP3    H227396   2.059   1.778   4.831 -0.1491 -0.6530  0.3874
 1969TIP3   OH227397   3.134   1.883   6.588 -0.2541 -0.7013  0.8150
 1969TIP3    H127398   3.046   1.851   6.607 -0.0412  0.2330  3.9286
 1969TIP3    H227399   3.193   1.816   6.622  0.2346 -0.2694  0.8377
 1970TIP3   OH227400   2.659   2.416   3.530  0.7372 -0.4482  0.2453
 1970TIP3    H127401   2.749   2.402   3.501  0.5809 -0.8574 -0.0588
 1970TIP3    H227402   2.620   2.329   3.530  0.2890 -0.2523  0.2037
 1971TIP3   OH227403   0.465   5.520   4.924  0.0699 -0.0079 -0.2227
 1971TIP3    H127404   0.473   5.537   4.830 -0.9791  2.0229  0.0137
 1971TIP3    H227405   0.537   5.569   4.964  0.4417 -0.7695  0.0787
 1972TIP3   OH227406   1.184   6.730   0.577 -0.3465  0.1293  0.6933
 1972TIP3    H127407   1.097   6.750   0.543 -0.9415 -1.9899  0.8021
 1972TIP3    H227408   1.198   6.794   0.647 -2.0941  0.1154  1.1048
 1973TIP3   OH227409   1.190   3.514  15.705 -0.4458  0.2454 -0.1381
 1973TIP3    H127410   1.224   3.511  15.616  1.8038 -2.6327  0.6769
 1973TIP3    H227411   1.100   3.481  15.697 -0.0215 -0.6864 -1.2538
 1974TIP3   OH227412   1.791   2.418  13.825  0.4939  1.4577 -0.2727
 1974TIP3    H127413   1.784   2.431  13.919  0.2446 -1.6204  0.2355
 1974TIP3    H227414   1.882   2.439  13.805  0.7532  1.4191  0.7946
 1975TIP3   OH227415   0.626   5.172   4.407 -0.6293 -0.2354 -0.2746
 1975TIP3    H127416   0.614   5.251   4.354  1.5152 -0.3090 -0.9811
 1975TIP3    H227417   0.655   5.205   4.492  0.9823 -0.2144 -0.7895
 1976TIP3   OH227418   4.459   1.583  13.272 -0.3824 -1.2408 -0.0153
 1976TIP3    H127419   4.391   1.540  13.323 -3.4909  0.3891 -2.4243
 1976TIP3    H227420   4.464   1.532  13.191  1.4430 -1.4149  0.1714
 1977TIP3   OH227421   1.023   4.066   4.364  0.2686  0.7437  0.1141
 1977TIP3    H127422   0.981   3.980   4.357 -1.5140  1.6521 -1.0013
 1977TIP3    H227423   1.052   4.071   4.455 -0.7664 -0.5117  0.5407
 1978TIP3   OH227424   5.648   3.458   4.405 -0.3838 -0.1879 -0.1122
 1978TIP3    H127425   5.609   3.375   4.433  0.3148 -0.6823 -0.5704
 1978TIP3    H227426   5.736   3.434   4.376  0.4073  0.9484  1.2196
 1979TIP3   OH227427   0.477   6.458  16.338  0.0497  0.3901  0.0134
 1979TIP3    H127428   0.481   6.552  16.318 -2.4116  0.1101 -2.2787
 1979TIP3    H227429   0.556   6.422  16.298  0.1085  1.2589 -0.6989
 1980TIP3   OH227430   4.342   3.912   1.729  0.7341  0.2198 -0.1669
 1980TIP3    H127431   4.422   3.957   1.756  1.2481 -1.1083  0.6679
 1980TIP3    H227432   4.374   3.830   1.690 -0.2366 -0.7782  1.0776
 1981TIP3   OH227433   3.389   6.133  15.212 -0.0480 -0.3169 -0.3922
 1981TIP3    H127434   3.347   6.137  15.126 -0.7821  0.2545 -0.0234
 1981TIP3    H227435   3.359   6.050  15.249 -0.2139 -0.2831 -0.4503
 1982TIP3   OH227436   3.982   6.172  16.363 -0.3985 -0.0528 -0.1159
 1982TIP3    H127437   3.972   6.082  16.396 -0.1064  0.1876  0.6359
 1982TIP3    H227438   4.075   6.179  16.341  0.0810  0.7549  1.9346
 1983TIP3   OH227439   4.692   1.028   6.755  0.2293  0.0771  0.0088
 1983TIP3    H127440   4.722   1.015   6.665 -1.7944  2.0528 -1.0869
 1983TIP3    H227441   4.652   0.945   6.780  0.1856 -0.2915 -1.2264
 1984TIP3   OH227442   1.420   1.130  12.003 -0.1870  0.1914 -0.3873
 1984TIP3    H127443   1.496   1.189  12.007 -1.0402  1.3441 -0.6635
 1984TIP3    H227444   1.405   1.117  11.909 -0.9530  0.8199 -0.3618
 1985TIP3   OH227445   0.182   5.323   5.680 -0.2617  0.1013  0.5662
 1985TIP3    H127446   0.271   5.301   5.707  0.8874  1.2985 -1.9924
 1985TIP3    H227447   0.158   5.253   5.620 -0.9037  0.0387  0.8857
 1986TIP3   OH227448   3.470   5.098   2.102 -0.2578 -0.6211 -0.4429
 1986TIP3    H127449   3.535   5.166   2.084  0.7320 -0.8662  1.8370
 1986TIP3    H227450   3.487   5.031   2.035  1.1121 -0.1943 -0.5579
 1987TIP3   OH227451   2.188   3.909  11.112  0.0716  0.3534 -0.7570
 1987TIP3    H127452   2.142   3.862  11.181 -0.5867  0.2942 -1.2353
 1987TIP3    H227453   2.173   3.858  11.032 -1.5433  1.8774 -1.4991
 1988TIP3   OH227454   1.552   5.259   5.579 -0.5904  0.3045  0.4179
 1988TIP3    H127455   1.470   5.211   5.593 -1.0612  1.1465  0.6463
 1988TIP3    H227456   1.542   5.339   5.632  0.7160  0.0492  1.0869
 1989TIP3   OH227457   2.661   0.602  15.807  0.1475  0.7620  0.6170
 1989TIP3    H127458   2.702   0.519  15.780 -1.3604  0.3197 -0.4169
 1989TIP3    H227459   2.733   0.652  15.846  0.9129 -1.4064  2.1841
 1990TIP3   OH227460   1.378   1.725   1.576  0.2624  0.5208  0.0972
 1990TIP3    H127461   1.467   1.692   1.566  0.1611  0.0846  0.5936
 1990TIP3    H227462   1.387   1.820   1.570  0.6472  0.4468 -0.6832
 1991TIP3   OH227463   3.283   2.132   2.505  0.1610  0.4543 -0.1714
 1991TIP3    H127464   3.344   2.200   2.475  0.7812 -0.7218 -1.6975
 1991TIP3    H227465   3.201   2.152   2.461 -0.1000  1.0561  0.5608
 1992TIP3   OH227466   3.500   0.991  10.663 -0.1353  0.1586  0.3629
 1992TIP3    H127467   3.432   1.046  10.702 -1.3645 -0.7684 -0.3805
 1992TIP3    H227468   3.570   1.051  10.639 -0.4333  1.0678  1.6667
 1993TIP3   OH227469   5.063   2.751   1.477  0.2946  0.1732 -0.2826
 1993TIP3    H127470   5.093   2.698   1.403  0.8399 -2.7914  1.8607
 1993TIP3    H227471   5.115   2.720   1.551 -1.2505  1.9454  1.6581
 1994TIP3   OH227472   5.170   3.814  16.486 -0.0273 -0.2250  0.7109
 1994TIP3    H127473   5.138   3.844  16.571 -0.0219  4.8528 -0.7421
 1994TIP3    H227474   5.093   3.779  16.441 -1.0059  1.0484  1.3407
 1995TIP3   OH227475   2.760   0.027  11.460 -0.0317  1.0454 -0.0001
 1995TIP3    H127476   2.798  -0.023  11.532  0.6701 -2.4614 -2.5551
 1995TIP3    H227477   2.670   0.044  11.488  0.7904  1.7066  2.4964
 1996TIP3   OH227478   4.871   5.284  13.136  0.3259 -0.1809  0.0365
 1996TIP3    H127479   4.937   5.241  13.081 -1.0415 -0.7361 -1.2158
 1996TIP3    H227480   4.803   5.218  13.148 -1.1333  1.1167 -0.7038
 1997TIP3   OH227481   4.029   1.869  16.224  0.7622  0.3401  0.3084
 1997TIP3    H127482   4.082   1.795  16.194 -0.1502  0.1038 -0.7480
 1997TIP3    H227483   4.001   1.844  16.312  2.8905  0.7446  1.1895
 1998TIP3   OH227484   0.614   4.171  13.585  0.6891  0.4635  0.9009
 1998TIP3    H127485   0.521   4.169  13.609  0.0628 -0.6805 -1.2981
 1998TIP3    H227486   0.615   4.211  13.498  1.8850 -1.9749 -0.3086
 1999TIP3   OH227487   3.061   5.895   3.520 -0.6151  0.0634  0.1806
 1999TIP3    H127488   3.136   5.865   3.470 -1.5132  0.2724 -1.3665
 1999TIP3    H227489   3.081   5.986   3.542  0.2646 -0.3565  1.1928
 2000TIP3   OH227490   6.279   5.468   1.504  0.4945 -0.2015 -0.0255
 2000TIP3    H127491   6.205   5.507   1.456 -0.4325  0.1148  1.5874
 2000TIP3    H227492   6.303   5.392   1.451 -1.4781 -0.7398 -0.2588
 2001TIP3   OH227493   2.727   5.357   0.364 -0.8181  0.0314  0.6436
 2001TIP3    H127494   2.767   5.398   0.287 -0.2474 -1.0492  0.3476
 2001TIP3    H227495   2.653   5.414   0.386 -2.4563 -0.8126 -2.1072
 2002TIP3   OH227496   2.998   5.675   2.298 -0.2545 -0.2781 -0.2865
 2002TIP3    H127497   2.964   5.594   2.335 -1.6913  0.6219  0.4008
 2002TIP3    H227498   2.944   5.691   2.221 -0.8747  0.7273  0.3424
 2003TIP3   OH227499   5.177   5.571  14.685  0.4655 -0.1564 -0.3534
 2003TIP3    H127500   5.210   5.561  14.596  2.0334  0.2063  0.1639
 2003TIP3    H227501   5.255   5.573  14.740 -0.4445  0.2791  0.9753
 2004TIP3   OH227502   5.880   2.495   3.121  0.3280  0.7517  0.0401
 2004TIP3    H127503   5.936   2.508   3.198  0.8889  0.7769 -0.3582
 2004TIP3    H227504   5.939   2.459   3.055 -0.4505 -0.5826  0.0455
 2005TIP3   OH227505   4.682   4.418  13.201 -0.3735 -0.6368 -0.0798
 2005TIP3    H127506   4.683   4.416  13.297  1.8333  1.2904  0.0532
 2005TIP3    H227507   4.732   4.341  13.174  1.6412  0.3798  0.5208
 2006TIP3   OH227508   1.098   4.863  12.270 -0.1463  0.6392  0.7122
 2006TIP3    H127509   1.044   4.932  12.229  0.0978 -0.3169 -1.3798
 2006TIP3    H227510   1.172   4.853  12.210  0.5746 -0.4301  1.7602
 2007TIP3   OH227511   5.066   5.214  16.193 -0.3450 -0.1321  0.5085
 2007TIP3    H127512   5.092   5.123  16.180  0.1204 -0.0101  0.5514
 2007TIP3    H227513   5.079   5.230  16.286 -0.9736 -0.1858  0.6073
 2008TIP3   OH227514   2.355   1.040   5.632 -0.0640 -0.5314  0.3070
 2008TIP3    H127515   2.264   1.017   5.615 -0.5503 -0.1276  2.1437
 2008TIP3    H227516   2.357   1.065   5.724  1.4177  1.9684 -0.3178
 2009TIP3   OH227517   0.125   2.333   5.915 -0.4009 -0.0427  0.2979
 2009TIP3    H127518   0.165   2.251   5.890 -1.0814 -0.3041  0.0447
 2009TIP3    H227519   0.199   2.391   5.935  0.1125 -0.3337 -0.6920
 2010TIP3   OH227520   2.650   2.365  16.961  0.1412 -0.3762 -0.4802
 2010TIP3    H127521   2.613   2.282  16.929 -1.8072  0.1317  0.2976
 2010TIP3    H227522   2.592   2.432  16.925  0.8436  0.5530  0.0926
 2011TIP3   OH227523   6.581   3.261  13.230 -0.3293 -0.4791  0.1290
 2011TIP3    H127524   6.662   3.264  13.281 -0.3862 -2.1605  0.3956
 2011TIP3    H227525   6.512   3.261  13.296 -0.5340  0.4362 -0.0793
 2012TIP3   OH227526   6.348   0.716   1.596  0.1143 -0.3636  0.1504
 2012TIP3    H127527   6.263   0.742   1.560  0.4880 -0.2472 -0.6627
 2012TIP3    H227528   6.412   0.754   1.536  0.7811  0.4459  1.3207
 2013TIP3   OH227529   6.181   0.359   6.852  0.5546 -0.2807  0.4938
 2013TIP3    H127530   6.214   0.372   6.763 -0.0991  0.7431  0.3700
 2013TIP3    H227531   6.257   0.371   6.908  0.5297  1.6703  0.1961
 2014TIP3   OH227532   5.493   2.147  13.982 -0.0882 -0.4014  0.1961
 2014TIP3    H127533   5.583   2.141  13.950 -0.1301 -1.5156  0.2386
 2014TIP3    H227534   5.499   2.121  14.074 -0.3374  0.3229  0.4200
 2015TIP3   OH227535   4.962   5.217  12.009  0.2170 -0.3095  0.2514
 2015TIP3    H127536   4.956   5.309  11.983 -0.5755 -0.5134 -0.2965
 2015TIP3    H227537   5.030   5.180  11.952 -0.5595 -0.4319 -0.6078
 2016TIP3   OH227538   0.504   5.210   3.480  0.1900 -0.1651 -0.1620
 2016TIP3    H127539   0.428   5.233   3.533 -0.4382 -1.5713 -0.4007
 2016TIP3    H227540   0.468   5.167   3.403  1.2075 -0.4108 -0.5221
 2017TIP3   OH227541   5.464   6.625  15.008 -0.3439  0.2258 -0.3743
 2017TIP3    H127542   5.416   6.554  14.966 -0.3210 -0.3004  0.4626
 2017TIP3    H227543   5.556   6.605  14.990 -0.3504  0.2347 -0.4200
 2018TIP3   OH227544   5.538   0.060   0.379 -0.3168  0.0340  0.0677
 2018TIP3    H127545   5.523   0.152   0.399  1.9558  0.3737  0.4213
 2018TIP3    H227546   5.492   0.013   0.449  0.5544  0.9851  1.3222
 2019TIP3   OH227547   0.396   5.943  13.468 -0.6450 -0.3321 -0.2680
 2019TIP3    H127548   0.397   6.037  13.486 -0.0244  0.0180 -1.9324
 2019TIP3    H227549   0.321   5.910  13.516 -0.9580  1.0501  0.2277
 2020TIP3   OH227550   2.360   6.433  15.989  0.2049  0.1640 -0.4575
 2020TIP3    H127551   2.429   6.414  16.052  1.1269 -1.6297 -1.9078
 2020TIP3    H227552   2.388   6.388  15.909 -2.3287 -0.0857 -1.2872
 2021TIP3   OH227553   4.399   2.222  16.715 -0.6464 -0.3053 -0.2653
 2021TIP3    H127554   4.311   2.233  16.751  0.1488 -0.6622  1.9374
 2021TIP3    H227555   4.458   2.240  16.788  1.1084 -1.1018 -1.4009
 2022TIP3   OH227556   0.356   0.967   1.780 -0.0139  0.2823 -0.4011
 2022TIP3    H127557   0.370   1.049   1.732 -2.0577  0.8897 -0.0443
 2022TIP3    H227558   0.266   0.942   1.761  0.1190 -1.1527  0.6274
 2023TIP3   OH227559   2.361   2.551  14.754  0.1673 -0.0155 -0.3422
 2023TIP3    H127560   2.304   2.546  14.830  0.6830  1.9109  0.2389
 2023TIP3    H227561   2.448   2.569  14.790  0.6448 -0.2607 -1.3328
 2024TIP3   OH227562   3.894   4.364   1.303  0.3796  0.0309 -0.0468
 2024TIP3    H127563   3.986   4.370   1.329  1.1463 -1.7398 -2.0014
 2024TIP3    H227564   3.856   4.299   1.362  0.6779 -0.0127  0.0988
 2025TIP3   OH227565   3.119   5.049   4.858  0.3065  0.6871  0.3866
 2025TIP3    H127566   3.122   5.145   4.856 -0.3027  0.7147  0.6822
 2025TIP3    H227567   3.201   5.022   4.816  0.6532  1.3390  0.6236
 2026TIP3   OH227568   1.262   0.199   4.008  0.1966  0.1208 -0.2999
 2026TIP3    H127569   1.233   0.288   3.989  2.8241  0.9884 -0.5696
 2026TIP3    H227570   1.240   0.150   3.929 -0.7485  0.6547 -0.3799
 2027TIP3   OH227571   4.542   6.033   4.790  0.4713  0.7610  0.1229
 2027TIP3    H127572   4.462   5.990   4.819  1.6967 -1.0150  1.0870
 2027TIP3    H227573   4.528   6.126   4.809 -1.1062  0.4047  0.8478
 2028TIP3   OH227574   0.706   4.703   5.243 -0.2718  0.3153 -0.4350
 2028TIP3    H127575   0.666   4.762   5.306 -1.3950 -0.2407 -0.6086
 2028TIP3    H227576   0.748   4.761   5.179 -2.3665  0.9902 -1.2698
 2029TIP3   OH227577   1.603   4.939   4.515 -0.1850  0.4287 -0.3029
 2029TIP3    H127578   1.619   4.911   4.605  0.1518  1.2193 -0.1013
 2029TIP3    H227579   1.509   4.953   4.510 -0.1475  0.8730  0.0912
 2030TIP3   OH227580   3.584   2.751   4.504 -0.6009 -0.0741 -0.6301
 2030TIP3    H127581   3.670   2.755   4.546 -0.7050  0.8992 -0.5032
 2030TIP3    H227582   3.573   2.658   4.483  0.8561 -0.0972 -1.4332
 2031TIP3   OH227583   5.631   6.344   6.096 -0.1182 -0.1966  0.2326
 2031TIP3    H127584   5.668   6.413   6.151 -2.1416  0.6440  0.6383
 2031TIP3    H227585   5.698   6.328   6.030  0.9260  1.2763  0.8649
 2032TIP3   OH227586   5.196   5.052  16.500  0.1798 -0.2617 -0.0184
 2032TIP3    H127587   5.184   4.996  16.424 -0.5444 -0.2603  0.0929
 2032TIP3    H227588   5.117   5.040  16.552 -0.0013  0.8936 -0.0028
 2033TIP3   OH227589   4.399   5.710  11.563  0.2563 -0.3683  0.3048
 2033TIP3    H127590   4.369   5.771  11.631  0.1288 -1.1816  1.0048
 2033TIP3    H227591   4.441   5.766  11.498  2.7194  0.2829  2.2713
 2034TIP3   OH227592   1.758   2.707  13.564  0.7106  0.1438  0.5107
 2034TIP3    H127593   1.724   2.730  13.477  0.8483 -1.9892 -0.1708
 2034TIP3    H227594   1.707   2.760  13.625 -0.4403  0.5910 -0.7939
 2035TIP3   OH227595   1.111   2.105   5.629 -0.1942  0.3100 -0.0892
 2035TIP3    H127596   1.090   2.052   5.706 -0.4314  0.5127 -0.0119
 2035TIP3    H227597   1.138   2.042   5.562 -0.0042  0.1327  0.1550
 2036TIP3   OH227598   6.761   6.554   4.596  0.5635  0.2691 -0.3505
 2036TIP3    H127599   6.815   6.507   4.532 -1.4121 -0.4591 -1.5547
 2036TIP3    H227600   6.712   6.618   4.545 -1.7340 -0.9277  0.2081
 2037TIP3   OH227601   0.606   0.959   4.011 -0.5964  0.6001 -0.1117
 2037TIP3    H127602   0.525   0.994   4.046 -0.9111 -0.8863  0.7181
 2037TIP3    H227603   0.589   0.946   3.917 -0.9259  1.3488 -0.1579
 2038TIP3   OH227604   1.421   0.165  10.513 -0.0732  0.2503 -0.4164
 2038TIP3    H127605   1.384   0.158  10.601 -1.2807 -1.2926 -1.0038
 2038TIP3    H227606   1.401   0.081  10.472 -1.3056  1.6449 -2.8451
 2039TIP3   OH227607   3.572   4.238   0.376  0.6732 -0.3633 -0.3705
 2039TIP3    H127608   3.594   4.158   0.327  0.3266  0.4848 -1.9611
 2039TIP3    H227609   3.641   4.244   0.442  1.3329 -1.3981 -0.9220
 2040TIP3   OH227610   3.741   1.346   4.058 -0.4570  0.1631  0.0606
 2040TIP3    H127611   3.661   1.391   4.031 -0.9954 -0.3419  0.7889
 2040TIP3    H227612   3.790   1.412   4.108 -1.2668 -0.0352  1.1648
 2041TIP3   OH227613   5.892   3.786   3.856  0.0797 -0.4670  0.1613
 2041TIP3    H127614   5.859   3.701   3.884 -2.4225  0.2862 -0.2417
 2041TIP3    H227615   5.933   3.823   3.934  1.7057 -2.2078  0.1980
 2042TIP3   OH227616   1.127   1.083   4.264  0.0007 -0.2162  0.4180
 2042TIP3    H127617   1.088   1.165   4.234  1.4849  1.1708  2.0461
 2042TIP3    H227618   1.104   1.019   4.197 -2.8333  1.0689  0.0255
 2043TIP3   OH227619   5.999   3.342   1.900 -0.1045  0.1735 -0.1250
 2043TIP3    H127620   6.025   3.317   1.811  0.4313 -1.8050  0.5354
 2043TIP3    H227621   5.993   3.259   1.947 -2.1911  1.0226  1.2394
 2044TIP3   OH227622   6.233   0.185  14.401 -0.3070  0.3917  0.4372
 2044TIP3    H127623   6.200   0.170  14.312 -0.8465 -0.5489  0.7794
 2044TIP3    H227624   6.318   0.227  14.388  0.4244 -1.2933 -0.5932
 2045TIP3   OH227625   6.215   6.214   7.100  0.0991 -0.3554  0.5620
 2045TIP3    H127626   6.177   6.138   7.146 -1.7106 -0.3553 -0.8291
 2045TIP3    H227627   6.268   6.175   7.030 -2.0860 -0.4292 -1.1489
 2046TIP3   OH227628   4.232   4.572  11.118 -0.2985 -0.4657  0.3576
 2046TIP3    H127629   4.256   4.521  11.040 -1.4024  0.1090 -0.3882
 2046TIP3    H227630   4.144   4.605  11.099 -0.9827 -1.0681  2.2509
 2047TIP3   OH227631   5.931   0.217   3.868  0.1831  0.1657 -0.4915
 2047TIP3    H127632   5.840   0.194   3.849  0.0883  0.9058 -0.9408
 2047TIP3    H227633   5.971   0.230   3.782  0.2767  1.5310 -0.2521
 2048TIP3   OH227634   2.137   2.175  12.399 -0.2083  0.2996 -0.0402
 2048TIP3    H127635   2.157   2.100  12.344  0.1324  2.2803 -2.8175
 2048TIP3    H227636   2.043   2.190  12.386  0.0923  1.4556 -1.0829
 2049TIP3   OH227637   5.377   1.235   6.296  0.8237 -0.4625 -0.0298
 2049TIP3    H127638   5.429   1.225   6.216  0.7351 -2.0434  0.0831
 2049TIP3    H227639   5.287   1.217   6.269  0.4172  1.3358 -0.0244
 2050TIP3   OH227640   5.653   1.015  13.008  0.1471 -1.0249 -0.1462
 2050TIP3    H127641   5.647   0.992  13.101  2.2438 -3.4298 -0.4959
 2050TIP3    H227642   5.734   1.065  13.001  0.1419 -1.0927 -0.7177
 2051TIP3   OH227643   4.540   3.671   0.694 -0.1800  0.1535 -0.2913
 2051TIP3    H127644   4.478   3.666   0.621 -2.1365  0.2719  1.2637
 2051TIP3    H227645   4.544   3.581   0.727  2.4125 -0.3731 -1.8053
 2052TIP3   OH227646   6.116   2.390  13.401  0.1089 -0.3898  0.3003
 2052TIP3    H127647   6.100   2.390  13.495 -0.2851 -0.6255  0.2338
 2052TIP3    H227648   6.051   2.330  13.365  0.6515 -0.7790 -0.0574
 2053TIP3   OH227649   0.608   6.501   5.053 -0.0936 -0.4669  0.0675
 2053TIP3    H127650   0.643   6.539   5.134 -0.4810 -1.0410  0.5144
 2053TIP3    H227651   0.530   6.453   5.081 -1.3060  0.8539 -0.9109
 2054TIP3   OH227652   6.267   2.663  12.737 -0.3824  0.0554  0.2537
 2054TIP3    H127653   6.258   2.614  12.655 -1.7479 -0.2878  0.5838
 2054TIP3    H227654   6.295   2.597  12.801  0.2458  0.2322  0.1651
 2055TIP3   OH227655   0.041   2.197   0.659 -0.1575 -0.0564 -0.1637
 2055TIP3    H127656   0.137   2.204   0.657  0.2142 -3.1364  1.5055
 2055TIP3    H227657   0.023   2.109   0.627 -2.4228  0.2590  0.1253
 2056TIP3   OH227658   0.389   6.374   4.227 -0.7487  0.1976  0.4563
 2056TIP3    H127659   0.467   6.411   4.186 -0.4505  0.2076  1.0165
 2056TIP3    H227660   0.411   6.283   4.246 -0.9925  0.1079  0.3215
 2057TIP3   OH227661   0.455   0.282  13.729  0.3515  0.0015 -0.4186
 2057TIP3    H127662   0.525   0.274  13.664  1.4162 -0.9362  0.7955
 2057TIP3    H227663   0.469   0.369  13.768 -1.1174  1.1618 -2.2920
 2058TIP3   OH227664   1.966   4.652  13.397  0.2397 -0.7997  0.2826
 2058TIP3    H127665   1.912   4.690  13.328  0.6975 -2.1823 -0.9161
 2058TIP3    H227666   2.003   4.727  13.444 -1.1309  0.1623 -0.1292
 2059TIP3   OH227667   3.348   1.353  15.536  0.2381 -0.0555 -0.2552
 2059TIP3    H127668   3.284   1.331  15.469  1.5514  0.9434 -1.9321
 2059TIP3    H227669   3.431   1.317  15.504  0.7286 -0.4979  1.3839
 2060TIP3   OH227670   0.134   1.748   0.556  0.3412  0.0148 -0.1059
 2060TIP3    H127671   0.193   1.752   0.480  0.7446 -1.0438  0.1298
 2060TIP3    H227672   0.189   1.712   0.626 -0.3792 -0.2306  0.3354
 2061TIP3   OH227673   2.963   2.817  10.909 -0.5233 -0.1276  0.1538
 2061TIP3    H127674   3.048   2.806  10.951 -0.4343 -1.0372 -0.2390
 2061TIP3    H227675   2.939   2.908  10.926  0.1530 -0.0937  0.9539
 2062TIP3   OH227676   6.155   2.035  15.328  0.1294 -0.3968 -0.4096
 2062TIP3    H127677   6.155   2.127  15.355 -0.2946  0.1336 -2.1034
 2062TIP3    H227678   6.106   2.035  15.246  0.2085 -2.1353 -0.4776
 2063TIP3   OH227679   3.510   1.328   6.872  0.2994 -0.3457 -0.1904
 2063TIP3    H127680   3.530   1.307   6.780 -1.0372  1.6102 -1.0080
 2063TIP3    H227681   3.417   1.309   6.881  0.2641  0.1618  0.5479
 2064TIP3   OH227682   4.453   3.313   3.117 -0.5233 -0.2598 -0.2394
 2064TIP3    H127683   4.427   3.277   3.033  0.4131  0.3140 -0.7998
 2064TIP3    H227684   4.533   3.363   3.098  0.0026 -0.5505  1.0769
 2065TIP3   OH227685   0.089   3.387   1.823  0.3363  0.5497 -0.3071
 2065TIP3    H127686   0.108   3.348   1.739 -0.4198  1.1923 -0.7979
 2065TIP3    H227687   0.025   3.456   1.804  0.5995  1.1093  0.7013
 2066TIP3   OH227688   5.394   1.949  15.078  0.3940 -0.1465 -0.0136
 2066TIP3    H127689   5.414   1.855  15.085 -2.8760 -0.9823  0.0630
 2066TIP3    H227690   5.315   1.952  15.024 -0.6297  2.4071  1.4791
 2067TIP3   OH227691   6.167   4.003  12.670 -0.6664  0.1645 -0.4164
 2067TIP3    H127692   6.155   4.025  12.578 -1.3369  0.1156 -0.3480
 2067TIP3    H227693   6.130   4.077  12.717  0.5302  0.6306 -0.1712
 2068TIP3   OH227694   0.618   6.434  11.891  0.4125  0.6673  0.4073
 2068TIP3    H127695   0.565   6.354  11.895  0.8993  0.3184  0.0348
 2068TIP3    H227696   0.699   6.406  11.850  0.6633  1.3210  0.4534
 2069TIP3   OH227697   4.538   3.886  16.120  0.3291  0.1031  0.0952
 2069TIP3    H127698   4.559   3.802  16.161  0.6882 -1.0948 -2.3597
 2069TIP3    H227699   4.620   3.915  16.082 -0.5247 -0.2924 -2.1799
 2070TIP3   OH227700   3.483   1.781   5.117 -0.2185  0.0322  0.1227
 2070TIP3    H127701   3.422   1.833   5.064 -0.5101  3.1020  3.1407
 2070TIP3    H227702   3.436   1.699   5.133 -1.6196  0.4899 -1.3277
 2071TIP3   OH227703   5.854   0.096  12.709 -0.1534 -0.1398  0.3853
 2071TIP3    H127704   5.828   0.138  12.791  4.2993 -0.3254  2.1530
 2071TIP3    H227705   5.943   0.128  12.692  1.1833 -4.1073 -1.4774
 2072TIP3   OH227706   5.057   5.654  14.263  0.0967  0.1587  0.0061
 2072TIP3    H127707   4.990   5.586  14.275 -0.6017  1.1458  1.9400
 2072TIP3    H227708   5.024   5.706  14.190  0.4959 -1.3492 -1.3217
 2073TIP3   OH227709   3.213   4.125   5.371  0.7265 -0.1081  0.3042
 2073TIP3    H127710   3.179   4.168   5.451  1.5936  1.0901  0.0644
 2073TIP3    H227711   3.294   4.082   5.400 -0.8710 -2.9769  0.8802
 2074TIP3   OH227712   3.128   6.559   5.541 -0.3728 -0.2367  0.2901
 2074TIP3    H127713   3.205   6.507   5.564  1.5489  1.6440 -1.4092
 2074TIP3    H227714   3.081   6.506   5.476 -0.4630 -1.3256  1.2192
 2075TIP3   OH227715   4.838   2.249   2.016  0.3778  0.0729  0.3700
 2075TIP3    H127716   4.749   2.264   1.985 -0.1718  0.0803  1.8707
 2075TIP3    H227717   4.869   2.175   1.965  0.0773  0.9974 -1.2250
 2076TIP3   OH227718   5.870   2.891   5.008 -0.1270  0.0455 -0.5158
 2076TIP3    H127719   5.841   2.800   5.015  1.0126 -0.2640  0.5326
 2076TIP3    H227720   5.955   2.886   4.965 -0.1516  0.6410 -0.6457
 2077TIP3   OH227721   1.935   5.608  12.611 -0.4725 -0.3208  0.4574
 2077TIP3    H127722   1.936   5.535  12.549  1.6690  0.4965 -0.5606
 2077TIP3    H227723   1.979   5.679  12.565 -0.6593  0.9794  2.1882
 2078TIP3   OH227724   0.480   5.933   6.920 -0.6512 -0.4248 -0.1458
 2078TIP3    H127725   0.575   5.938   6.927 -0.6012  0.4164 -1.1633
 2078TIP3    H227726   0.455   5.866   6.982  0.3682  1.0835  2.0092
 2079TIP3   OH227727   5.282   5.503   5.239 -0.1088  0.5968  0.0969
 2079TIP3    H127728   5.197   5.544   5.220 -0.2787  0.2494  0.0947
 2079TIP3    H227729   5.271   5.466   5.327  0.8954  2.7816  1.2168
 2080TIP3   OH227730   3.653   3.538  11.578 -0.0834 -0.3212  0.5831
 2080TIP3    H127731   3.598   3.507  11.650 -0.2938  1.7560  1.4034
 2080TIP3    H227732   3.742   3.516  11.603 -0.1399  0.5363  1.6143
 2081TIP3   OH227733   0.668   3.731  12.617  0.2383 -0.6523 -0.7805
 2081TIP3    H127734   0.721   3.715  12.696  2.2443  1.4513 -1.6070
 2081TIP3    H227735   0.709   3.677  12.550  0.1154 -0.5018 -0.9764
 2082TIP3   OH227736   1.009   1.543   0.884 -0.3882  0.3062  0.5179
 2082TIP3    H127737   1.059   1.575   0.809  1.9085  0.8421  2.1642
 2082TIP3    H227738   0.961   1.467   0.851  0.1854  0.7867 -1.5728
 2083TIP3   OH227739   2.045   3.328   2.371 -0.2302  0.0467 -0.3466
 2083TIP3    H127740   2.042   3.310   2.465 -0.5098  0.7363 -0.2166
 2083TIP3    H227741   2.104   3.403   2.362  0.8904 -0.8644 -0.8719
 2084TIP3   OH227742   0.254   2.964  11.119  0.4166  0.2657 -0.2127
 2084TIP3    H127743   0.206   2.998  11.194  0.4466  0.2579 -0.1895
 2084TIP3    H227744   0.343   2.997  11.131  0.2642  0.8122 -0.5959
 2085TIP3   OH227745   3.275   5.577  12.774  0.0143  0.5982 -0.1406
 2085TIP3    H127746   3.202   5.605  12.829 -0.2573  1.9184 -1.1444
 2085TIP3    H227747   3.237   5.563  12.688  0.9086  1.1419 -0.6369
 2086TIP3   OH227748   5.867   0.525  11.637 -0.2316 -0.0481 -0.2869
 2086TIP3    H127749   5.863   0.454  11.573 -0.8942  0.1837 -0.5185
 2086TIP3    H227750   5.870   0.481  11.722  0.4824 -0.3553 -0.4625
 2087TIP3   OH227751   4.634   1.307   6.076  0.1099  0.1269  0.3768
 2087TIP3    H127752   4.647   1.385   6.130  1.0491 -0.3824  0.9232
 2087TIP3    H227753   4.540   1.289   6.082  0.0029  0.8081  0.8174
 2088TIP3   OH227754   4.437   5.087   0.449 -0.7191 -0.5248  0.4334
 2088TIP3    H127755   4.380   5.159   0.478 -0.9631 -1.5502  2.6813
 2088TIP3    H227756   4.378   5.026   0.404 -1.0137 -0.5975  0.9170
 2089TIP3   OH227757   6.373   4.435   3.262  0.6064 -0.3228  0.1211
 2089TIP3    H127758   6.291   4.484   3.272  1.2804  0.7292  0.7376
 2089TIP3    H227759   6.352   4.347   3.293 -0.1348  0.0952  0.8479
 2090TIP3   OH227760   6.338   5.326  13.434 -0.9660 -0.3893  0.0168
 2090TIP3    H127761   6.403   5.391  13.405 -1.6820  0.2994 -0.0908
 2090TIP3    H227762   6.346   5.325  13.530 -0.9688 -0.1258  0.0199
 2091TIP3   OH227763   4.574   2.561   0.860 -0.4680 -0.1482  0.4707
 2091TIP3    H127764   4.618   2.484   0.825 -0.8427 -0.0542 -0.2330
 2091TIP3    H227765   4.556   2.615   0.784 -0.7433  0.3604  0.8886
 2092TIP3   OH227766   4.534   0.818   1.482 -0.7361 -0.6889 -0.4620
 2092TIP3    H127767   4.546   0.899   1.432 -0.4819 -1.0493 -0.9866
 2092TIP3    H227768   4.466   0.840   1.546 -1.8469 -0.5287 -1.6444
 2093TIP3   OH227769   6.599   4.958  11.827 -0.1003  0.1883  0.2070
 2093TIP3    H127770   6.662   5.022  11.795  2.0635 -2.1785 -0.6176
 2093TIP3    H227771   6.560   4.920  11.749  0.1879 -0.8909  0.5576
 2094TIP3   OH227772   1.603   0.727  16.317 -0.2392 -0.2188 -0.0085
 2094TIP3    H127773   1.610   0.798  16.381  0.6530 -0.1603 -0.1507
 2094TIP3    H227774   1.690   0.722  16.278 -0.9097  0.1369 -1.6379
 2095TIP3   OH227775   0.909   1.904  13.976  0.4656 -0.2967  0.1900
 2095TIP3    H127776   0.907   1.819  14.019 -0.9896  0.5416  1.8712
 2095TIP3    H227777   0.911   1.968  14.047 -4.3520  1.2262 -0.6656
 2096TIP3   OH227778   1.846   0.889   3.388  0.1773 -0.2794 -0.8330
 2096TIP3    H127779   1.880   0.979   3.391 -0.2276 -0.1646  0.7390
 2096TIP3    H227780   1.768   0.891   3.442  0.4057 -1.6946 -0.4297
 2097TIP3   OH227781   4.009   2.349   4.412 -0.1146  0.8754  0.3165
 2097TIP3    H127782   3.939   2.414   4.406  1.1832  2.4489  1.3870
 2097TIP3    H227783   4.085   2.399   4.443  1.0828 -1.0678  0.6438
 2098TIP3   OH227784   1.132   2.396   0.207 -0.3199  0.4907  0.2914
 2098TIP3    H127785   1.193   2.391   0.134  0.6801  0.3207  1.1019
 2098TIP3    H227786   1.049   2.424   0.169  0.1213  0.1763 -0.9255
 2099TIP3   OH227787   6.092   1.632  11.653  0.3535  0.2650  0.3590
 2099TIP3    H127788   6.026   1.675  11.598 -0.3811  0.1992  1.1675
 2099TIP3    H227789   6.127   1.561  11.598 -1.7982 -1.0900  0.6446
 2100TIP3   OH227790   3.390   6.680  11.039  0.3895  0.6094  0.1773
 2100TIP3    H127791   3.307   6.713  11.074 -0.3787  0.4871 -1.4263
 2100TIP3    H227792   3.382   6.585  11.045  1.7128  0.5877  2.8053
 2101TIP3   OH227793   5.589   4.085   1.219 -0.1932 -0.1285  0.5780
 2101TIP3    H127794   5.577   4.148   1.147 -2.9544  0.1628  1.1729
 2101TIP3    H227795   5.662   4.120   1.269 -0.1813  1.3589 -0.4103
 2102TIP3   OH227796   0.994   2.839  16.988 -0.0248 -0.4518 -0.1235
 2102TIP3    H127797   1.073   2.793  16.959 -0.4231 -1.6309  0.5900
 2102TIP3    H227798   0.922   2.788  16.951 -0.4896  1.3894 -1.9523
 2103TIP3   OH227799   3.167   2.540   1.871  0.6700 -0.3443 -0.0447
 2103TIP3    H127800   3.156   2.446   1.886 -1.7474 -0.4635 -1.9853
 2103TIP3    H227801   3.230   2.545   1.798  0.0946 -0.5266 -0.5619
 2104TIP3   OH227802   3.358   2.152  14.302 -0.0558 -0.3589  0.3291
 2104TIP3    H127803   3.382   2.059  14.299  0.6116 -0.2377  1.3520
 2104TIP3    H227804   3.441   2.197  14.318 -0.2838  0.4746 -0.6916
 2105TIP3   OH227805   4.005   5.817   4.050 -0.2699  0.4044  0.4342
 2105TIP3    H127806   4.028   5.832   3.958 -2.2794 -0.8986 -0.3440
 2105TIP3    H227807   3.998   5.722   4.058  1.1648  0.4065  2.3233
 2106TIP3   OH227808   0.853   4.876   5.021  0.1665  0.1136 -0.0987
 2106TIP3    H127809   0.843   4.885   4.926  0.4126 -0.4038 -0.1766
 2106TIP3    H227810   0.812   4.956   5.057 -1.3820 -0.4300 -0.5535
 2107TIP3   OH227811   2.831   3.226   3.683 -0.2039 -0.2305  0.2636
 2107TIP3    H127812   2.871   3.260   3.763  0.2098 -0.5940  0.2203
 2107TIP3    H227813   2.738   3.218   3.703 -0.4757  1.7667 -0.0235
 2108TIP3   OH227814   4.378   4.714  10.885  0.2658  0.3787 -0.0681
 2108TIP3    H127815   4.405   4.624  10.899  0.1464  0.4525  0.6350
 2108TIP3    H227816   4.457   4.757  10.851  0.0058 -0.2458 -1.5849
 2109TIP3   OH227817   4.107   5.622   4.505  0.3701  0.0966  0.5465
 2109TIP3    H127818   4.137   5.666   4.426 -1.7369 -0.4509 -0.6229
 2109TIP3    H227819   4.178   5.634   4.568  1.3204  2.1277 -0.8319
 2110TIP3   OH227820   3.541   1.516   2.896  0.4343 -0.0085  0.0539
 2110TIP3    H127821   3.467   1.575   2.910  1.6247  2.0955 -1.8253
 2110TIP3    H227822   3.570   1.535   2.806  0.3879 -4.1347 -1.0469
 2111TIP3   OH227823   6.776   4.271   1.104 -0.0968  0.0360  0.1863
 2111TIP3    H127824   6.745   4.260   1.014  1.4176 -1.0710 -0.2482
 2111TIP3    H227825   6.851   4.330   1.097 -0.1532  0.1864  0.7630
 2112TIP3   OH227826   4.586   1.792   6.348 -0.6677  0.2985  0.0200
 2112TIP3    H127827   4.677   1.764   6.335 -1.2104 -1.1583 -0.8816
 2112TIP3    H227828   4.556   1.814   6.259 -1.0063  1.4511  0.4022
 2113TIP3   OH227829   3.458   3.473  14.825  0.4576  0.0315 -0.2607
 2113TIP3    H127830   3.390   3.531  14.858  0.4482 -1.2377  2.1458
 2113TIP3    H227831   3.415   3.388  14.817  0.7386  0.0363 -2.7412
 2114TIP3   OH227832   3.463   6.200  16.679  0.1154 -0.5633  0.6123
 2114TIP3    H127833   3.549   6.201  16.721  0.3515 -1.1827  0.1599
 2114TIP3    H227834   3.482   6.188  16.586 -0.3682  1.4400  0.2061
 2115TIP3   OH227835   5.544   6.587  17.040  0.5119  0.0631 -0.2241
 2115TIP3    H127836   5.530   6.500  17.077  0.7397 -0.1101 -0.5378
 2115TIP3    H227837   5.583   6.638  17.111 -0.1200  0.0656  0.1241
 2116TIP3   OH227838   3.298   5.704   3.452 -0.7699  0.7128 -0.6026
 2116TIP3    H127839   3.325   5.701   3.544 -1.1420 -2.6236 -0.4490
 2116TIP3    H227840   3.378   5.721   3.403  0.1520 -1.0043  0.2240
 2117TIP3   OH227841   1.159   0.459   2.744 -0.2876  0.2060 -0.1662
 2117TIP3    H127842   1.120   0.545   2.753 -0.9209  0.0247 -1.0494
 2117TIP3    H227843   1.234   0.460   2.803 -1.2179  0.7960  1.0373
 2118TIP3   OH227844   4.351   3.252  17.400 -0.1736  0.2190  0.2580
 2118TIP3    H127845   4.341   3.237  17.494  0.9108  2.1714  0.7503
 2118TIP3    H227846   4.391   3.339  17.394  0.8577 -0.3267 -1.9744
 2119TIP3   OH227847   1.974   0.669  14.206 -0.3279 -0.3610  0.1085
 2119TIP3    H127848   1.989   0.720  14.127 -0.8596 -0.0019  0.2362
 2119TIP3    H227849   1.883   0.640  14.199 -0.4369 -0.1629  0.6848
 2120TIP3   OH227850   1.888   4.632   3.168  0.2445 -0.2046  0.4662
 2120TIP3    H127851   1.809   4.594   3.129 -0.5827  0.2876  1.5949
 2120TIP3    H227852   1.855   4.702   3.225  1.6069  0.9065 -0.0821
 2121TIP3   OH227853   5.289   1.280   2.308 -0.1462 -0.3839 -0.3023
 2121TIP3    H127854   5.235   1.207   2.277 -0.9695  0.1625 -0.1979
 2121TIP3    H227855   5.378   1.245   2.310 -0.4813 -1.2842 -0.5623
 2122TIP3   OH227856   4.460   5.784   2.504 -0.6723 -0.5550 -0.2583
 2122TIP3    H127857   4.392   5.723   2.474 -1.0816 -0.6164  0.7352
 2122TIP3    H227858   4.528   5.728   2.541 -0.9252 -0.4263  0.4112
 2123TIP3   OH227859   5.319   1.097  12.001  0.8197  0.1233  0.3625
 2123TIP3    H127860   5.400   1.080  12.047  0.7712 -0.6086  0.1957
 2123TIP3    H227861   5.305   1.019  11.947  1.3247  1.2952 -1.5607
 2124TIP3   OH227862   3.244   1.632  14.744  0.6299  0.1933  0.3887
 2124TIP3    H127863   3.186   1.573  14.791 -0.9286  0.1428 -1.4632
 2124TIP3    H227864   3.218   1.720  14.773 -0.3904  0.1679 -0.4091
 2125TIP3   OH227865   1.614   4.133   0.913 -0.4447  0.0212 -0.2416
 2125TIP3    H127866   1.561   4.088   0.979  1.5241  1.5116  2.5325
 2125TIP3    H227867   1.552   4.189   0.866 -2.2773 -2.6506 -1.2816
 2126TIP3   OH227868   2.310   5.327  13.330 -0.4401  0.1897  0.3564
 2126TIP3    H127869   2.239   5.382  13.365 -0.8219 -0.4557  0.6181
 2126TIP3    H227870   2.310   5.250  13.387  0.6115  0.2692  0.4842
 2127TIP3   OH227871   3.159   5.481  14.647  0.1834 -0.2988 -0.5014
 2127TIP3    H127872   3.114   5.563  14.669 -0.8970 -0.8237 -0.7105
 2127TIP3    H227873   3.234   5.479  14.707  0.4097  0.9923 -0.7117
 2128TIP3   OH227874   4.285   0.788   5.449 -0.0407  0.3516  0.0023
 2128TIP3    H127875   4.291   0.701   5.489 -1.3272  0.4819  0.5185
 2128TIP3    H227876   4.343   0.784   5.373  1.8378 -0.1727  1.3918
 2129TIP3   OH227877   6.489   6.601  15.212  0.7460  0.5025  0.7477
 2129TIP3    H127878   6.498   6.506  15.205  1.7352  0.6339 -0.1985
 2129TIP3    H227879   6.570   6.629  15.255 -0.6455  0.7272  3.4042
 2130TIP3   OH227880   6.571   0.418  11.757  0.0377  0.1738  0.9385
 2130TIP3    H127881   6.532   0.341  11.716  0.3430  1.2105 -1.4030
 2130TIP3    H227882   6.646   0.384  11.806 -0.7596 -1.1870  1.2579
 2131TIP3   OH227883   1.978   3.396  15.821  0.0507  0.2826  0.1120
 2131TIP3    H127884   2.056   3.447  15.844 -0.7257  0.6724  2.1292
 2131TIP3    H227885   1.936   3.446  15.751  2.1544 -0.5463 -1.8624
 2132TIP3   OH227886   5.308   6.552  12.061 -0.1148 -0.4207  0.2134
 2132TIP3    H127887   5.402   6.557  12.078  0.0763  0.9351 -1.0066
 2132TIP3    H227888   5.302   6.519  11.971 -0.6815  1.2604 -0.4136
 2133TIP3   OH227889   0.378   5.014  17.199  0.2307 -0.2021  0.5132
 2133TIP3    H127890   0.347   5.093  17.242  0.5329  0.8428 -1.1118
 2133TIP3    H227891   0.472   5.012  17.218  0.1519 -0.4222  0.9025
 2134TIP3   OH227892   3.503   0.906  13.709  0.1053 -0.0231 -0.4085
 2134TIP3    H127893   3.598   0.900  13.709  0.1873  1.1108 -0.9724
 2134TIP3    H227894   3.480   0.924  13.801  0.4665  0.1062 -0.3429
 2135TIP3   OH227895   1.699   3.168   3.670 -0.1388 -0.3304  0.3958
 2135TIP3    H127896   1.678   3.226   3.597 -2.2017 -0.8988  0.4517
 2135TIP3    H227897   1.786   3.135   3.651  0.3683  1.4189 -0.5232
 2136TIP3   OH227898   0.160   4.887   3.145  0.0020 -0.0364 -0.6407
 2136TIP3    H127899   0.228   4.851   3.202 -1.5117 -2.5506 -0.2863
 2136TIP3    H227900   0.181   4.853   3.058  0.2501  0.7966 -0.9206
 2137TIP3   OH227901   4.503   0.767  15.325 -0.4645  0.2165  0.3958
 2137TIP3    H127902   4.574   0.821  15.289 -0.8874 -0.3225 -1.3820
 2137TIP3    H227903   4.425   0.822  15.315 -0.3611  0.7271  2.1556
 2138TIP3   OH227904   0.198   0.392   2.431 -0.7344 -0.2383 -0.0998
 2138TIP3    H127905   0.242   0.463   2.478 -0.1471 -0.4778 -0.2783
 2138TIP3    H227906   0.250   0.314   2.452 -0.1394 -0.2686 -1.5539
 2139TIP3   OH227907   4.777   2.381  13.811 -0.4224 -0.5452 -0.0879
 2139TIP3    H127908   4.865   2.412  13.791 -0.6603  0.5586  0.5304
 2139TIP3    H227909   4.726   2.461  13.825 -1.5622 -1.1604 -0.5863
 2140TIP3   OH227910   2.906   0.058  16.547  0.4637 -0.0552  0.2062
 2140TIP3    H127911   2.957   0.063  16.466 -0.3416 -1.8144 -0.4462
 2140TIP3    H227912   2.966   0.093  16.614  2.4898 -1.8013 -0.5673
 2141TIP3   OH227913   5.019   0.009  13.872  0.0322  0.9231  0.4367
 2141TIP3    H127914   4.972  -0.037  13.942  0.3716  0.2634  0.2367
 2141TIP3    H227915   5.088  -0.052  13.845 -0.8018  0.6477 -1.2746
 2142TIP3   OH227916   3.321   2.927   2.626  0.2540  0.1947  0.0195
 2142TIP3    H127917   3.382   2.911   2.699  0.3382 -0.2282 -0.1386
 2142TIP3    H227918   3.273   2.845   2.617 -1.0223  0.8330  0.7649
 2143TIP3   OH227919   2.190   6.232  16.736  0.2730 -0.1701  0.0215
 2143TIP3    H127920   2.208   6.200  16.825 -0.7127  0.7532  0.5800
 2143TIP3    H227921   2.272   6.219  16.689  1.0337 -0.0383  1.2570
 2144TIP3   OH227922   2.844   2.841   5.537  0.0551  0.3508  0.0997
 2144TIP3    H127923   2.919   2.849   5.596  0.1861  1.5290 -0.2156
 2144TIP3    H227924   2.770   2.877   5.586  0.0973  1.0236 -0.3235
 2145TIP3   OH227925   3.197   4.598  14.401 -0.0994  0.4733 -0.1655
 2145TIP3    H127926   3.209   4.693  14.407  0.5618  0.3254  1.3455
 2145TIP3    H227927   3.271   4.561  14.449 -0.4155 -0.8064 -0.6154
 2146TIP3   OH227928   5.403   5.616  15.370  0.2115 -0.2736 -0.0944
 2146TIP3    H127929   5.423   5.556  15.298 -0.8309 -0.0248 -0.6073
 2146TIP3    H227930   5.314   5.646  15.352  1.1684  2.5305 -0.6272
 2147TIP3   OH227931   1.898   0.519  12.598 -0.0534  0.1001  0.1044
 2147TIP3    H127932   1.922   0.606  12.565  0.4164  0.5978  1.6791
 2147TIP3    H227933   1.816   0.499  12.553 -0.9414  1.9988  0.7274
 2148TIP3   OH227934   0.858   6.467  11.527 -0.5228  0.4081 -0.5283
 2148TIP3    H127935   0.883   6.420  11.448 -1.4534 -0.7109 -0.1951
 2148TIP3    H227936   0.864   6.401  11.597 -0.7435  1.0883  0.1520
 2149TIP3   OH227937   0.041   1.475  11.448  0.3128  0.5553  0.2686
 2149TIP3    H127938   0.078   1.558  11.418  2.1314 -0.4177 -0.3323
 2149TIP3    H227939   0.057   1.415  11.375 -3.1798  0.1854 -0.3584
 2150TIP3   OH227940   5.953   4.008   2.248  0.1661 -0.1160  0.6232
 2150TIP3    H127941   5.882   3.944   2.240 -0.9193  0.7763  2.3804
 2150TIP3    H227942   6.033   3.957   2.240 -0.6503 -1.2516 -0.7421
 2151TIP3   OH227943   4.597   0.969  15.643  0.1431 -0.7222  0.0554
 2151TIP3    H127944   4.504   0.970  15.669  0.2108 -0.3469  0.2882
 2151TIP3    H227945   4.632   0.889  15.683 -0.0478 -0.7946  0.0807
 2152TIP3   OH227946   2.319   2.916  17.027 -0.2405  0.1893 -0.0318
 2152TIP3    H127947   2.259   2.985  17.056 -0.2835  0.6844 -1.2368
 2152TIP3    H227948   2.358   2.951  16.947  0.6613 -0.6902  0.0108
 2153TIP3   OH227949   4.345   1.767   4.890 -0.3003  0.5011  0.0964
 2153TIP3    H127950   4.397   1.807   4.821  0.9371 -0.1339  0.6359
 2153TIP3    H227951   4.407   1.751   4.961 -1.0005 -1.2777  0.3479
 2154TIP3   OH227952   6.702   6.082  12.003  0.1555 -0.2548  0.5276
 2154TIP3    H127953   6.707   6.178  12.007  0.1763 -0.2601  0.6440
 2154TIP3    H227954   6.615   6.062  12.038  0.4055 -0.3137  1.1334
 2155TIP3   OH227955   1.732   0.603   0.405  0.0936 -0.1360 -0.3444
 2155TIP3    H127956   1.779   0.686   0.407 -2.0837  1.2006  2.6078
 2155TIP3    H227957   1.670   0.612   0.333 -0.8389  1.2907  0.5946
 2156TIP3   OH227958   2.910   5.192   0.884  0.0400 -0.2252  0.1006
 2156TIP3    H127959   2.951   5.262   0.834 -0.5423  0.5434  0.6772
 2156TIP3    H227960   2.921   5.218   0.976  0.3097 -1.1678  0.3479
 2157TIP3   OH227961   1.116   6.371  12.490 -0.8513 -1.1060  0.0613
 2157TIP3    H127962   1.047   6.438  12.489  0.1303 -0.0260  1.1300
 2157TIP3    H227963   1.095   6.314  12.416 -0.0622  2.1161 -2.9045
 2158TIP3   OH227964   6.077   1.125   3.054 -0.1554 -0.2795 -0.4403
 2158TIP3    H127965   6.030   1.042   3.058 -1.1737  0.1683 -1.9788
 2158TIP3    H227966   6.009   1.191   3.042  0.6621  0.7385  0.3142
 2159TIP3   OH227967   4.140   5.658   3.383 -0.3642  0.1156  0.0651
 2159TIP3    H127968   4.056   5.703   3.395 -1.0798 -0.9744 -0.6887
 2159TIP3    H227969   4.132   5.577   3.434  0.5220  0.3388  0.5846
 2160TIP3   OH227970   3.687   0.264  15.184 -0.0082  1.0102  0.4271
 2160TIP3    H127971   3.601   0.266  15.141  0.3075  1.4792 -0.1924
 2160TIP3    H227972   3.746   0.306  15.122  0.7385  0.4092  0.7151
 2161TIP3   OH227973   3.143   4.637   6.042 -0.4858 -0.1395  0.5707
 2161TIP3    H127974   3.132   4.680   5.957  1.1429 -0.2035  0.3104
 2161TIP3    H227975   3.165   4.546   6.020 -0.9926 -0.3902  1.0850
 2162TIP3   OH227976   6.415   4.536  11.963  0.2918  0.1168 -0.4584
 2162TIP3    H127977   6.384   4.540  12.054  0.2718  0.6361 -0.4832
 2162TIP3    H227978   6.371   4.610  11.920  0.3456 -0.0929 -0.8767
 2163TIP3   OH227979   3.369   3.566  12.524  0.1860  0.3103  0.2417
 2163TIP3    H127980   3.389   3.586  12.432 -0.9864  1.9046  0.3065
 2163TIP3    H227981   3.419   3.486  12.542  1.7175  0.8555 -1.3091
 2164TIP3   OH227982   6.224   1.210   3.647  0.1453  0.7495  0.7909
 2164TIP3    H127983   6.281   1.137   3.673 -1.0439  0.1906  1.9200
 2164TIP3    H227984   6.285   1.280   3.622  1.3145 -0.2974  0.5954
 2165TIP3   OH227985   5.109   1.440   0.191  0.1876 -0.2335  0.0065
 2165TIP3    H127986   5.151   1.423   0.276 -1.7390  0.6180  1.1924
 2165TIP3    H227987   5.020   1.407   0.202 -0.3691  0.7288 -1.3781
 2166TIP3   OH227988   2.528   6.214   2.537  0.1345  0.2009  0.5016
 2166TIP3    H127989   2.599   6.202   2.474  1.9265 -1.3365  2.6647
 2166TIP3    H227990   2.518   6.129   2.579 -0.1585  1.4116  3.0821
 2167TIP3   OH227991   1.652   3.518  13.037  0.0400  0.1179 -0.2238
 2167TIP3    H127992   1.659   3.583  13.106 -2.2650  0.9252 -0.6585
 2167TIP3    H227993   1.735   3.470  13.040  0.5004  0.9352  2.2539
 2168TIP3   OH227994   2.819   3.552   4.241 -0.1538 -0.3363  0.1903
 2168TIP3    H127995   2.899   3.589   4.277 -0.0302 -0.6155  0.2065
 2168TIP3    H227996   2.843   3.462   4.216  0.3478  0.4533 -2.4738
 2169TIP3   OH227997   2.338   0.886   3.870  0.6013 -0.0128 -0.1192
 2169TIP3    H127998   2.266   0.941   3.839  1.2023 -0.4581 -2.5025
 2169TIP3    H227999   2.311   0.858   3.958 -1.1134  1.5512 -0.0891
 2170TIP3   OH228000   2.144   0.837  13.894  0.2530  0.4727 -0.2995
 2170TIP3    H128001   2.186   0.879  13.970 -0.2129  0.3176  0.0437
 2170TIP3    H228002   2.185   0.880  13.818  0.5460  0.8023  0.0374
 2171TIP3   OH228003   4.790   2.185  10.575 -0.4999  0.0114 -0.1059
 2171TIP3    H128004   4.777   2.109  10.518  1.1386 -0.4391  0.0834
 2171TIP3    H228005   4.738   2.254  10.534 -1.3827 -0.9882 -0.7218
 2172TIP3   OH228006   0.259   2.824   6.516 -0.8362 -0.0711  0.2700
 2172TIP3    H128007   0.274   2.907   6.563 -4.0846  1.8337 -1.6782
 2172TIP3    H228008   0.330   2.820   6.452  1.4433 -0.7713  2.6696
 2173TIP3   OH228009   0.386   5.204  10.751  0.2998 -0.3529  0.4756
 2173TIP3    H128010   0.296   5.179  10.772 -0.2184  0.2511 -0.9738
 2173TIP3    H228011   0.437   5.123  10.765 -0.5324 -0.8322  0.8010
 2174TIP3   OH228012   4.780   3.859  17.395 -0.2919  0.3475  0.3782
 2174TIP3    H128013   4.719   3.932  17.392 -1.7690 -0.8036  0.8221
 2174TIP3    H228014   4.832   3.874  17.474 -0.5525  0.9351  0.4392
 2175TIP3   OH228015   6.192   0.286  12.276 -0.5586 -0.2822 -0.1341
 2175TIP3    H128016   6.213   0.359  12.335 -2.0423  0.4461 -0.4489
 2175TIP3    H228017   6.125   0.236  12.324  0.3633 -1.4002  0.0299
 2176TIP3   OH228018   3.495   3.726   2.374  0.4140 -0.2637 -0.8688
 2176TIP3    H128019   3.575   3.778   2.384  0.2971 -0.3599  0.8710
 2176TIP3    H228020   3.455   3.759   2.293 -0.3143  3.3153  0.7770
 2177TIP3   OH228021   4.119   1.968  12.386  0.5986  0.0715  0.0210
 2177TIP3    H128022   4.092   2.025  12.458  2.0274 -0.3330  0.9154
 2177TIP3    H228023   4.180   2.021  12.335  1.8165 -0.5526  0.7741
 2178TIP3   OH228024   3.048   0.823  14.588  0.7077 -0.3924  0.2259
 2178TIP3    H128025   2.983   0.893  14.595  0.3827 -0.7808  1.3752
 2178TIP3    H228026   3.006   0.757  14.532  0.7063 -0.0135 -0.2278
 2179TIP3   OH228027   3.765   4.850   1.727  0.1147  0.1244 -0.3651
 2179TIP3    H128028   3.852   4.861   1.765 -0.4439 -0.5272  1.2041
 2179TIP3    H228029   3.780   4.843   1.633  1.8133 -0.4605 -0.0827
 2180TIP3   OH228030   1.917   6.386   3.617 -0.2032  0.5136  0.0777
 2180TIP3    H128031   1.988   6.434   3.573  0.1655 -0.8119 -0.8293
 2180TIP3    H228032   1.863   6.352   3.546  1.3046 -3.0622  0.4225
 2181TIP3   OH228033   1.823   1.833   2.126 -0.1131 -0.2551  0.0478
 2181TIP3    H128034   1.869   1.795   2.051 -0.3007  0.9619 -0.7153
 2181TIP3    H228035   1.731   1.822   2.105 -0.1928  1.2994 -0.6033
 2182TIP3   OH228036   1.526   4.784  11.858 -0.4736  0.5802  0.5745
 2182TIP3    H128037   1.526   4.880  11.858 -0.7399  0.5899  1.4662
 2182TIP3    H228038   1.492   4.760  11.772  1.5423  1.2677 -0.4987
 2183TIP3   OH228039   2.577   0.204  13.291 -0.6079 -0.2103 -0.2504
 2183TIP3    H128040   2.560   0.128  13.346  0.0846  0.3941  0.8366
 2183TIP3    H228041   2.505   0.264  13.310 -1.3501 -0.7142 -1.3746
 2184TIP3   OH228042   3.691   4.232   5.114 -0.4887  0.6031  0.0397
 2184TIP3    H128043   3.714   4.139   5.102 -0.1668  0.4569  1.5502
 2184TIP3    H228044   3.617   4.246   5.055  1.6315  0.3563 -2.9444
 2185TIP3   OH228045   5.453   3.126   2.288 -0.3698  0.4220 -0.4122
 2185TIP3    H128046   5.396   3.076   2.345 -0.5943  2.1972  1.0233
 2185TIP3    H228047   5.398   3.197   2.255  0.4782  1.0230 -0.5731
 2186TIP3   OH228048   0.349   2.853   0.813  0.0490 -0.0151 -0.6473
 2186TIP3    H128049   0.355   2.793   0.888  1.4542  0.2023 -0.5535
 2186TIP3    H228050   0.391   2.934   0.845 -0.6749  0.5847 -1.1925
 2187TIP3   OH228051   1.302   1.664   3.025 -0.4243  0.4961 -0.2176
 2187TIP3    H128052   1.221   1.682   2.977 -1.7754 -1.5594  1.1607
 2187TIP3    H228053   1.292   1.710   3.108 -0.6704 -0.5352  0.3508
 2188TIP3   OH228054   2.355   5.417  10.918 -0.3216  0.3820  0.0961
 2188TIP3    H128055   2.387   5.472  10.846 -1.2643  0.1815 -0.5066
 2188TIP3    H228056   2.269   5.454  10.938 -0.3027  0.0761  0.7381
 2189TIP3   OH228057   6.577   4.619   6.021 -0.6084 -0.3027  0.0799
 2189TIP3    H128058   6.574   4.696   5.964 -0.4364  0.0797  0.5790
 2189TIP3    H228059   6.491   4.577   6.010 -0.8396  0.1639  0.0808
 2190TIP3   OH228060   0.712   4.332  13.785 -0.3149 -0.0171  0.2956
 2190TIP3    H128061   0.742   4.292  13.867  1.5742 -0.0376 -0.3600
 2190TIP3    H228062   0.676   4.260  13.735  1.4058 -0.6397 -0.1313
 2191TIP3   OH228063   0.641   2.892  12.978  0.3993 -0.2147 -0.4961
 2191TIP3    H128064   0.574   2.950  12.942 -0.4612 -0.5172  0.5475
 2191TIP3    H228065   0.724   2.934  12.955 -0.1432  0.3789 -1.4706
 2192TIP3   OH228066   5.185   6.274   1.878  0.5444 -0.2515  0.3794
 2192TIP3    H128067   5.278   6.290   1.860  0.4081  0.4323  0.2528
 2192TIP3    H228068   5.151   6.236   1.797  0.6939 -0.4044  0.3889
 2193TIP3   OH228069   5.606   2.496   2.516  0.1730  0.3758  0.2731
 2193TIP3    H128070   5.562   2.564   2.466 -0.6720  0.2398  0.8154
 2193TIP3    H228071   5.673   2.462   2.456  0.4174  1.4658 -0.1036
 2194TIP3   OH228072   3.820   1.413   1.555 -0.1365 -0.9385 -0.2111
 2194TIP3    H128073   3.762   1.340   1.574 -1.6572  0.6124  1.5379
 2194TIP3    H228074   3.773   1.466   1.491  0.2851 -0.7193 -0.3488
 2195TIP3   OH228075   3.809   6.219  13.799 -0.3547 -0.0391  0.2023
 2195TIP3    H128076   3.856   6.191  13.720  1.0551 -0.1540  1.0426
 2195TIP3    H228077   3.875   6.264  13.851 -1.2644  0.0431  1.3200
 2196TIP3   OH228078   5.046   2.297   6.455 -0.2806  0.3687  0.4193
 2196TIP3    H128079   5.115   2.356   6.486 -0.1101  0.4167 -0.0312
 2196TIP3    H228080   4.969   2.321   6.506 -0.5490  1.8548 -0.6179
 2197TIP3   OH228081   1.341   3.189   6.348 -0.3261  0.1731 -0.1791
 2197TIP3    H128082   1.312   3.099   6.363  1.5207 -0.1645  1.9730
 2197TIP3    H228083   1.279   3.224   6.283 -2.4426 -1.9341  0.5427
 2198TIP3   OH228084   4.034   0.943   1.906 -0.0488  0.0850  0.3068
 2198TIP3    H128085   3.956   0.967   1.956  0.5186  1.6942  0.4650
 2198TIP3    H228086   4.107   0.970   1.962  0.7126 -2.8490  0.8845
 2199TIP3   OH228087   2.819   4.728   3.380 -0.0002 -0.1692  0.0155
 2199TIP3    H128088   2.832   4.712   3.286 -0.2719 -0.0082 -0.0515
 2199TIP3    H228089   2.730   4.763   3.386  0.2964  0.5422  0.2559
 2200TIP3   OH228090   0.111   0.759  16.921 -0.3356 -0.2704 -0.5028
 2200TIP3    H128091   0.085   0.820  16.852  0.4956 -0.9221 -1.4216
 2200TIP3    H228092   0.169   0.697  16.877  0.2661 -0.6634  0.8027
 2201TIP3   OH228093   0.117   3.309   0.279  0.0773 -0.5155 -0.7347
 2201TIP3    H128094   0.181   3.246   0.315 -0.6105 -1.1702 -0.6399
 2201TIP3    H228095   0.164   3.351   0.207  1.1950  0.2153  0.3757
 2202TIP3   OH228096   6.461   1.441   2.215  0.0446 -0.4534  0.9495
 2202TIP3    H128097   6.370   1.465   2.196  1.0390  1.7365 -1.6613
 2202TIP3    H228098   6.469   1.351   2.182 -0.7781 -0.0831 -0.3286
 2203TIP3   OH228099   0.814   4.356   2.583 -0.1517  0.0596 -0.1863
 2203TIP3    H128100   0.721   4.367   2.564 -0.0951  1.9679  0.4370
 2203TIP3    H228101   0.818   4.283   2.646 -1.3168  0.5158  0.4369
 2204TIP3   OH228102   1.465   1.014  15.882 -0.7073 -0.1256  0.2080
 2204TIP3    H128103   1.440   1.073  15.812 -2.0707 -0.6781  0.2036
 2204TIP3    H228104   1.560   1.025  15.890 -0.7847  1.2503 -0.5058
 2205TIP3   OH228105   5.933   3.707   5.068  0.3859  0.2204 -0.0316
 2205TIP3    H128106   6.002   3.676   5.009 -0.1750  0.4103 -0.8067
 2205TIP3    H228107   5.970   3.782   5.113  0.6399  0.3980 -0.5392
 2206TIP3   OH228108   6.705   5.815   4.626  0.4433 -0.0874  0.1105
 2206TIP3    H128109   6.633   5.754   4.607 -0.4378  0.7113  0.8045
 2206TIP3    H228110   6.669   5.875   4.691  2.0330 -0.1910  1.1231
 2207TIP3   OH228111   6.452   4.651  15.895 -0.3422  0.1840 -0.7769
 2207TIP3    H128112   6.405   4.681  15.974  0.5017 -2.3655  0.8019
 2207TIP3    H228113   6.537   4.695  15.901  0.4433 -1.4011  0.8802
 2208TIP3   OH228114   4.512   1.610  12.333  0.0940 -0.3832  0.1233
 2208TIP3    H128115   4.506   1.522  12.371  0.2982 -0.1654  0.6688
 2208TIP3    H228116   4.595   1.610  12.285  1.7607  0.4863  2.7556
 2209TIP3   OH228117   3.572   0.785  15.660  0.6704  0.3979  0.0950
 2209TIP3    H128118   3.648   0.739  15.624  1.5057  1.0855  0.9149
 2209TIP3    H228119   3.587   0.877  15.639  0.6059  0.6697  1.1755
 2210TIP3   OH228120   3.936   0.319   0.226 -0.1096 -0.0755 -0.1038
 2210TIP3    H128121   3.878   0.243   0.235 -0.0633 -0.0174  0.7444
 2210TIP3    H228122   3.943   0.333   0.131 -1.0766 -0.3877 -0.2279
 2211TIP3   OH228123   4.447   1.050   4.881 -0.7300  0.3040 -0.0724
 2211TIP3    H128124   4.471   1.088   4.796 -0.5467  1.4530  0.4687
 2211TIP3    H228125   4.406   1.122   4.929 -1.4440 -0.5144  0.5716
 2212TIP3   OH228126   6.420   0.698   4.996 -0.0835 -0.7124 -0.2618
 2212TIP3    H128127   6.433   0.650   5.077  1.0628 -1.2391 -0.7382
 2212TIP3    H228128   6.461   0.644   4.929  1.4976  1.0060 -0.7836
 2213TIP3   OH228129   1.084   4.577  17.282  0.2413  0.4686 -0.0091
 2213TIP3    H128130   1.100   4.648  17.344  1.2462 -1.0782  1.6176
 2213TIP3    H228131   1.137   4.599  17.205 -1.6574  2.8362 -0.7632
 2214TIP3   OH228132   1.319   4.758   1.215 -0.2016  0.4283  0.1540
 2214TIP3    H128133   1.299   4.721   1.301 -1.0925  0.0253 -0.2120
 2214TIP3    H228134   1.247   4.729   1.159  0.3941  0.6406 -0.7453
 2215TIP3   OH228135   3.057   2.611  15.908  0.3514  0.1276  0.0936
 2215TIP3    H128136   2.983   2.608  15.848  0.2601 -0.7144  0.2439
 2215TIP3    H228137   3.021   2.588  15.993  1.0928 -2.1850 -0.1593
 2216TIP3   OH228138   1.099   2.506   0.763  0.2341  0.0676 -0.0828
 2216TIP3    H128139   1.090   2.418   0.799  2.5206 -0.7493 -1.3318
 2216TIP3    H228140   1.190   2.512   0.734  0.0519  2.7138 -0.4313
 2217TIP3   OH228141   4.178   3.339   5.667 -0.0948 -0.0434 -0.5858
 2217TIP3    H128142   4.214   3.427   5.677 -1.7620  0.7508 -1.1026
 2217TIP3    H228143   4.235   3.297   5.602 -0.1449  1.1961 -1.4687
 2218TIP3   OH228144   3.604   4.020  13.824  0.0409 -0.1122 -0.4028
 2218TIP3    H128145   3.670   3.992  13.888  0.7429 -1.7430 -1.7811
 2218TIP3    H228146   3.547   3.944  13.813 -2.2036  1.2933  0.8191
 2219TIP3   OH228147   5.690   6.710  17.258  0.3246  0.1886  0.2171
 2219TIP3    H128148   5.724   6.760  17.332 -0.2603 -0.2890  0.8206
 2219TIP3    H228149   5.600   6.689  17.281 -0.6314  1.9407 -1.6274
 2220TIP3   OH228150   3.927   3.592  17.121  0.0279  0.1828  0.1726
 2220TIP3    H128151   3.928   3.664  17.057  0.2459  0.4824  0.5127
 2220TIP3    H228152   3.841   3.597  17.161  0.1087  0.3701  0.3237
 2221TIP3   OH228153   0.949   6.677  10.770 -0.1993 -0.2275  0.0390
 2221TIP3    H128154   0.986   6.629  10.696 -2.9259 -1.2786 -0.7389
 2221TIP3    H228155   0.894   6.744  10.730 -0.2491  0.4138  1.1357
 2222TIP3   OH228156   1.653   1.638  13.239 -0.0064 -0.1278  0.2949
 2222TIP3    H128157   1.643   1.701  13.167 -0.4043 -0.9760 -0.4104
 2222TIP3    H228158   1.611   1.558  13.207  1.4484 -1.1165  0.7177
 2223TIP3   OH228159   0.173   0.568  15.748  0.5230 -0.2437  0.1367
 2223TIP3    H128160   0.088   0.544  15.785 -0.0400 -0.0243 -0.9989
 2223TIP3    H228161   0.156   0.585  15.656  2.0973 -1.8937 -0.5366
 2224TIP3   OH228162   1.580   2.257  12.185  0.3497 -0.7376  0.4536
 2224TIP3    H128163   1.603   2.350  12.183 -1.0332 -0.3525 -2.0520
 2224TIP3    H228164   1.495   2.252  12.142 -1.7083 -2.7308  4.2133
 2225TIP3   OH228165   2.864   3.322   3.943 -0.5519  0.1290 -0.5606
 2225TIP3    H128166   2.958   3.342   3.950 -0.9403  1.4985  1.4811
 2225TIP3    H228167   2.842   3.283   4.027 -1.4473 -2.1148 -1.7528
 2226TIP3   OH228168   2.928   5.791   6.143  0.1651  0.3269  0.3978
 2226TIP3    H128169   2.982   5.748   6.078 -0.1501 -0.7645  0.8386
 2226TIP3    H228170   2.990   5.835   6.201  0.7132 -1.8484  1.5777
 2227TIP3   OH228171   4.720   1.284  15.192 -0.7015  0.1606 -0.3684
 2227TIP3    H128172   4.695   1.377  15.193 -0.0264  0.4325  2.9353
 2227TIP3    H228173   4.812   1.285  15.167 -0.2208  0.6244  1.2737
 2228TIP3   OH228174   2.567   1.346  11.154  0.8760  0.0853  0.3882
 2228TIP3    H128175   2.532   1.260  11.180  2.0521 -0.3301  0.6402
 2228TIP3    H228176   2.529   1.362  11.068 -2.8095  1.3088  2.0048
 2229TIP3   OH228177   0.918   2.693   2.722 -0.2361 -0.1963 -0.4527
 2229TIP3    H128178   1.004   2.674   2.760 -0.3555  0.5254  0.1944
 2229TIP3    H228179   0.914   2.788   2.717 -1.5595 -0.1278  0.9238
 2230TIP3   OH228180   4.605   0.985   1.891  0.1215  0.3130 -0.2412
 2230TIP3    H128181   4.565   0.977   1.804 -0.4076  1.8583 -0.1731
 2230TIP3    H228182   4.553   0.926   1.946  0.0316 -0.1658 -0.8185
 2231TIP3   OH228183   0.633   2.166   0.849  0.3174 -0.3201  0.6842
 2231TIP3    H128184   0.581   2.087   0.857 -0.3206  0.2342  2.4166
 2231TIP3    H228185   0.705   2.142   0.791 -0.2249 -1.9606  0.6602
 2232TIP3   OH228186   3.492   1.810  14.338 -0.2598 -0.4257  0.3021
 2232TIP3    H128187   3.580   1.842  14.321 -0.4639 -1.2730 -3.1270
 2232TIP3    H228188   3.503   1.745  14.407  1.4677  0.6765  1.1538
 2233TIP3   OH228189   6.781   4.261  11.721 -0.7260  0.2119  0.2918
 2233TIP3    H128190   6.824   4.240  11.803  2.3916 -0.8486 -1.4420
 2233TIP3    H228191   6.730   4.340  11.739 -0.3650 -0.1452  3.2419
 2234TIP3   OH228192   6.174   1.570  17.320 -0.3679  0.4605 -0.1897
 2234TIP3    H128193   6.264   1.596  17.300 -0.6328  2.1935  0.6817
 2234TIP3    H228194   6.182   1.515  17.398 -0.0743  0.8690  0.0741
 2235TIP3   OH228195   6.520   3.872   5.883  0.2548  0.3626 -0.3673
 2235TIP3    H128196   6.515   3.856   5.977  0.3339  2.1840 -0.0209
 2235TIP3    H228197   6.589   3.813   5.852  1.2016  0.7525  0.9542
 2236TIP3   OH228198   2.376   3.395  12.193  0.4925 -0.0816  0.2816
 2236TIP3    H128199   2.318   3.354  12.128 -0.1597  1.1047  0.0740
 2236TIP3    H228200   2.380   3.332  12.265 -0.1311 -0.6897 -0.1987
 2237TIP3   OH228201   5.082   1.388  13.144 -0.3080 -0.9704  0.4342
 2237TIP3    H128202   5.140   1.461  13.167  0.0737 -0.8887 -0.7117
 2237TIP3    H228203   4.995   1.417  13.171 -0.6710  1.2140 -2.5456
 2238TIP3   OH228204   5.029   0.771  11.103 -0.1745 -0.1873  0.8355
 2238TIP3    H128205   4.986   0.831  11.164 -3.6099 -1.5560  0.0350
 2238TIP3    H228206   5.035   0.689  11.151 -0.3106 -0.5316  0.2669
 2239TIP3   OH228207   1.286   6.001   6.363  0.0156 -0.2041  0.6141
 2239TIP3    H128208   1.305   6.091   6.389 -0.1997  0.1258 -0.3074
 2239TIP3    H228209   1.230   5.967   6.432 -0.5542  0.6328  0.5773
 2240TIP3   OH228210   0.615   4.877   5.435  0.0918 -0.3593 -0.2847
 2240TIP3    H128211   0.603   4.853   5.527 -0.3206  0.9303  0.0305
 2240TIP3    H228212   0.558   4.954   5.424 -1.5175 -1.7284 -2.1720
 2241TIP3   OH228213   5.650   4.982  13.162 -0.1495 -0.3743  0.2794
 2241TIP3    H128214   5.722   4.983  13.099 -0.1309  0.6252  0.3026
 2241TIP3    H228215   5.676   5.044  13.230 -1.1138  0.1583  0.1805
 2242TIP3   OH228216   3.622   6.410  13.177  0.5554 -0.7698  0.2945
 2242TIP3    H128217   3.656   6.350  13.243 -0.8912 -1.5738  0.3610
 2242TIP3    H228218   3.551   6.457  13.221  0.1787 -0.6485 -0.4211
 2243TIP3   OH228219   0.207   5.302  16.714 -0.5506  0.5850 -0.1316
 2243TIP3    H128220   0.196   5.393  16.740 -2.5243  0.5216 -0.6273
 2243TIP3    H228221   0.137   5.255  16.758  0.6292 -0.7778  0.3729
 2244TIP3   OH228222   4.781   1.314   0.168  0.1802 -0.0603 -0.7781
 2244TIP3    H128223   4.728   1.334   0.245 -1.5699  1.7992 -2.3507
 2244TIP3    H228224   4.856   1.266   0.202 -0.9444 -0.0327  1.9532
 2245TIP3   OH228225   1.702   3.894   4.531 -0.0867 -0.6714  0.2139
 2245TIP3    H128226   1.785   3.911   4.576  0.6850  0.8659 -1.6457
 2245TIP3    H228227   1.635   3.924   4.593  0.9297  1.5382  0.3611
 2246TIP3   OH228228   5.991   4.190   5.146  0.1740 -0.1710 -0.1516
 2246TIP3    H128229   5.975   4.213   5.238 -0.1552  0.6235 -0.4008
 2246TIP3    H228230   6.049   4.258   5.114 -1.0618  0.5215 -0.9852
 2247TIP3   OH228231   2.479   4.134  10.933 -0.0556 -0.8836 -0.1444
 2247TIP3    H128232   2.471   4.227  10.956 -0.2449 -0.8416 -0.3710
 2247TIP3    H228233   2.536   4.134  10.855  0.4512 -1.0097  0.2244
 2248TIP3   OH228234   1.129   0.876   4.088 -0.1444 -0.7327  0.0343
 2248TIP3    H128235   1.069   0.805   4.068 -0.0934 -0.6601 -0.3902
 2248TIP3    H228236   1.171   0.897   4.004 -1.0809  0.6543 -0.1255
 2249TIP3   OH228237   4.241   1.391   4.214 -0.1031 -0.4489  0.0733
 2249TIP3    H128238   4.329   1.380   4.250  0.2696 -0.2835 -0.7754
 2249TIP3    H228239   4.240   1.337   4.136 -0.4087  0.3858 -0.5131
 2250TIP3   OH228240   1.848   5.949   4.924 -0.2617  0.5380  0.0002
 2250TIP3    H128241   1.883   6.031   4.958 -0.8769  0.2918  1.2854
 2250TIP3    H228242   1.790   5.976   4.852 -3.3097  1.6399  2.6275
 2251TIP3   OH228243   3.696   3.196   4.617  0.7563 -0.1525 -0.5493
 2251TIP3    H128244   3.675   3.115   4.664 -1.9622 -0.2352 -1.6782
 2251TIP3    H228245   3.651   3.265   4.666 -1.2679 -0.1069 -2.2925
 2252TIP3   OH228246   3.370   4.903  17.332  0.1556 -0.3237 -0.5892
 2252TIP3    H128247   3.421   4.825  17.354 -0.2987 -1.2267 -2.5443
 2252TIP3    H228248   3.353   4.895  17.239 -0.1687  1.9951 -0.7746
 2253TIP3   OH228249   4.391   3.846   5.820  0.4100  0.1737 -0.4729
 2253TIP3    H128250   4.322   3.912   5.828 -0.1131 -0.4866  0.8379
 2253TIP3    H228251   4.473   3.896   5.819  0.0065  0.8673  0.0887
 2254TIP3   OH228252   0.288   0.757  16.291  0.1102  0.1835 -0.3845
 2254TIP3    H128253   0.226   0.806  16.236  1.6424  1.7836 -0.8027
 2254TIP3    H228254   0.333   0.699  16.231 -1.5192 -1.6612  0.0703
 2255TIP3   OH228255   3.692   5.423  17.023 -0.4170 -0.1447  0.2104
 2255TIP3    H128256   3.681   5.440  16.929  0.6281 -0.2720  0.0543
 2255TIP3    H228257   3.745   5.495  17.055 -2.0068  0.7202  1.0440
 2256TIP3   OH228258   0.756   1.391  10.905  0.4244  0.2893 -0.5132
 2256TIP3    H128259   0.784   1.465  10.957  1.4297 -1.4053  1.5092
 2256TIP3    H228260   0.837   1.358  10.864  0.1143 -0.1153 -0.8201
 2257TIP3   OH228261   0.854   3.924  17.377  0.6007  0.6188  0.3204
 2257TIP3    H128262   0.776   3.910  17.325  0.3382  1.4419  0.4711
 2257TIP3    H228263   0.891   4.006  17.343  1.1241  0.4911  0.5722
 2258TIP3   OH228264   6.496   5.506   4.243 -0.0623 -0.2963 -0.3248
 2258TIP3    H128265   6.546   5.571   4.194  0.6831  0.0477  0.8739
 2258TIP3    H228266   6.447   5.458   4.175  0.0420  0.9261 -1.2974
 2259TIP3   OH228267   6.234   5.324  15.168  0.0534 -0.1496  0.1429
 2259TIP3    H128268   6.297   5.394  15.152 -0.7201  0.3153 -0.9733
 2259TIP3    H228269   6.171   5.362  15.229 -0.9264  0.5122 -1.2261
 2260TIP3   OH228270   4.725   4.751   5.118 -0.0990  0.1932  0.4072
 2260TIP3    H128271   4.740   4.827   5.174 -0.9013  0.0769  0.7970
 2260TIP3    H228272   4.666   4.695   5.169  0.6044 -0.7748  0.2006
 2261TIP3   OH228273   0.513   2.919  13.572  0.6227 -0.2270  0.3276
 2261TIP3    H128274   0.544   3.008  13.588  0.1687 -0.2698  1.5693
 2261TIP3    H228275   0.589   2.863  13.590  0.8808 -0.1127 -0.3625
 2262TIP3   OH228276   4.036   4.821   0.062 -0.2339  0.2361  0.2329
 2262TIP3    H128277   3.991   4.814  -0.022 -1.2082  0.5257  0.7177
 2262TIP3    H228278   4.009   4.743   0.111 -0.9529  0.8432  0.8544
 2263TIP3   OH228279   3.587   0.875   5.081  0.3887  0.3468 -0.6433
 2263TIP3    H128280   3.542   0.957   5.062 -0.1854  0.6599  1.7070
 2263TIP3    H228281   3.543   0.809   5.028  0.2475  1.4013 -1.8587
 2264TIP3   OH228282   5.961   5.486   5.830 -0.0370  0.0090 -0.6435
 2264TIP3    H128283   6.036   5.533   5.866  0.0233  0.9431 -1.9470
 2264TIP3    H228284   5.893   5.553   5.819 -0.1538 -0.3067 -1.9776
 2265TIP3   OH228285   4.629   5.617  11.379  0.5397  0.0348  0.6216
 2265TIP3    H128286   4.623   5.568  11.461  1.3115 -0.3375  0.4584
 2265TIP3    H228287   4.696   5.683  11.396  0.5380  0.1038  0.3581
 2266TIP3   OH228288   0.123   1.510  10.411  0.2419 -0.3199  0.6363
 2266TIP3    H128289   0.067   1.432  10.408  0.6787 -0.6132 -0.5857
 2266TIP3    H228290   0.073   1.574  10.461  0.3326 -1.7173  2.5965
 2267TIP3   OH228291   3.344   1.232   4.107 -0.9411 -0.3969  0.1850
 2267TIP3    H128292   3.284   1.302   4.082 -1.4798 -0.5377  1.0304
 2267TIP3    H228293   3.363   1.186   4.025  1.4116  2.2058 -0.8695
 2268TIP3   OH228294   1.447   1.900   1.285 -0.2658 -0.1628  0.5280
 2268TIP3    H128295   1.511   1.872   1.220 -0.1983 -2.1345  1.3586
 2268TIP3    H228296   1.393   1.823   1.300 -0.8853  0.5306  2.0908
 2269TIP3   OH228297   1.900   2.927  11.847  0.2836 -0.4624  0.2105
 2269TIP3    H128298   1.936   2.956  11.931  0.4806  0.7714 -0.2761
 2269TIP3    H228299   1.806   2.918  11.863 -0.2734  3.1072 -0.2192
 2270TIP3   OH228300   6.462   2.352   1.340 -0.0425 -0.1707  0.1563
 2270TIP3    H128301   6.455   2.278   1.280 -1.0152  1.0572 -1.3342
 2270TIP3    H228302   6.503   2.316   1.419  1.5986 -1.7730 -1.3434
 2271TIP3   OH228303   3.659   3.452  10.849 -0.5490  0.3283  0.4472
 2271TIP3    H128304   3.703   3.383  10.799 -0.0941  0.7846  0.2024
 2271TIP3    H228305   3.584   3.409  10.889  0.3004 -0.5639  1.1353
 2272TIP3   OH228306   0.854   5.005  14.489  0.4415 -0.0247 -0.1530
 2272TIP3    H128307   0.879   4.943  14.420  0.0745  1.1667 -1.4257
 2272TIP3    H228308   0.782   4.962  14.534 -0.1612 -0.3370 -1.3521
 2273TIP3   OH228309   0.057   3.270  15.001 -0.1672 -0.4322  0.0522
 2273TIP3    H128310   0.106   3.196  15.038  0.4499 -0.1248 -0.1496
 2273TIP3    H228311   0.093   3.347  15.045 -0.2542 -0.1737 -0.3319
 2274TIP3   OH228312   3.596   6.737   6.254 -0.4300 -0.2066 -0.0990
 2274TIP3    H128313   3.544   6.797   6.307  0.2694  2.2718 -2.0365
 2274TIP3    H228314   3.675   6.722   6.305  0.2284  2.1294 -0.3143
 2275TIP3   OH228315   2.112   4.071  12.100  0.0305 -0.6247 -0.0639
 2275TIP3    H128316   2.112   4.135  12.029 -1.2781 -0.9554 -0.3817
 2275TIP3    H228317   2.198   4.028  12.094  0.8510  0.9484  0.0380
 2276TIP3   OH228318   2.805   1.545   6.515  0.4348  0.0381  0.0616
 2276TIP3    H128319   2.751   1.490   6.459 -0.8289  0.8585  0.4200
 2276TIP3    H228320   2.894   1.528   6.486 -0.1054 -0.2601 -1.5717
 2277TIP3   OH228321   4.446   3.583  12.722  0.4242 -0.1813  0.2731
 2277TIP3    H128322   4.416   3.672  12.740  0.4753  0.1636 -1.2532
 2277TIP3    H228323   4.452   3.578  12.627 -0.7674 -2.2206  0.2510
 2278TIP3   OH228324   3.468   1.931  13.936 -0.5518 -0.0188  0.6298
 2278TIP3    H128325   3.558   1.961  13.922 -0.3649 -0.8443 -0.0072
 2278TIP3    H228326   3.415   1.988  13.880 -0.8287  2.5708  3.3348
 2279TIP3   OH228327   4.590   4.582  15.585  0.2781  0.4914  0.4927
 2279TIP3    H128328   4.607   4.523  15.658 -1.2955  0.0464  0.5494
 2279TIP3    H228329   4.650   4.554  15.516  0.2847 -0.4924  0.8891
 2280TIP3   OH228330   1.638   6.239  16.958  0.1041  0.4148  0.3228
 2280TIP3    H128331   1.582   6.162  16.970  0.1296  0.2410 -0.6438
 2280TIP3    H228332   1.723   6.213  16.994 -0.6785  1.0516  2.8357
 2281TIP3   OH228333   2.167   6.200   4.850 -0.0189 -0.3014 -0.6900
 2281TIP3    H128334   2.238   6.254   4.884 -0.4824  0.6621 -1.2121
 2281TIP3    H228335   2.167   6.123   4.906  1.5210 -0.3888 -0.7694
 2282TIP3   OH228336   0.313   3.997   2.984  0.2685 -0.0837 -0.3463
 2282TIP3    H128337   0.359   3.922   2.947 -0.0146 -0.7515  0.6200
 2282TIP3    H228338   0.382   4.049   3.025  0.1434 -1.5391  1.8918
 2283TIP3   OH228339   0.993   2.238  13.193  0.2111  0.2112  0.1759
 2283TIP3    H128340   0.903   2.253  13.165  0.3062 -0.4247 -0.5172
 2283TIP3    H228341   1.004   2.143  13.189  0.4831  0.1660  1.6520
 2284TIP3   OH228342   5.033   5.807   5.526 -0.0791 -0.7023 -0.2007
 2284TIP3    H128343   4.959   5.868   5.526  0.5535  0.0794  0.1381
 2284TIP3    H228344   5.001   5.732   5.476 -0.4809  0.4003 -1.6945
 2285TIP3   OH228345   4.901   1.785   4.482 -0.3024  0.4746  0.2220
 2285TIP3    H128346   4.955   1.706   4.486 -0.0187  0.7241  1.7601
 2285TIP3    H228347   4.930   1.830   4.403 -0.6111 -1.0371 -0.8021
 2286TIP3   OH228348   5.724   4.670  17.398  0.3676 -0.0020  0.1479
 2286TIP3    H128349   5.663   4.615  17.449 -1.8397 -0.1408 -2.4346
 2286TIP3    H228350   5.704   4.759  17.425 -1.3778 -0.0131 -0.9471
 2287TIP3   OH228351   1.561   1.908  16.108 -0.1970 -0.2048  0.1165
 2287TIP3    H128352   1.567   1.919  16.203  0.4964 -3.1268  0.5140
 2287TIP3    H228353   1.544   1.996  16.074 -0.2437  0.9560  2.9091
 2288TIP3   OH228354   5.584   6.641   1.362 -0.1418  0.3280 -0.1398
 2288TIP3    H128355   5.499   6.648   1.406 -0.8335 -1.0799 -1.1801
 2288TIP3    H228356   5.599   6.546   1.355  0.6062  0.5307 -1.6542
 2289TIP3   OH228357   2.811   2.283   0.974 -0.4909  0.5131  0.2954
 2289TIP3    H128358   2.748   2.211   0.977 -0.2092  0.0535 -2.2591
 2289TIP3    H228359   2.872   2.264   1.045 -0.5981 -1.6565 -0.1092
 2290TIP3   OH228360   1.199   6.524   0.153 -0.6534 -0.2970  0.5080
 2290TIP3    H128361   1.165   6.608   0.123 -0.6268  0.2256  1.8824
 2290TIP3    H228362   1.208   6.472   0.073 -1.2477  0.7887 -0.2912
 2291TIP3   OH228363   0.193   4.985  15.862  0.0337 -0.2988  0.2320
 2291TIP3    H128364   0.250   5.040  15.915  0.6426 -0.1477 -0.5617
 2291TIP3    H228365   0.221   4.895  15.881  0.0685 -0.2578  0.3700
 2292TIP3   OH228366   1.373   1.006  14.654 -0.1257 -0.5690 -0.4450
 2292TIP3    H128367   1.400   1.090  14.690 -0.6367 -0.5500 -0.0933
 2292TIP3    H228368   1.455   0.959  14.639  0.1373 -0.2328 -0.0895
 2293TIP3   OH228369   4.480   3.521   5.948 -0.1344  0.1907  0.1478
 2293TIP3    H128370   4.500   3.541   6.039 -2.9099  0.1293  0.8422
 2293TIP3    H228371   4.534   3.583   5.898  2.6235 -0.8134  1.6825
 2294TIP3   OH228372   1.034   0.457  13.821 -0.6619  0.4510 -0.1746
 2294TIP3    H128373   0.985   0.520  13.875 -0.6178  0.4292 -0.1090
 2294TIP3    H228374   1.007   0.477  13.732  1.0357  2.0894 -0.3840
 2295TIP3   OH228375   5.711   3.544   5.073 -0.7400 -0.2382 -0.5570
 2295TIP3    H128376   5.682   3.552   4.983  0.0021 -2.2204 -1.0320
 2295TIP3    H228377   5.798   3.584   5.074 -0.5474 -0.6393 -0.8535
 2296TIP3   OH228378   5.366   6.306   3.325  0.2908  0.0451 -0.4592
 2296TIP3    H128379   5.288   6.251   3.319 -0.3296  0.3206  3.0143
 2296TIP3    H228380   5.439   6.245   3.331  0.2367 -0.2276 -2.0336
 2297TIP3   OH228381   2.447   6.015  13.308  0.2026  0.2734 -0.1314
 2297TIP3    H128382   2.489   5.943  13.260  0.0055  1.2891 -1.9190
 2297TIP3    H228383   2.387   6.054  13.245  1.3700  2.9300  0.2479
 2298TIP3   OH228384   0.642   4.872  15.587  0.4060 -0.1307 -0.2979
 2298TIP3    H128385   0.606   4.921  15.513 -0.6537  0.9298  0.8652
 2298TIP3    H228386   0.735   4.861  15.567  0.8603  3.0240 -0.2811
 2299TIP3   OH228387   6.249   0.060  12.920  0.2842  0.2701 -0.0239
 2299TIP3    H128388   6.314   0.130  12.917  1.4507 -0.5495  2.7853
 2299TIP3    H228389   6.178   0.097  12.973 -0.7724  0.5154 -1.5491
 2300TIP3   OH228390   3.409   3.181  11.982  0.1271 -0.5138  0.5655
 2300TIP3    H128391   3.457   3.182  12.065 -0.5449 -0.1781  0.9493
 2300TIP3    H228392   3.359   3.262  11.981  1.3000  0.2421 -0.8740
 2301TIP3   OH228393   2.934   1.919   3.773  0.2326  0.4462 -0.2277
 2301TIP3    H128394   3.002   1.853   3.786  1.7056  1.9150 -0.1232
 2301TIP3    H228395   2.969   1.998   3.814 -1.6369  1.2152 -0.0246
 2302TIP3   OH228396   6.771   1.034   0.169 -0.3697  0.1097  0.5931
 2302TIP3    H128397   6.807   0.962   0.220  2.0509  0.0974 -1.0039
 2302TIP3    H228398   6.723   0.992   0.098 -0.2122  0.0997  0.4938
 2303TIP3   OH228399   5.772   1.590  10.859  0.1090  0.4043 -0.2669
 2303TIP3    H128400   5.711   1.516  10.866 -0.1283  0.4423 -1.6681
 2303TIP3    H228401   5.833   1.577  10.931  1.2397 -2.2496 -1.5548
 2304TIP3   OH228402   1.306   2.523   1.014  0.1206  0.5313 -0.0730
 2304TIP3    H128403   1.362   2.559   1.082  1.8167 -3.2481  0.8004
 2304TIP3    H228404   1.258   2.452   1.058 -1.5720  0.3942 -1.9857
 2305TIP3   OH228405   5.152   3.660  14.058  0.1181 -0.3260 -0.5049
 2305TIP3    H128406   5.114   3.695  13.977  1.3301  1.7442 -0.2555
 2305TIP3    H228407   5.090   3.686  14.126  0.5673  0.6436 -0.4376
 2306TIP3   OH228408   6.497   6.586   2.168  0.1056 -0.0752 -0.1378
 2306TIP3    H128409   6.544   6.658   2.209  1.7831 -0.8237 -0.6687
 2306TIP3    H228410   6.407   6.597   2.197  0.5822  1.4312  0.8907
 2307TIP3   OH228411   0.341   2.756  16.962 -0.0538 -0.8198 -1.1894
 2307TIP3    H128412   0.334   2.779  16.869  0.1343  0.7895 -0.8338
 2307TIP3    H228413   0.389   2.829  17.001  1.0762 -2.1157 -0.0547
 2308TIP3   OH228414   2.378   0.713   3.596 -0.5271 -0.6478 -0.1601
 2308TIP3    H128415   2.408   0.670   3.516  0.0042  0.3382 -0.4991
 2308TIP3    H228416   2.324   0.786   3.566  2.7067  2.1166  0.1519
 2309TIP3   OH228417   0.983   5.389   1.021  0.0162 -0.4404 -0.6898
 2309TIP3    H128418   0.967   5.302   1.057  1.4736 -0.7521 -0.7147
 2309TIP3    H228419   1.077   5.402   1.032 -0.4406  2.0274  1.3073
 2310TIP3   OH228420   5.675   1.910  12.139 -0.0894  1.1120 -0.1462
 2310TIP3    H128421   5.648   1.840  12.198 -0.4840  2.0639  0.8370
 2310TIP3    H228422   5.649   1.880  12.052 -0.7472  0.2759  0.3253
 2311TIP3   OH228423   3.761   3.541  16.285  0.0690  0.4230  0.3630
 2311TIP3    H128424   3.792   3.538  16.376  2.1414  2.3196 -0.1911
 2311TIP3    H228425   3.688   3.604  16.287  0.0988  0.4500  0.7153
 2312TIP3   OH228426   3.300   4.726  12.660  0.2136  0.2318  0.1723
 2312TIP3    H128427   3.317   4.790  12.730  0.9546 -0.0042  0.2130
 2312TIP3    H228428   3.216   4.687  12.684  0.8937 -0.5200  1.4495
 2313TIP3   OH228429   4.390   2.792   6.320 -0.1882  0.3988  0.2606
 2313TIP3    H128430   4.456   2.811   6.386  0.9724  2.2297 -1.3281
 2313TIP3    H228431   4.352   2.878   6.299 -0.9854 -0.2226 -0.9589
 2314TIP3   OH228432   3.102   5.542  16.058 -0.4614  0.9567 -0.0543
 2314TIP3    H128433   3.061   5.580  15.980 -0.8275  2.8420  1.0044
 2314TIP3    H228434   3.141   5.617  16.104 -1.2911  0.0853  2.1878
 2315TIP3   OH228435   0.501   5.738   0.296 -0.2990  0.4001 -0.2238
 2315TIP3    H128436   0.516   5.694   0.380 -0.4965  2.2530  0.8470
 2315TIP3    H228437   0.588   5.763   0.266 -0.2657  0.1845 -0.3049
 2316TIP3   OH228438   2.380   2.233  14.457 -0.0453  0.1327  0.1473
 2316TIP3    H128439   2.385   2.264  14.366  1.1945 -0.2859  0.0503
 2316TIP3    H228440   2.301   2.274  14.492 -2.0468 -1.7262 -1.8772
 2317TIP3   OH228441   1.529   2.461   3.967 -0.0991 -0.4098  0.2175
 2317TIP3    H128442   1.554   2.454   3.875  1.9960 -1.0991  0.7847
 2317TIP3    H228443   1.455   2.521   3.968  1.2303  1.3814 -1.6978
 2318TIP3   OH228444   6.379   0.688  11.422  0.1720 -0.2670 -0.4800
 2318TIP3    H128445   6.393   0.716  11.512 -0.7166  0.7387 -0.6433
 2318TIP3    H228446   6.290   0.654  11.421 -0.1932  0.6666 -1.1937
 2319TIP3   OH228447   3.883   1.725   3.961  0.0977  0.2841  0.0918
 2319TIP3    H128448   3.788   1.735   3.971  0.0558 -0.6078  0.6311
 2319TIP3    H228449   3.911   1.677   4.039  0.9595  0.2942 -0.1988
 2320TIP3   OH228450   2.664   6.597   4.692 -0.2114 -0.0555 -0.3327
 2320TIP3    H128451   2.686   6.619   4.601 -0.9990  1.3183 -0.2090
 2320TIP3    H228452   2.748   6.585   4.735  0.2256 -3.3643 -1.8030
 2321TIP3   OH228453   1.912   1.173   4.719 -0.0450  0.0616  0.2069
 2321TIP3    H128454   1.887   1.221   4.640 -1.8926 -1.5381 -0.2616
 2321TIP3    H228455   1.985   1.117   4.691 -0.7898 -0.6147 -0.4455
 2322TIP3   OH228456   0.953   0.932  12.087 -0.1811  0.1218 -0.3377
 2322TIP3    H128457   0.883   0.948  12.150  0.8287  0.2196  0.7807
 2322TIP3    H228458   1.031   0.968  12.128  0.3584  0.9542 -2.0186
 2323TIP3   OH228459   0.805   5.004   3.359 -0.2025  0.5586  0.0772
 2323TIP3    H128460   0.799   4.909   3.356 -3.3408  0.5761  2.0590
 2323TIP3    H228461   0.896   5.022   3.383  0.4065 -1.9058 -0.1655
 2324TIP3   OH228462   1.690   5.522   1.628 -0.3017 -0.5459 -0.0583
 2324TIP3    H128463   1.656   5.564   1.707 -1.1317 -0.3416 -0.5164
 2324TIP3    H228464   1.613   5.488   1.583  0.1205 -0.3452 -0.9655
 2325TIP3   OH228465   1.422   5.883   3.674  0.0785  0.8639 -0.1353
 2325TIP3    H128466   1.402   5.974   3.652  0.4228  1.0628  0.3512
 2325TIP3    H228467   1.512   5.885   3.706  0.4613  0.1831 -1.1023
 2326TIP3   OH228468   2.212   2.908   0.287 -0.4798 -0.2512  0.2657
 2326TIP3    H128469   2.238   2.993   0.322 -0.2030  0.1949 -0.9663
 2326TIP3    H228470   2.204   2.852   0.363 -0.0899  0.7296  1.0494
 2327TIP3   OH228471   3.635   6.519   0.729 -0.2828  0.0299 -0.4817
 2327TIP3    H128472   3.690   6.462   0.781 -0.1745  0.3370 -0.2529
 2327TIP3    H228473   3.549   6.515   0.772 -1.2683 -2.6722 -2.4665
 2328TIP3   OH228474   6.228   0.471  14.778  0.0433  0.5048  0.7521
 2328TIP3    H128475   6.319   0.489  14.801  0.5591  1.7242 -1.9014
 2328TIP3    H228476   6.230   0.383  14.739 -0.0300  0.3062  1.1896
 2329TIP3   OH228477   3.011   0.776  13.902 -0.1929 -0.0069 -0.2511
 2329TIP3    H128478   3.045   0.741  13.820  1.1909  2.0471 -0.6034
 2329TIP3    H228479   2.917   0.756  13.899 -0.1510 -0.0761 -2.2681
 2330TIP3   OH228480   1.707   2.524   1.987 -0.0095  0.1583 -0.3709
 2330TIP3    H128481   1.657   2.538   2.068 -0.8615  1.1087 -1.0337
 2330TIP3    H228482   1.731   2.612   1.958  0.0914 -0.1542 -1.2734
 2331TIP3   OH228483   0.312   0.034  14.064  0.1321 -0.7477  0.5161
 2331TIP3    H128484   0.349   0.041  14.152 -1.3543 -0.6262  1.1723
 2331TIP3    H228485   0.279   0.121  14.044  0.6284 -0.7268 -0.2596
 2332TIP3   OH228486   0.691   5.379  12.844 -0.1034 -0.1968  0.2040
 2332TIP3    H128487   0.722   5.392  12.934  0.6056 -1.5262  0.1766
 2332TIP3    H228488   0.640   5.298  12.848 -2.5441  1.2294 -0.0370
 2333TIP3   OH228489   5.882   5.255   1.690 -0.2372 -0.1727  0.3189
 2333TIP3    H128490   5.893   5.348   1.670  0.1533 -0.1738  0.5122
 2333TIP3    H228491   5.790   5.237   1.672 -0.8137  0.7144  2.1888
 2334TIP3   OH228492   2.669   0.459  12.904  0.1241  0.0714 -0.1399
 2334TIP3    H128493   2.687   0.482  12.813 -0.7458 -2.5321 -1.0779
 2334TIP3    H228494   2.591   0.403  12.899 -0.4436  0.5251  2.3254
 2335TIP3   OH228495   4.090   6.110   4.033 -0.2566  0.1035 -0.6929
 2335TIP3    H128496   4.167   6.084   4.082  0.0100  2.0623  0.0385
 2335TIP3    H228497   4.029   6.038   4.043  0.3064 -0.1428  1.3936
 2336TIP3   OH228498   1.597   0.898   3.215  0.0406  0.2595  0.2467
 2336TIP3    H128499   1.531   0.830   3.205  0.8046 -0.5275  0.4074
 2336TIP3    H228500   1.645   0.874   3.294  0.4242  0.9031  0.2225
 2337TIP3   OH228501   4.298   5.735  12.045 -0.0343  0.4019  0.4713
 2337TIP3    H128502   4.360   5.697  12.108 -0.3486  1.9884  1.7952
 2337TIP3    H228503   4.215   5.738  12.093 -0.8204 -0.3451 -0.7894
 2338TIP3   OH228504   5.103   5.479   0.967 -0.6610  0.1019 -0.1793
 2338TIP3    H128505   5.182   5.515   0.926  0.0353 -0.9343  0.2143
 2338TIP3    H228506   5.091   5.394   0.924 -0.3774 -0.6511  1.1852
 2339TIP3   OH228507   2.256   0.327   5.078  0.2804  0.1064 -0.1579
 2339TIP3    H128508   2.328   0.325   5.014  0.3048 -0.6367 -0.1142
 2339TIP3    H228509   2.184   0.369   5.031  1.0874  1.9551  0.1841
 2340TIP3   OH228510   6.351   1.825   1.043  0.1402  0.0119  0.0372
 2340TIP3    H128511   6.287   1.753   1.043 -0.0348  0.1368  1.2449
 2340TIP3    H228512   6.432   1.784   1.012 -0.1136 -0.5608  0.1020
 2341TIP3   OH228513   0.670   6.353   2.491 -0.1127 -0.0307  0.2078
 2341TIP3    H128514   0.595   6.382   2.439  0.7955  1.9843 -0.0517
 2341TIP3    H228515   0.648   6.378   2.581  0.0150  0.0453  0.2179
 2342TIP3   OH228516   3.918   6.046   3.588 -0.2599 -0.1698 -0.7006
 2342TIP3    H128517   3.987   6.112   3.575  0.7428 -0.7491  1.2193
 2342TIP3    H228518   3.853   6.066   3.522 -0.1672  2.9800 -0.0003
 2343TIP3   OH228519   6.089   3.529   6.137 -0.2594  0.2201  0.2337
 2343TIP3    H128520   6.094   3.599   6.201 -0.5277  0.5369 -0.0856
 2343TIP3    H228521   6.014   3.476   6.165  0.7152 -0.6920  1.2068
 2344TIP3   OH228522   6.331   6.600   5.555 -1.0643 -0.3225  0.5164
 2344TIP3    H128523   6.376   6.604   5.639 -0.6943 -1.7699  0.4045
 2344TIP3    H228524   6.376   6.531   5.506  0.3247  2.0762 -1.8352
 2345TIP3   OH228525   4.514   1.128   2.247  0.2285  1.1246 -0.0700
 2345TIP3    H128526   4.473   1.155   2.329  0.2502  1.4091 -0.1543
 2345TIP3    H228527   4.506   1.204   2.189 -0.6466  0.6061 -0.6542
 2346TIP3   OH228528   4.500   1.926  15.096 -0.3560 -0.4771  0.1231
 2346TIP3    H128529   4.514   2.017  15.123  0.5190 -0.8988  1.1791
 2346TIP3    H228530   4.471   1.882  15.177 -2.2278 -0.8582 -0.6961
 2347TIP3   OH228531   3.885   3.594  13.776 -0.0054 -0.4441 -0.4595
 2347TIP3    H128532   3.890   3.673  13.831 -0.2951 -0.5818 -0.2328
 2347TIP3    H228533   3.810   3.546  13.810  1.4007 -1.8826  0.8127
 2348TIP3   OH228534   1.109   0.231  10.580  0.5239 -0.5060  0.9657
 2348TIP3    H128535   1.062   0.168  10.526  0.7189 -0.2224  0.4561
 2348TIP3    H228536   1.109   0.311  10.528 -0.5661  0.2136  2.0049
 2349TIP3   OH228537   6.097   2.150   2.381 -0.1875  0.1322 -0.0582
 2349TIP3    H128538   6.011   2.143   2.422 -0.9579 -0.8333 -1.7571
 2349TIP3    H228539   6.079   2.160   2.288  1.5460 -0.5312 -0.5034
 2350TIP3   OH228540   5.516   0.500   4.742  0.2675 -0.4334 -0.4896
 2350TIP3    H128541   5.504   0.594   4.731  1.3442 -0.2711 -0.4388
 2350TIP3    H228542   5.428   0.463   4.741 -0.1412  0.5388 -0.8427
 2351TIP3   OH228543   4.442   0.545  17.184  0.4246 -0.1763  0.2739
 2351TIP3    H128544   4.480   0.633  17.173  0.7253 -0.2827  0.4385
 2351TIP3    H228545   4.422   0.516  17.095  1.6170 -0.5051  0.1014
 2352TIP3   OH228546   0.966   6.711   2.006 -0.1613  0.5898  0.2072
 2352TIP3    H128547   0.900   6.645   2.029  0.1797  0.0562 -0.3078
 2352TIP3    H228548   0.987   6.753   2.090 -0.7965  0.4336  0.4539
 2353TIP3   OH228549   1.929   5.987   0.394 -0.5544  0.1314 -0.3156
 2353TIP3    H128550   1.989   6.009   0.465  1.8081 -1.6940 -1.6096
 2353TIP3    H228551   1.856   5.942   0.437 -0.2804  1.0396  1.1567
 2354TIP3   OH228552   5.849   2.929   2.343 -0.5221 -0.2691  0.0644
 2354TIP3    H128553   5.869   2.836   2.333 -0.9045 -0.3763  0.2396
 2354TIP3    H228554   5.892   2.954   2.425 -0.5542 -0.3327  0.1006
 2355TIP3   OH228555   0.399   4.200  11.057 -0.0709  0.0061 -0.3497
 2355TIP3    H128556   0.468   4.233  10.998  1.6244 -0.5240  1.2294
 2355TIP3    H228557   0.345   4.145  11.001  1.0666  0.0735 -1.5711
 2356TIP3   OH228558   3.907   3.467  11.604 -0.4128  0.2494  0.2440
 2356TIP3    H128559   3.928   3.379  11.636  0.2584 -0.5009 -2.1051
 2356TIP3    H228560   3.990   3.501  11.572 -1.2326  0.4680 -1.7531
 2357TIP3   OH228561   5.477   5.014  13.680  0.1711 -0.7264 -0.0697
 2357TIP3    H128562   5.532   5.034  13.604  1.2501  1.3230  1.1510
 2357TIP3    H228563   5.539   4.998  13.751 -0.8059 -0.5810  0.8439
 2358TIP3   OH228564   5.007   3.656   6.041 -0.0951 -0.9579  0.5611
 2358TIP3    H128565   4.941   3.609   6.092  0.0150 -1.2694  0.4228
 2358TIP3    H228566   4.960   3.688   5.964  0.0526 -1.7504  0.1318
 2359TIP3   OH228567   1.293   2.726  11.562  0.0481  0.1272  0.5826
 2359TIP3    H128568   1.233   2.799  11.577 -0.1626 -0.2581  1.6769
 2359TIP3    H228569   1.321   2.737  11.471 -0.2746  1.3484  0.6086
 2360TIP3   OH228570   4.475   5.399   3.693  0.6838  0.5204 -0.0802
 2360TIP3    H128571   4.563   5.386   3.730  0.5588 -0.3369 -0.0658
 2360TIP3    H228572   4.440   5.473   3.742  1.4885  1.0288 -0.2534
 2361TIP3   OH228573   6.250   5.706   1.789 -0.2234  0.3555  0.1698
 2361TIP3    H128574   6.252   5.610   1.795 -0.5671  0.1998 -1.5443
 2361TIP3    H228575   6.256   5.736   1.879  0.7136 -1.2684  0.6884
 2362TIP3   OH228576   0.721   0.789  12.380 -0.4287 -0.1473  0.4963
 2362TIP3    H128577   0.711   0.829  12.294 -0.0963  2.6331  1.6451
 2362TIP3    H228578   0.641   0.812  12.427  0.5197  0.6960  1.7600
 2363TIP3   OH228579   0.752   0.188  11.778 -0.3117  0.7427  0.1253
 2363TIP3    H128580   0.669   0.234  11.791  0.3953  2.0155  0.3409
 2363TIP3    H228581   0.792   0.229  11.702  0.2333  0.3048  0.1613
 2364TIP3   OH228582   2.332   4.242   4.850 -0.4286 -0.3692 -0.5884
 2364TIP3    H128583   2.424   4.214   4.845  0.0082  0.7325  0.7101
 2364TIP3    H228584   2.298   4.227   4.761  1.3402  0.3246 -1.4344
 2365TIP3   OH228585   1.024   6.354  16.416  0.4485 -0.3690  0.2331
 2365TIP3    H128586   0.943   6.313  16.386  0.6567 -1.2949  0.8939
 2365TIP3    H228587   1.086   6.282  16.424  1.5304  0.4027 -0.8226
 2366TIP3   OH228588   0.693   0.705  13.098 -0.1393 -0.3556  0.5000
 2366TIP3    H128589   0.623   0.742  13.044  0.9832 -0.1564 -0.8855
 2366TIP3    H228590   0.688   0.754  13.180  0.4838  2.1290 -0.8106
 2367TIP3   OH228591   5.566   6.585  12.096 -0.3916  0.3214 -0.2097
 2367TIP3    H128592   5.597   6.504  12.136 -0.3042  0.9958  1.1092
 2367TIP3    H228593   5.619   6.594  12.016 -0.6286 -1.0715 -0.5578
 2368TIP3   OH228594   5.691   6.748  12.949  0.7492  0.4827 -0.4936
 2368TIP3    H128595   5.778   6.717  12.924  0.2438  0.4379 -2.3164
 2368TIP3    H228596   5.649   6.772  12.867 -1.0431  0.3367  0.3255
 2369TIP3   OH228597   4.698   5.652  12.672 -0.0489 -0.4943 -0.2277
 2369TIP3    H128598   4.719   5.583  12.735 -0.3307 -0.2780  0.1086
 2369TIP3    H228599   4.634   5.613  12.614  0.7702 -0.9439 -0.8563
 2370TIP3   OH228600   6.782   0.590   0.627  0.4793  0.7087  0.5422
 2370TIP3    H128601   6.703   0.562   0.673 -0.1432  1.4450 -0.0309
 2370TIP3    H228602   6.788   0.531   0.552  0.2173  0.9173  0.3516
 2371TIP3   OH228603   6.135   3.516  16.929 -0.6360  0.0660 -0.2939
 2371TIP3    H128604   6.187   3.467  16.866  1.5791  0.5566  1.0300
 2371TIP3    H228605   6.084   3.577  16.876  1.0397  0.3646 -1.6406
 2372TIP3   OH228606   1.670   2.036   5.062  0.3662 -0.7696 -0.0443
 2372TIP3    H128607   1.724   1.961   5.087  1.5326 -0.6374 -1.9676
 2372TIP3    H228608   1.700   2.059   4.974 -0.4997  1.4822  0.1827
 2373TIP3   OH228609   1.870   5.545  11.822  0.1435 -0.5056  0.2388
 2373TIP3    H128610   1.930   5.611  11.856 -1.6824  1.8781 -0.8406
 2373TIP3    H228611   1.820   5.517  11.899  1.0729 -0.8435  0.7403
 2374TIP3   OH228612   6.097   5.693  14.171 -0.2705 -0.0444 -0.3251
 2374TIP3    H128613   6.115   5.673  14.079  2.8554 -0.1237  0.2039
 2374TIP3    H228614   6.091   5.607  14.213  1.6577 -0.0424  0.0396
 2375TIP3   OH228615   0.267   5.805  13.096 -0.2544  0.4787 -0.0971
 2375TIP3    H128616   0.360   5.785  13.111 -0.3293  0.4463  0.3323
 2375TIP3    H228617   0.267   5.894  13.062 -0.0214  0.2648 -0.6655
 2376TIP3   OH228618   2.408   4.604   0.725  0.1637 -0.1451 -0.0004
 2376TIP3    H128619   2.315   4.600   0.703  0.3123  0.2166 -0.6915
 2376TIP3    H228620   2.410   4.581   0.818 -0.6089 -0.2271  0.0091
 2377TIP3   OH228621   1.186   5.358  13.439 -0.2801  0.4320  0.5250
 2377TIP3    H128622   1.211   5.324  13.353 -0.2759  1.4441  0.1027
 2377TIP3    H228623   1.244   5.313  13.500 -0.8012 -0.8580  0.0869
 2378TIP3   OH228624   3.182   1.439   1.030  0.5291  0.5555  0.0509
 2378TIP3    H128625   3.141   1.379   1.092  2.9669  1.0394  2.3229
 2378TIP3    H228626   3.110   1.491   0.996 -1.1224 -0.8269  1.2609
 2379TIP3   OH228627   1.819   4.646  11.806  0.0125  0.0281 -0.5229
 2379TIP3    H128628   1.772   4.725  11.780 -1.7970 -0.4908  0.8980
 2379TIP3    H228629   1.765   4.574  11.772  1.5186 -0.6306 -1.6210
 2380TIP3   OH228630   4.181   2.606   2.941  0.1922  0.7498  0.0934
 2380TIP3    H128631   4.112   2.593   2.876  0.0019 -1.3563  0.6358
 2380TIP3    H228632   4.262   2.585   2.894  0.1111 -0.1641  0.3370
 2381TIP3   OH228633   6.692   5.569  15.754 -0.0026 -0.0442  0.2728
 2381TIP3    H128634   6.714   5.614  15.673  0.5667 -0.0856  0.3992
 2381TIP3    H228635   6.751   5.606  15.819 -0.8780  0.4326  0.8114
 2382TIP3   OH228636   2.564   4.326  15.361  0.0789 -0.6582 -0.0310
 2382TIP3    H128637   2.482   4.288  15.329  0.5211 -1.7279  0.0576
 2382TIP3    H228638   2.619   4.250  15.380  0.2651 -0.0299  2.1379
 2383TIP3   OH228639   6.164   3.472   0.301  0.1794 -0.4410  0.0353
 2383TIP3    H128640   6.178   3.381   0.273  1.5093 -0.0283 -0.6872
 2383TIP3    H228641   6.241   3.519   0.271 -0.9661  1.1572 -0.5179
 2384TIP3   OH228642   5.459   5.479  14.088 -0.1616  0.5590  0.2179
 2384TIP3    H128643   5.384   5.422  14.105  0.5621 -1.2394 -2.0825
 2384TIP3    H228644   5.455   5.497  13.994  1.7169  1.2252  0.2280
 2385TIP3   OH228645   3.548   4.196   0.070  0.4021  0.5299  0.7157
 2385TIP3    H128646   3.482   4.247   0.116 -1.5208 -0.7734 -0.4475
 2385TIP3    H228647   3.566   4.122   0.128 -3.0571 -1.8875 -0.8989
 2386TIP3   OH228648   6.539   0.502   3.592 -0.8238 -0.0433  0.0373
 2386TIP3    H128649   6.541   0.531   3.683 -2.1590 -2.6241  0.9985
 2386TIP3    H228650   6.451   0.466   3.579  0.1608 -2.2295 -1.3672
 2387TIP3   OH228651   1.355   6.108  11.699 -0.3535 -0.7899  0.1475
 2387TIP3    H128652   1.312   6.154  11.770  0.3447  0.7483 -0.3691
 2387TIP3    H228653   1.418   6.050  11.742 -0.2087 -0.1601  0.8032
 2388TIP3   OH228654   6.638   3.108   0.153 -0.6718  0.2555 -0.5291
 2388TIP3    H128655   6.708   3.168   0.130 -0.9051  0.1232 -1.6364
 2388TIP3    H228656   6.657   3.028   0.104 -0.8270 -0.2775  0.2640
 2389TIP3   OH228657   2.301   5.946   2.786  0.9272 -0.5538  0.1661
 2389TIP3    H128658   2.304   5.999   2.866  2.6538  0.4075 -0.4895
 2389TIP3    H228659   2.391   5.944   2.755  0.6473 -2.6765 -0.6518
 2390TIP3   OH228660   0.412   2.248   2.077  0.3694  0.2188  0.2561
 2390TIP3    H128661   0.426   2.160   2.044  0.6949  0.5979 -0.6502
 2390TIP3    H228662   0.324   2.246   2.113  0.2321 -0.3806 -0.0911
 2391TIP3   OH228663   5.587   0.761  13.794  0.1241 -0.2430 -0.6736
 2391TIP3    H128664   5.597   0.747  13.700  0.9707 -1.7379 -0.3885
 2391TIP3    H228665   5.607   0.676  13.834 -0.1242  0.3818  0.8717
 2392TIP3   OH228666   0.244   3.638  15.748 -0.2380  0.3839 -0.5784
 2392TIP3    H128667   0.291   3.596  15.820 -1.5959  0.1491  0.2017
 2392TIP3    H228668   0.260   3.581  15.673 -0.8707 -0.7572  0.1295
 2393TIP3   OH228669   4.110   4.575  17.214 -0.1906 -0.0730  0.4219
 2393TIP3    H128670   4.184   4.634  17.230  0.3423 -0.6153 -0.0122
 2393TIP3    H228671   4.035   4.634  17.200 -0.0484  0.4790  1.7457
 2394TIP3   OH228672   1.625   5.486  12.663 -0.5596  0.0979  0.2075
 2394TIP3    H128673   1.617   5.544  12.587  1.6535 -0.2070 -0.3210
 2394TIP3    H228674   1.703   5.434  12.645  0.1052  0.0863  2.7420
 2395TIP3   OH228675   3.451   5.959   4.939 -0.2923  0.1667 -0.4522
 2395TIP3    H128676   3.420   6.021   5.006  0.0814  0.1742 -0.2850
 2395TIP3    H228677   3.542   5.941   4.963 -0.4166 -0.5003 -0.4588
 2396TIP3   OH228678   0.218   6.337  10.448 -0.2413 -0.2721  0.5559
 2396TIP3    H128679   0.126   6.313  10.458 -0.9908  2.5601  1.6136
 2396TIP3    H228680   0.267   6.256  10.463 -2.5464 -1.9925 -0.7146
 2397TIP3   OH228681   2.400   2.041   2.593 -0.1838  0.2006  0.0581
 2397TIP3    H128682   2.346   2.046   2.514 -0.5407 -1.3845  0.1828
 2397TIP3    H228683   2.355   2.097   2.657 -1.1491 -0.3360 -0.1396
 2398TIP3   OH228684   0.179   3.901  12.601 -0.1004 -0.4788  0.3027
 2398TIP3    H128685   0.240   3.845  12.647  2.1851 -0.3386 -2.2939
 2398TIP3    H228686   0.135   3.951  12.670  2.4940 -0.8055  2.3571
 2399TIP3   OH228687   3.014   0.713   0.967 -0.3970 -0.5800 -0.3703
 2399TIP3    H128688   2.988   0.687   1.055 -1.6655 -0.0291 -0.5557
 2399TIP3    H228689   3.108   0.695   0.963 -0.3914 -0.9453  0.9633
 2400TIP3   OH228690   6.636   1.502  16.901  0.4185 -0.6579  0.6831
 2400TIP3    H128691   6.620   1.578  16.845 -2.7191 -3.1585 -2.2648
 2400TIP3    H228692   6.553   1.489  16.948  0.5572 -2.7572  0.4127
 2401TIP3   OH228693   2.483   0.860   1.448  0.4328 -0.2068  0.2156
 2401TIP3    H128694   2.435   0.782   1.473 -2.3560  1.3075 -0.0543
 2401TIP3    H228695   2.508   0.901   1.531  1.2892 -0.9669  0.3536
 2402TIP3   OH228696   5.825   3.215  14.152  0.4062  0.3528 -0.1032
 2402TIP3    H128697   5.860   3.215  14.241  0.2437 -0.3582 -0.0280
 2402TIP3    H228698   5.732   3.235  14.163  0.5172  0.9261 -0.1789
 2403TIP3   OH228699   4.300   1.154   2.508  0.7339 -0.1740 -0.6276
 2403TIP3    H128700   4.259   1.132   2.424 -1.7848  1.0517  0.1795
 2403TIP3    H228701   4.305   1.070   2.554  0.9280 -0.6577 -1.5017
 2404TIP3   OH228702   3.250   1.124  12.754  0.3792  0.5453  0.5128
 2404TIP3    H128703   3.183   1.059  12.775  0.1665  0.5850 -0.0276
 2404TIP3    H228704   3.330   1.091  12.796 -0.1925  1.0380  2.0736
 2405TIP3   OH228705   5.556   6.548   1.686  0.3216  0.2626  0.1228
 2405TIP3    H128706   5.615   6.522   1.757  0.2903 -0.9552 -0.2578
 2405TIP3    H228707   5.610   6.603   1.629  0.7199  0.2177  0.4501
 2406TIP3   OH228708   3.768   4.667   2.725 -0.1052  0.0044 -0.7813
 2406TIP3    H128709   3.862   4.653   2.716  0.2171  1.7769 -0.5561
 2406TIP3    H228710   3.759   4.762   2.737 -1.7334 -0.3782  1.5204
 2407TIP3   OH228711   4.606   2.549   5.907  0.3011 -0.1217  0.0325
 2407TIP3    H128712   4.546   2.624   5.902 -0.0246 -0.3852 -0.0446
 2407TIP3    H228713   4.565   2.490   5.970 -0.0389 -0.7593 -0.7625
 2408TIP3   OH228714   5.930   1.095  13.092 -0.0703  0.7544  0.4877
 2408TIP3    H128715   5.912   1.158  13.021  0.1992  1.7818  1.3050
 2408TIP3    H228716   5.961   1.149  13.164 -0.4890 -0.2598  1.4530
 2409TIP3   OH228717   3.202   2.064   3.232 -0.1424  0.1518  0.5001
 2409TIP3    H128718   3.281   2.020   3.263  0.2431 -1.2390 -2.1470
 2409TIP3    H228719   3.229   2.155   3.221  1.2153 -0.3372 -0.5700
 2410TIP3   OH228720   5.816   5.371  13.689  0.4675 -0.2249 -0.3881
 2410TIP3    H128721   5.821   5.275  13.683  1.4747 -0.1549 -0.8456
 2410TIP3    H228722   5.771   5.387  13.772 -1.3712 -1.0955 -1.1454
 2411TIP3   OH228723   4.534   5.202  14.866 -0.0206 -0.5296 -0.1833
 2411TIP3    H128724   4.556   5.287  14.829 -2.3258 -0.6097 -1.9537
 2411TIP3    H228725   4.497   5.152  14.793 -2.1756 -1.7056  1.5856
 2412TIP3   OH228726   4.548   0.945   3.493  0.6480 -0.0196  0.1069
 2412TIP3    H128727   4.628   0.987   3.525  1.1002  0.3668 -1.4615
 2412TIP3    H228728   4.578   0.863   3.453  0.1380 -0.3314  0.3494
 2413TIP3   OH228729   6.730   2.982  13.492 -0.0718 -0.0252  0.3244
 2413TIP3    H128730   6.751   3.071  13.464 -2.2339  0.5185  0.2962
 2413TIP3    H228731   6.766   2.927  13.422 -0.1962  0.9438 -0.5362
 2414TIP3   OH228732   0.616   3.233   5.661  0.4201 -0.0816  0.0187
 2414TIP3    H128733   0.607   3.328   5.658 -1.7747 -0.2302 -3.6690
 2414TIP3    H228734   0.679   3.213   5.592 -0.2590 -1.3507 -0.2673
 2415TIP3   OH228735   3.790   0.379   5.676  0.0566  0.4625  0.8275
 2415TIP3    H128736   3.748   0.303   5.636 -1.4406  2.2526 -1.2096
 2415TIP3    H228737   3.875   0.385   5.633 -0.6404  1.0505 -0.5462
 2416TIP3   OH228738   1.346   1.747  13.709  0.1134  0.2843 -0.3277
 2416TIP3    H128739   1.284   1.758  13.637 -0.7261  1.6706  0.5567
 2416TIP3    H228740   1.298   1.696  13.774  0.5339 -0.1578 -0.3633
 2417TIP3   OH228741   5.496   5.419   2.742 -0.3823  0.4865 -0.4062
 2417TIP3    H128742   5.407   5.454   2.738 -0.3305  0.5669 -0.9169
 2417TIP3    H228743   5.484   5.328   2.769 -0.3939  1.3631  2.9173
 2418TIP3   OH228744   6.291   1.819   0.022 -0.0567 -0.3318  0.0606
 2418TIP3    H128745   6.335   1.752   0.074  0.0994  0.6289  1.2234
 2418TIP3    H228746   6.344   1.826  -0.057  1.6587  0.4503  1.2149
 2419TIP3   OH228747   4.622   2.936   2.477  0.0078 -0.8695  0.2218
 2419TIP3    H128748   4.646   3.025   2.450  1.2260 -1.0240  0.7116
 2419TIP3    H228749   4.559   2.907   2.412  0.9040 -0.2675 -0.9574
 2420TIP3   OH228750   6.367   3.146  15.471  0.2454 -0.1717 -0.0086
 2420TIP3    H128751   6.372   3.130  15.377  2.4457  0.0522  0.0178
 2420TIP3    H228752   6.425   3.220  15.486  1.2305 -1.2096  1.7202
 2421TIP3   OH228753   6.485   3.570  15.699 -0.4947 -0.7969  0.0688
 2421TIP3    H128754   6.473   3.601  15.788 -1.4518 -1.2728  0.1164
 2421TIP3    H228755   6.549   3.630  15.660 -0.5023 -0.2545  0.8923
 2422TIP3   OH228756   0.871   0.542  12.208 -0.4286 -0.3342 -0.3598
 2422TIP3    H128757   0.779   0.542  12.180 -0.9137 -0.9116  1.1368
 2422TIP3    H228758   0.878   0.617  12.267  0.0487 -0.3473 -0.3950
 2423TIP3   OH228759   2.583   2.269   5.927  0.0745  0.4085 -0.2117
 2423TIP3    H128760   2.630   2.295   6.007  0.2549  0.8000 -0.4437
 2423TIP3    H228761   2.492   2.264   5.953 -0.1559  2.4908 -0.4363
 2424TIP3   OH228762   2.497   1.406   2.106  0.1393 -0.1094 -0.0775
 2424TIP3    H128763   2.452   1.446   2.031  0.4452  0.2295 -0.0859
 2424TIP3    H228764   2.507   1.477   2.169  1.4915  0.0722 -0.4599
 2425TIP3   OH228765   1.030   5.597  14.701  0.3020 -0.1970 -0.5458
 2425TIP3    H128766   1.077   5.643  14.771 -0.9450  0.6484 -0.2191
 2425TIP3    H228767   1.085   5.608  14.623  1.1849 -0.2185  0.0612
 2426TIP3   OH228768   6.525   1.882  13.636 -0.1243 -0.2507  0.2028
 2426TIP3    H128769   6.503   1.920  13.551 -2.4735 -0.8411  0.4912
 2426TIP3    H228770   6.517   1.956  13.697 -0.1993 -0.2166  0.1521
 2427TIP3   OH228771   6.337   5.546   4.788  0.0958 -0.1002 -0.2576
 2427TIP3    H128772   6.337   5.623   4.732 -1.2551  1.8069  2.1640
 2427TIP3    H228773   6.313   5.474   4.730  2.5644  0.9806 -2.8657
 2428TIP3   OH228774   2.891   2.126   1.976  0.2882  0.2579 -0.0828
 2428TIP3    H128775   2.845   2.041   1.975  0.5339  0.0993  1.0788
 2428TIP3    H228776   2.836   2.182   2.030  0.3521  0.7103 -0.4893
 2429TIP3   OH228777   3.502   5.656   4.534 -0.3806 -0.0762  0.2523
 2429TIP3    H128778   3.520   5.645   4.440 -0.8850 -0.0840  0.1518
 2429TIP3    H228779   3.430   5.596   4.552 -0.3751  0.0242  0.6199
 2430TIP3   OH228780   3.826   2.571  14.323  0.5001 -0.1565 -0.4487
 2430TIP3    H128781   3.864   2.517  14.393 -0.0912 -0.0594 -0.0486
 2430TIP3    H228782   3.746   2.606  14.361 -0.2473 -0.7414 -1.4455
 2431TIP3   OH228783   1.993   4.288   0.076 -0.2038  0.0552  0.1705
 2431TIP3    H128784   2.014   4.354   0.141 -0.8261 -0.6607  1.1257
 2431TIP3    H228785   2.077   4.253   0.048  0.1087  0.9963 -0.0855
 2432TIP3   OH228786   0.167   1.583   2.184  0.0373 -0.6899  1.2336
 2432TIP3    H128787   0.200   1.498   2.156 -0.5372 -0.3971 -0.4043
 2432TIP3    H228788   0.081   1.591   2.144  0.6873  1.2760  0.0474
 2433TIP3   OH228789   5.249   4.899   3.159  0.2249  0.3039 -0.2249
 2433TIP3    H128790   5.217   4.983   3.192 -1.6017 -0.4315 -0.0276
 2433TIP3    H228791   5.179   4.837   3.178  1.5861 -1.3220 -0.2299
 2434TIP3   OH228792   6.715   5.879   7.013  0.4163 -0.4338 -0.1635
 2434TIP3    H128793   6.695   5.964   7.053 -0.5608 -0.8674  0.3148
 2434TIP3    H228794   6.768   5.900   6.936 -0.5869  0.6819 -0.5788
 2435TIP3   OH228795   3.267   5.345   3.185  0.0083 -0.8344  0.6646
 2435TIP3    H128796   3.327   5.328   3.257  0.5115 -1.2077  0.1701
 2435TIP3    H228797   3.237   5.435   3.198  1.3900 -0.3175  0.4168
 2436TIP3   OH228798   0.359   4.592   2.721 -0.5202 -0.3931 -0.2673
 2436TIP3    H128799   0.344   4.558   2.633 -2.6081  0.3402 -0.2468
 2436TIP3    H228800   0.323   4.525   2.779  0.0573 -0.4677  0.0172
 2437TIP3   OH228801   5.762   3.207   5.552 -0.2827  0.3315  0.0044
 2437TIP3    H128802   5.713   3.278   5.592 -0.7768  0.1841 -0.3268
 2437TIP3    H228803   5.770   3.141   5.621 -0.0541  0.5969  0.2306
 2438TIP3   OH228804   0.709   6.074  15.622 -0.1801  0.7603  0.0795
 2438TIP3    H128805   0.624   6.065  15.666  0.5151  0.9121  1.5142
 2438TIP3    H228806   0.771   6.090  15.693  1.6112 -2.5838 -0.5485
 2439TIP3   OH228807   2.644   4.688  14.192 -0.2037 -0.4530  0.4259
 2439TIP3    H128808   2.672   4.672  14.102 -1.0550 -1.0281  0.2533
 2439TIP3    H228809   2.640   4.601  14.232 -1.1253 -0.3360  0.6212
 2440TIP3   OH228810   1.660   0.760  12.883  0.8335 -0.0885 -0.6098
 2440TIP3    H128811   1.686   0.668  12.892 -2.0288 -0.8854  0.7768
 2440TIP3    H228812   1.571   0.756  12.847  0.1622  2.0707  0.6269
 2441TIP3   OH228813   5.614   0.415  11.371  0.4484 -0.2545 -0.5424
 2441TIP3    H128814   5.688   0.354  11.366 -0.2770 -1.0921 -1.4542
 2441TIP3    H228815   5.586   0.412  11.462 -0.7672 -2.7907 -0.9217
 2442TIP3   OH228816   4.355   0.092  10.817 -0.1791 -0.1295  0.1635
 2442TIP3    H128817   4.270   0.058  10.792 -0.5240  0.6696  0.2119
 2442TIP3    H228818   4.380   0.150  10.745 -0.4457  0.9380  0.9029
 2443TIP3   OH228819   5.685   5.281  15.787  0.5744  0.1133  0.0469
 2443TIP3    H128820   5.767   5.295  15.835  0.0450  0.0286  0.9857
 2443TIP3    H228821   5.622   5.256  15.853 -0.2669  0.3437 -0.6493
 2444TIP3   OH228822   0.471   6.586   5.368 -0.4467  0.8975  0.2773
 2444TIP3    H128823   0.439   6.504   5.405  0.3184  0.3045 -0.3279
 2444TIP3    H228824   0.423   6.655   5.415 -2.4835  0.0679 -0.4918
 2445TIP3   OH228825   2.899   1.867   5.725  0.2679  0.1503  0.2128
 2445TIP3    H128826   2.804   1.855   5.723  0.2756 -0.0928 -2.7299
 2445TIP3    H228827   2.934   1.781   5.700  1.2127  0.6128 -0.0841
 2446TIP3   OH228828   2.132   5.496  13.093  0.2181 -0.4640 -0.4737
 2446TIP3    H128829   2.227   5.506  13.100  0.2636 -1.7956  2.0879
 2446TIP3    H228830   2.116   5.489  12.999  2.4614  1.1197 -1.0728
 2447TIP3   OH228831   1.464   1.637   5.662 -0.0516 -0.1876 -0.8881
 2447TIP3    H128832   1.469   1.722   5.617 -0.1682 -0.0786 -0.6968
 2447TIP3    H228833   1.370   1.622   5.674 -0.0854  1.7534  2.9699
 2448TIP3   OH228834   3.382   0.763   4.037 -0.0507 -0.3769  0.3273
 2448TIP3    H128835   3.297   0.729   4.010  0.1163 -0.4842 -0.0778
 2448TIP3    H228836   3.362   0.833   4.099 -0.4775  0.3770 -0.6386
 2449TIP3   OH228837   2.518   0.366   2.039 -0.2266 -0.3819  0.3219
 2449TIP3    H128838   2.453   0.437   2.037 -0.4225 -0.5647  0.0703
 2449TIP3    H228839   2.602   0.410   2.025 -0.4862 -0.3549 -1.5209
 2450TIP3   OH228840   0.909   0.318   1.159 -0.0368  0.1213  0.0805
 2450TIP3    H128841   0.925   0.229   1.192  1.0864  0.6273  0.9838
 2450TIP3    H228842   0.979   0.370   1.198 -0.6079  1.3836 -0.5446
 2451TIP3   OH228843   2.122   4.704   4.967 -0.4471  0.2709  0.7725
 2451TIP3    H128844   2.187   4.649   4.924  0.5940  2.3029 -0.4275
 2451TIP3    H228845   2.144   4.793   4.939 -4.2706  1.0374 -0.3802
 2452TIP3   OH228846   3.021   4.797  14.052  0.2177  0.2899  0.4856
 2452TIP3    H128847   3.039   4.728  13.989  1.1241  2.2982 -1.5962
 2452TIP3    H228848   3.104   4.843  14.062 -0.7352  2.0799  0.5140
 2453TIP3   OH228849   0.404   2.933  13.303 -0.4171 -0.0361  0.1413
 2453TIP3    H128850   0.406   2.923  13.398  1.9294 -1.6181  0.0090
 2453TIP3    H228851   0.360   2.853  13.272  0.4759 -0.4326 -0.1405
 2454TIP3   OH228852   2.363   3.792   4.159  0.4989  0.3502  0.5071
 2454TIP3    H128853   2.436   3.746   4.117 -1.1477 -0.5951 -1.4837
 2454TIP3    H228854   2.395   3.882   4.171  1.5481  0.3032 -1.5272
 2455TIP3   OH228855   5.123   4.459   4.956  0.1360  0.4079  0.5581
 2455TIP3    H128856   5.176   4.482   4.879 -1.9912 -1.7962 -1.7586
 2455TIP3    H228857   5.157   4.374   4.983  0.4401  0.8768  1.6988
 2456TIP3   OH228858   1.139   6.023   1.595 -0.2889 -0.0001 -0.1199
 2456TIP3    H128859   1.125   6.109   1.633  1.9184 -0.2777  1.5530
 2456TIP3    H228860   1.091   5.963   1.652 -1.2616  0.0377 -0.8816
 2457TIP3   OH228861   3.749   3.433   3.015 -0.2484 -0.7301  0.1705
 2457TIP3    H128862   3.708   3.496   2.955  0.9966  0.6149  0.6815
 2457TIP3    H228863   3.843   3.450   3.006  0.0145 -1.3846  1.5565
 2458TIP3   OH228864   4.065   3.079  15.613  0.4323 -0.1388 -0.1553
 2458TIP3    H128865   4.006   3.152  15.595 -0.8800 -1.0909  0.1962
 2458TIP3    H228866   4.103   3.100  15.699 -0.7338 -0.3605  0.4334
 2459TIP3   OH228867   5.036   6.768  16.031  0.2047  0.0365 -0.2002
 2459TIP3    H128868   5.065   6.771  16.122 -0.1768 -0.0885 -0.0702
 2459TIP3    H228869   4.957   6.822  16.029  0.3945  0.3027 -0.5265
 2460TIP3   OH228870   2.326   1.521   3.368  0.4574 -0.1312  0.6555
 2460TIP3    H128871   2.420   1.524   3.353  0.3585  1.2491  0.1476
 2460TIP3    H228872   2.305   1.609   3.401 -0.9056  0.1558 -0.8825
 2461TIP3   OH228873   1.269   2.906  12.197 -0.0147  0.0472 -0.0884
 2461TIP3    H128874   1.318   2.987  12.178  0.5478 -0.4116 -0.6541
 2461TIP3    H228875   1.215   2.928  12.272  1.2587  0.4991  0.7345
 2462TIP3   OH228876   5.754   3.689  12.255 -0.3390 -0.0873  0.0471
 2462TIP3    H128877   5.805   3.623  12.209  0.7108  0.8127 -0.1258
 2462TIP3    H228878   5.665   3.678  12.221 -0.2653 -1.6006  0.2563
 2463TIP3   OH228879   4.799   3.485   1.003  0.5148 -0.2551  0.0743
 2463TIP3    H128880   4.858   3.411   0.987  0.4699  0.1514 -2.3028
 2463TIP3    H228881   4.850   3.546   1.056  1.4239 -0.8721 -0.0696
 2464TIP3   OH228882   4.849   4.695   2.109 -0.0613  0.2806 -0.5016
 2464TIP3    H128883   4.891   4.610   2.118 -0.9569 -0.6195 -3.6729
 2464TIP3    H228884   4.813   4.713   2.196  2.4756 -1.2229  0.9888
 2465TIP3   OH228885   4.099   4.042  14.228  0.0877 -0.0980  0.4364
 2465TIP3    H128886   4.111   3.973  14.294 -0.4753  0.9187  1.6484
 2465TIP3    H228887   4.185   4.083  14.219 -0.2598  1.1384  2.1785
 2466TIP3   OH228888   0.656   6.161   5.392  0.3133 -0.1035 -0.0248
 2466TIP3    H128889   0.615   6.144   5.477  1.1025  2.0239  0.8501
 2466TIP3    H228890   0.712   6.237   5.407  0.9319 -0.0321 -2.3217
 2467TIP3   OH228891   3.787   2.677  13.924 -0.7275  0.5803 -0.4799
 2467TIP3    H128892   3.772   2.588  13.957  3.0801 -0.7332 -1.7282
 2467TIP3    H228893   3.700   2.711  13.906 -2.3960 -2.5706  0.8973
 2468TIP3   OH228894   5.010   0.071   3.842  0.2201 -0.3961  0.1728
 2468TIP3    H128895   5.060   0.073   3.760 -0.8134  1.3628 -0.4793
 2468TIP3    H228896   4.960   0.152   3.841 -0.9597 -1.0479  1.8593
 2469TIP3   OH228897   2.330   4.317   3.609  0.3598 -0.2481  0.0669
 2469TIP3    H128898   2.308   4.377   3.680  0.1263  0.2551 -0.4170
 2469TIP3    H228899   2.425   4.308   3.614  0.3037 -0.4879  0.6537
 2470TIP3   OH228900   2.281   3.930  13.500  0.1444 -0.2109  0.0618
 2470TIP3    H128901   2.226   3.851  13.505 -0.2770  0.1424  2.3191
 2470TIP3    H228902   2.301   3.950  13.592  0.8638  1.8850 -0.5061
 2471TIP3   OH228903   3.078   1.438  14.853  0.0837  0.2744 -0.3685
 2471TIP3    H128904   3.096   1.364  14.794  1.2710 -0.9671  1.4301
 2471TIP3    H228905   2.984   1.434  14.868 -0.5522  1.5965 -3.3092
 2472TIP3   OH228906   3.365   6.616  14.957  0.6141 -0.5668 -0.0192
 2472TIP3    H128907   3.396   6.705  14.967 -0.3897 -0.3064  1.0404
 2472TIP3    H228908   3.320   6.615  14.873 -0.4501  0.2816  0.5206
 2473TIP3   OH228909   5.587   3.745   1.565 -0.0027 -0.1785 -0.6250
 2473TIP3    H128910   5.556   3.661   1.532 -0.6374 -1.0317  1.9187
 2473TIP3    H228911   5.677   3.728   1.592 -1.0950 -1.1354  2.9847
 2474TIP3   OH228912   1.537   1.148   6.023 -0.7187  0.0114 -0.1713
 2474TIP3    H128913   1.613   1.171   6.076  0.2995  0.9618 -1.9616
 2474TIP3    H228914   1.522   1.055   6.041  1.1692 -0.3150 -0.1382
 2475TIP3   OH228915   3.420   0.609   4.447  0.3849  0.0396 -0.3416
 2475TIP3    H128916   3.442   0.586   4.356 -0.7953  0.0589 -0.6484
 2475TIP3    H228917   3.434   0.528   4.496  2.9038  0.5167 -0.1561
 2476TIP3   OH228918   4.538   0.747   6.068  0.0271 -0.0447 -0.1789
 2476TIP3    H128919   4.464   0.716   6.015 -1.8785  0.2482  2.1248
 2476TIP3    H228920   4.577   0.818   6.016  0.0971 -1.5993 -2.4005
 2477TIP3   OH228921   0.534   2.572   4.544 -0.2538  0.2176  0.1780
 2477TIP3    H128922   0.505   2.654   4.585  0.4304 -0.1487  1.4402
 2477TIP3    H228923   0.495   2.504   4.599  0.2253 -0.2946 -0.1183
 2478TIP3   OH228924   1.592   4.726   3.910  0.1267 -0.0198  0.2881
 2478TIP3    H128925   1.555   4.639   3.899 -1.6415  0.9517 -2.2036
 2478TIP3    H228926   1.661   4.732   3.845 -1.8086  1.3819 -1.7973
 2479TIP3   OH228927   0.583   0.359  16.525  0.2856 -0.0696  0.3048
 2479TIP3    H128928   0.584   0.370  16.430  1.7557  1.0276  0.4104
 2479TIP3    H228929   0.672   0.330  16.547 -0.1221 -0.6106  1.3211
 2480TIP3   OH228930   0.057   2.313  15.764 -0.1060 -0.7832 -0.3754
 2480TIP3    H128931  -0.028   2.356  15.765 -0.0279 -0.6018 -1.3469
 2480TIP3    H228932   0.086   2.317  15.673  1.6094  0.4645  0.1612
 2481TIP3   OH228933   1.377   4.614   4.734 -0.7936  0.2832  0.2808
 2481TIP3    H128934   1.297   4.609   4.681 -0.6059 -0.0969  0.0246
 2481TIP3    H228935   1.349   4.585   4.821 -1.4124  2.2550  0.7787
 2482TIP3   OH228936   1.621   4.900   0.100 -0.1406  0.4738 -0.5100
 2482TIP3    H128937   1.616   4.807   0.077 -3.4880 -0.6345  3.4432
 2482TIP3    H228938   1.581   4.945   0.026 -0.9968 -1.5875 -1.3764
 2483TIP3   OH228939   6.530   2.140   0.567 -0.8396  0.3886  0.0372
 2483TIP3    H128940   6.475   2.066   0.590 -0.1686 -0.0623  0.2360
 2483TIP3    H228941   6.618   2.114   0.594 -0.5234  1.0866 -0.2752
 2484TIP3   OH228942   4.760   0.705   0.792 -0.3929 -0.2492 -0.1244
 2484TIP3    H128943   4.780   0.784   0.843  1.7131 -0.6134 -0.2961
 2484TIP3    H228944   4.675   0.723   0.753  0.3805  2.3212 -0.8190
 2485TIP3   OH228945   0.849   0.157  16.778  0.2400 -0.4416  0.0170
 2485TIP3    H128946   0.911   0.120  16.841  0.2555 -0.3302  0.0670
 2485TIP3    H228947   0.847   0.093  16.706  0.2485 -0.5508  0.1134
 2486TIP3   OH228948   0.972   5.745   3.125 -0.6071  0.0243  0.0952
 2486TIP3    H128949   0.881   5.744   3.154 -0.5988 -0.6069  0.1264
 2486TIP3    H228950   1.001   5.835   3.138 -1.6913  0.6307 -1.3852
 2487TIP3   OH228951   3.370   3.552   1.090 -0.2488  0.7885 -0.7145
 2487TIP3    H128952   3.300   3.505   1.046 -0.3663  1.5206 -1.3498
 2487TIP3    H228953   3.341   3.644   1.090  1.0592  1.2542 -1.7860
 2488TIP3   OH228954   1.832   3.294   0.162  0.7109 -0.2570 -0.2304
 2488TIP3    H128955   1.745   3.257   0.179  0.4113  1.1435  1.6671
 2488TIP3    H228956   1.881   3.223   0.120 -1.2038 -1.2108 -0.9793
 2489TIP3   OH228957   5.241   3.275   5.804 -0.5072  0.4687 -0.3182
 2489TIP3    H128958   5.165   3.217   5.802  1.4941 -2.3069 -2.2567
 2489TIP3    H228959   5.261   3.285   5.897 -1.2606 -1.5764  0.1105
 2490TIP3   OH228960   2.598   1.862  11.229  0.1532 -0.0663  0.3782
 2490TIP3    H128961   2.636   1.843  11.144 -0.5206  0.3388 -0.0278
 2490TIP3    H228962   2.587   1.777  11.271 -0.7551 -0.4019 -0.4942
 2491TIP3   OH228963   2.980   6.235   0.226  0.1321 -0.1435 -0.5966
 2491TIP3    H128964   2.906   6.175   0.233 -0.3182  0.5385  0.9252
 2491TIP3    H228965   2.941   6.318   0.201  0.4468  0.1096 -0.2496
 2492TIP3   OH228966   5.063   4.614  12.578  0.1150  0.6785 -0.6142
 2492TIP3    H128967   4.969   4.625  12.570  0.3820  1.6125 -4.0062
 2492TIP3    H228968   5.095   4.609  12.488  3.1375 -1.6756  0.3912
 2493TIP3   OH228969   2.860   3.876  14.521  0.3555  0.2038 -0.8472
 2493TIP3    H128970   2.814   3.796  14.546 -1.5910  2.1459  2.6691
 2493TIP3    H228971   2.951   3.860  14.545  0.1733 -1.2412 -1.0516
 2494TIP3   OH228972   5.402   5.143   2.749  0.2769  0.1002  0.7111
 2494TIP3    H128973   5.416   5.048   2.746 -1.3018 -0.1538 -0.0282
 2494TIP3    H228974   5.312   5.154   2.719  0.0518  1.7592  1.8570
 2495TIP3   OH228975   5.022   6.022  17.276  0.1570 -0.1295  0.1543
 2495TIP3    H128976   5.088   6.087  17.301  0.0034 -0.2364  0.8711
 2495TIP3    H228977   5.072   5.948  17.242  0.4646 -0.4997  1.3625
 2496TIP3   OH228978   0.408   1.098   3.551  0.1843 -0.4179 -0.1330
 2496TIP3    H128979   0.409   1.182   3.598 -0.7519 -0.5898  0.2299
 2496TIP3    H228980   0.317   1.089   3.522  0.7550 -0.2554 -2.1202
 2497TIP3   OH228981   6.238   1.320   6.215 -0.0653  0.5402  0.4142
 2497TIP3    H128982   6.248   1.308   6.121  0.9192  1.4873  0.3788
 2497TIP3    H228983   6.217   1.413   6.225 -4.2365 -0.2321  0.8762
 2498TIP3   OH228984   0.725   0.964   5.464 -0.3515 -0.1549  0.1724
 2498TIP3    H128985   0.722   1.051   5.502  0.8873  0.2887 -0.6719
 2498TIP3    H228986   0.663   0.913   5.516  0.1729  0.7813  1.8154
 2499TIP3   OH228987   3.593   3.538   5.339  0.1571  0.6071 -0.3449
 2499TIP3    H128988   3.520   3.535   5.277  0.6222 -1.0627 -0.8761
 2499TIP3    H228989   3.560   3.495   5.418  0.4514  0.1535 -0.4646
 2500TIP3   OH228990   2.205   0.170  16.506 -0.1372 -0.7794 -0.1279
 2500TIP3    H128991   2.153   0.101  16.548 -0.4124  0.9191  2.5655
 2500TIP3    H228992   2.154   0.194  16.428 -0.3393 -3.1155 -0.7882
 2501TIP3   OH228993   2.588   2.426  16.598 -0.2267  0.2049 -0.1684
 2501TIP3    H128994   2.559   2.477  16.674  0.5973  1.5440 -0.7229
 2501TIP3    H228995   2.534   2.457  16.526  1.3165  1.4759 -0.8393
 2502TIP3   OH228996   0.924   4.654  11.853  0.3227 -0.0823 -0.6468
 2502TIP3    H128997   0.840   4.696  11.869  0.8450  0.9273 -0.4655
 2502TIP3    H228998   0.948   4.679  11.764  1.1004  0.8539 -0.1912
 2503TIP3   OH228999   1.185   3.053  14.094  0.2177  0.0896  0.0123
 2503TIP3    H129000   1.173   2.958  14.099  1.6128 -0.0747  0.5436
 2503TIP3    H229001   1.217   3.078  14.180  0.6432  0.9276 -0.3743
 2504TIP3   OH229002   3.465   4.872  12.929 -0.0139 -0.5342 -0.1176
 2504TIP3    H129003   3.446   4.939  12.995 -0.0678 -0.2134 -0.4517
 2504TIP3    H229004   3.504   4.800  12.978  1.4200  0.3263  0.0655
 2505TIP3   OH229005   4.962   5.109   4.825 -0.0925 -1.2286 -0.8823
 2505TIP3    H129006   4.871   5.084   4.842 -0.8226  1.2381 -0.6942
 2505TIP3    H229007   4.986   5.163   4.901  1.6373 -2.0392 -0.8120
 2506TIP3   OH229008   4.591   2.944  11.635 -0.3258 -0.3360 -0.0510
 2506TIP3    H129009   4.604   2.901  11.719 -1.2696 -2.9806 -1.1734
 2506TIP3    H229010   4.669   2.998  11.624  2.6364 -4.2456  0.0365
 2507TIP3   OH229011   1.410   1.562  12.885 -0.0332  0.7026 -0.3401
 2507TIP3    H129012   1.382   1.496  12.948 -0.1045  0.5839 -0.4966
 2507TIP3    H229013   1.415   1.643  12.935 -0.4430  0.6807 -0.2650
 2508TIP3   OH229014   5.126   6.251   2.146 -0.0705  0.2361  0.3963
 2508TIP3    H129015   5.094   6.341   2.150  0.8113  0.6829 -1.2677
 2508TIP3    H229016   5.166   6.245   2.059  1.1052 -1.3553  1.0138
 2509TIP3   OH229017   0.156   6.741  11.691  0.3224  0.5018 -0.8600
 2509TIP3    H129018   0.089   6.775  11.631 -2.0733 -0.5282  1.0345
 2509TIP3    H229019   0.135   6.783  11.775  2.5197  0.6248 -0.3256
 2510TIP3   OH229020   6.372   0.437  13.563  0.3038 -0.0435  0.5043
 2510TIP3    H129021   6.358   0.375  13.492  3.0185 -0.9430  0.6238
 2510TIP3    H229022   6.374   0.383  13.642  0.2289  0.5502  0.9191
 2511TIP3   OH229023   4.503   0.072  13.408 -0.2570  0.7054  0.0283
 2511TIP3    H129024   4.528   0.034  13.492  1.1299 -1.9453 -1.4423
 2511TIP3    H229025   4.550   0.019  13.343 -1.7207  2.2595 -2.4553
 2512TIP3   OH229026   4.123   6.067  10.709 -0.1404 -0.0579  0.0459
 2512TIP3    H129027   4.210   6.031  10.688 -0.2514 -0.7772  0.7734
 2512TIP3    H229028   4.140   6.159  10.730  0.3225  0.0246 -0.6293
 2513TIP3   OH229029   5.934   3.600  11.523 -0.1227  0.0579  0.3214
 2513TIP3    H129030   5.853   3.557  11.496  0.3830 -0.0287 -1.1521
 2513TIP3    H229031   5.920   3.693  11.503  0.6993 -0.1633 -1.5221
 2514TIP3   OH229032   1.626   0.460  16.468 -0.0854 -0.2365  0.0370
 2514TIP3    H129033   1.711   0.416  16.472  1.8599  3.1050 -0.7566
 2514TIP3    H229034   1.628   0.506  16.384 -2.8179 -0.2044 -0.0797
 2515TIP3   OH229035   3.874   0.259   1.841 -0.1549 -0.0840  0.3611
 2515TIP3    H129036   3.918   0.260   1.925 -1.7276  2.3119  1.2593
 2515TIP3    H229037   3.888   0.170   1.807  3.4861 -0.0923  1.4594
 2516TIP3   OH229038   1.262   6.488  10.856  0.4404 -0.0619 -0.6948
 2516TIP3    H129039   1.253   6.501  10.951 -0.7050  0.0495 -0.7953
 2516TIP3    H229040   1.356   6.480  10.841  0.6755  0.4988  0.3796
 2517TIP3   OH229041   5.543   3.216   4.470  0.2483 -0.0320 -0.1525
 2517TIP3    H129042   5.450   3.230   4.487  0.4708 -0.0840  1.2031
 2517TIP3    H229043   5.545   3.133   4.421 -0.4182  0.0858 -0.4041
 2518TIP3   OH229044   4.475   2.647   2.511 -0.4942  0.2253  0.0351
 2518TIP3    H129045   4.453   2.641   2.604  0.3818 -0.6181  0.2082
 2518TIP3    H229046   4.434   2.728   2.481 -2.3628 -0.4103  0.7125
 2519TIP3   OH229047   4.711   4.576   0.448  0.1975  0.1510 -0.0579
 2519TIP3    H129048   4.634   4.578   0.506 -1.5911  2.5765 -2.2751
 2519TIP3    H229049   4.740   4.667   0.445  3.1892 -0.6789  0.5741
 2520TIP3   OH229050   3.468   0.236  17.330 -0.0142  0.1694  0.1533
 2520TIP3    H129051   3.561   0.257  17.318 -0.2921  0.9825 -0.7529
 2520TIP3    H229052   3.466   0.180  17.407  1.2559 -0.0625  0.0452
 2521TIP3   OH229053   4.144   2.144   2.011 -0.3550 -0.2731  0.2660
 2521TIP3    H129054   4.135   2.205   2.085 -1.7116  1.5239 -1.2939
 2521TIP3    H229055   4.065   2.090   2.015 -0.0033 -0.7703  0.6194
 2522TIP3   OH229056   4.103   1.983   1.128 -0.4650  0.1573 -0.7956
 2522TIP3    H129057   4.163   2.057   1.137  1.3269 -1.3542  0.2879
 2522TIP3    H229058   4.026   2.009   1.180 -0.1257  1.4749 -0.9197
 2523TIP3   OH229059   5.149   5.772  13.211  0.2410 -0.1862  0.1895
 2523TIP3    H129060   5.233   5.727  13.205  1.0969  1.5465 -2.7163
 2523TIP3    H229061   5.104   5.750  13.129 -1.6877 -0.1587  1.1817
 2524TIP3   OH229062   2.185   0.852   0.706 -0.0939  0.1611  0.4702
 2524TIP3    H129063   2.188   0.939   0.666 -1.2512 -0.4429 -1.0338
 2524TIP3    H229064   2.267   0.810   0.679  0.5190  0.7896  1.2902
 2525TIP3   OH229065   0.508   5.280  15.007 -0.0150  0.2100 -0.6286
 2525TIP3    H129066   0.439   5.339  14.975  0.5812  1.0584 -0.3722
 2525TIP3    H229067   0.590   5.327  14.989  0.4550 -0.4132 -0.1461
 2526TIP3   OH229068   6.188   3.044  17.373  0.6687 -1.2476 -0.2118
 2526TIP3    H129069   6.265   3.099  17.387 -0.4870  0.5163 -0.3983
 2526TIP3    H229070   6.166   3.057  17.280  2.1182 -4.4973 -1.1482
 2527TIP3   OH229071   2.421   5.448   5.497 -0.1027  0.5329 -0.5458
 2527TIP3    H129072   2.491   5.462   5.561 -0.6446  0.9976 -0.0349
 2527TIP3    H229073   2.447   5.369   5.450  0.7048  0.6327 -0.2923
 2528TIP3   OH229074   1.297   2.366  16.142  0.4762  0.1803 -0.2004
 2528TIP3    H129075   1.250   2.442  16.179  2.4462  0.7257  1.3744
 2528TIP3    H229076   1.387   2.377  16.173  1.1505 -2.0123 -1.2355
 2529TIP3   OH229077   5.217   0.711  16.565 -0.0822  0.3793  0.0820
 2529TIP3    H129078   5.130   0.724  16.527  0.0509  2.4801  0.3551
 2529TIP3    H229079   5.277   0.757  16.506  0.6828 -0.0302  0.5176
 2530TIP3   OH229080   4.685   2.788  13.534  0.3160 -0.2372  0.0473
 2530TIP3    H129081   4.641   2.707  13.558 -0.5276  0.4599  0.9531
 2530TIP3    H229082   4.694   2.836  13.616 -2.0986  1.9803 -0.8263
 2531TIP3   OH229083   3.311   6.582   5.252  0.0866 -0.1988  0.1779
 2531TIP3    H129084   3.336   6.493   5.226  1.6280  0.2507 -0.0271
 2531TIP3    H229085   3.385   6.636   5.224 -0.2604  0.9709  1.4098
 2532TIP3   OH229086   0.880   5.511   3.862 -0.0738 -0.3952  0.6442
 2532TIP3    H129087   0.913   5.578   3.801 -0.6147  1.0760  1.9100
 2532TIP3    H229088   0.957   5.486   3.914  0.3407 -1.4991 -0.4293
 2533TIP3   OH229089   6.200   2.368  14.143  0.4681 -0.0858  0.2278
 2533TIP3    H129090   6.154   2.409  14.070 -0.2550 -1.4396 -0.1023
 2533TIP3    H229091   6.131   2.342  14.204  1.0579  1.0216  1.4365
 2534TIP3   OH229092   0.592   0.226  12.381 -0.6017  0.6471  0.0801
 2534TIP3    H129093   0.611   0.320  12.380  1.6033  0.2541 -0.0300
 2534TIP3    H229094   0.557   0.208  12.293  2.4037  0.8212 -1.2914
 2535TIP3   OH229095   1.450   1.564   3.842 -0.0242  0.1226 -0.5019
 2535TIP3    H129096   1.504   1.490   3.867 -0.5138 -0.1100 -0.1270
 2535TIP3    H229097   1.491   1.639   3.884 -0.6305 -0.2134  0.7196
 2536TIP3   OH229098   6.123   0.273   2.025  0.5057 -0.6354  0.1379
 2536TIP3    H129099   6.057   0.213   1.988  1.1305 -2.3525  1.6348
 2536TIP3    H229100   6.113   0.264   2.120  0.6773  1.6519  0.4157
 2537TIP3   OH229101   1.899   5.447   3.072  0.2711  0.1679  0.2307
 2537TIP3    H129102   1.874   5.432   2.981 -1.7806  1.8510  0.4446
 2537TIP3    H229103   1.828   5.407   3.123  0.0514  1.4869  0.9994
 2538TIP3   OH229104   6.036   2.545   5.920  0.2757 -0.0994  0.3910
 2538TIP3    H129105   6.095   2.482   5.962  0.4878 -1.5820 -1.9594
 2538TIP3    H229106   5.949   2.522   5.953  0.5013 -0.8223  0.4889
 2539TIP3   OH229107   1.791   2.308   3.795  0.3880  0.1399 -0.4340
 2539TIP3    H129108   1.791   2.395   3.755  3.4208 -0.5056 -2.0992
 2539TIP3    H229109   1.738   2.255   3.736  0.2154  0.4066 -0.5228
 2540TIP3   OH229110   0.355   1.956   2.089 -1.0114  0.1331 -0.2197
 2540TIP3    H129111   0.369   1.882   2.030  1.1224  1.2100 -1.1956
 2540TIP3    H229112   0.261   1.956   2.106 -1.0038 -3.2098  0.4588
 2541TIP3   OH229113   6.553   1.778   4.237 -0.3173  0.0179 -0.4668
 2541TIP3    H129114   6.549   1.734   4.322 -1.0651  0.6573 -0.1510
 2541TIP3    H229115   6.623   1.843   4.248 -2.8079  2.7071  1.0219
 2542TIP3   OH229116   0.785   1.350  10.528 -0.6816  0.6328  0.5021
 2542TIP3    H129117   0.793   1.356  10.432 -1.0054 -1.8717  0.2395
 2542TIP3    H229118   0.707   1.401  10.549 -0.7200  1.0477 -0.5847
 2543TIP3   OH229119   3.722   4.764  11.749  0.2212  0.2508 -0.5588
 2543TIP3    H129120   3.803   4.722  11.721  0.9085  1.2374 -0.1234
 2543TIP3    H229121   3.748   4.817  11.825 -1.0645 -0.2948  0.2906
 2544TIP3   OH229122   5.712   3.841   0.531  0.2233  0.7627 -0.4917
 2544TIP3    H129123   5.706   3.834   0.436  0.9909  1.3747 -0.6000
 2544TIP3    H229124   5.667   3.923   0.552 -1.0517  0.0077 -0.1800
 2545TIP3   OH229125   6.787   0.760   2.197 -0.0137 -0.6373 -0.4888
 2545TIP3    H129126   6.813   0.677   2.158 -0.3528  0.4664 -3.3232
 2545TIP3    H229127   6.847   0.824   2.158 -0.4872  0.6109  0.7486
 2546TIP3   OH229128   3.719   6.641  12.987 -0.1401 -0.5995  0.0428
 2546TIP3    H129129   3.701   6.653  12.894 -1.1354 -0.2847  0.2667
 2546TIP3    H229130   3.693   6.550  13.005 -0.1769 -0.5837  0.0674
 2547TIP3   OH229131   3.753   3.348   0.283  0.5739  0.1141 -0.3254
 2547TIP3    H129132   3.717   3.302   0.359  1.4005  2.6689  1.7613
 2547TIP3    H229133   3.805   3.282   0.237 -0.2250 -1.6033  1.1254
 2548TIP3   OH229134   2.160   1.575  17.137  0.1647  0.3222 -0.2740
 2548TIP3    H129135   2.113   1.591  17.219 -0.9400  0.8278 -0.9816
 2548TIP3    H229136   2.208   1.656  17.121 -0.1251  0.4630 -0.4427
 2549TIP3   OH229137   6.413   2.861   5.364 -0.0790  0.4880 -0.2475
 2549TIP3    H129138   6.346   2.795   5.385 -0.2220  0.6539 -0.1864
 2549TIP3    H229139   6.377   2.943   5.396  0.6015  0.4265  0.7575
 2550TIP3   OH229140   2.791   6.031  13.290 -0.3477 -0.0296  0.7726
 2550TIP3    H129141   2.730   5.990  13.228  0.6349 -1.0055  0.4260
 2550TIP3    H229142   2.740   6.103  13.328 -0.7865  1.0951 -1.6820
 2551TIP3   OH229143   4.816   1.037  11.620  0.0589  0.4052  0.0013
 2551TIP3    H129144   4.895   0.999  11.657  0.8370  0.3299 -1.6458
 2551TIP3    H229145   4.744   0.992  11.664  0.9367 -0.0389  0.9998
 2552TIP3   OH229146   6.438   0.471   1.530  0.0437 -0.2670  0.4315
 2552TIP3    H129147   6.391   0.405   1.580  0.5409 -0.4094  0.7194
 2552TIP3    H229148   6.410   0.554   1.568  1.4700 -0.4113  1.9414
 2553TIP3   OH229149   2.292   3.463   2.686  0.2230  0.1403  0.1030
 2553TIP3    H129150   2.332   3.377   2.689 -0.3389 -0.1670 -0.9646
 2553TIP3    H229151   2.364   3.522   2.661  0.0211 -0.4202 -1.9214
 2554TIP3   OH229152   3.475   4.502  16.088  0.1618 -0.5586  0.3482
 2554TIP3    H129153   3.410   4.490  16.018  0.3861  0.9058 -0.1539
 2554TIP3    H229154   3.423   4.514  16.167 -0.3382  2.1921 -0.2809
 2555TIP3   OH229155   4.404   3.181   6.523 -0.0283  0.0660  0.5489
 2555TIP3    H129156   4.326   3.166   6.470  0.6159  0.0102 -0.4004
 2555TIP3    H229157   4.382   3.258   6.576  0.0585  1.4419 -1.3128
 2556TIP3   OH229158   1.023   3.622   0.318 -0.5736  0.0264  0.1531
 2556TIP3    H129159   1.024   3.546   0.260 -0.4663  0.1279  0.0209
 2556TIP3    H229160   0.982   3.691   0.266  0.1198  0.3007 -0.0309
 2557TIP3   OH229161   4.236   5.456  11.938 -0.4809 -0.0113 -0.5383
 2557TIP3    H129162   4.272   5.542  11.961  1.2703 -1.0342  0.7554
 2557TIP3    H229163   4.230   5.458  11.842  3.6589  0.0784 -0.9743
 2558TIP3   OH229164   0.566   5.983  14.219  0.7092 -0.0151 -0.1783
 2558TIP3    H129165   0.645   5.951  14.263  1.7275  1.3868 -0.8773
 2558TIP3    H229166   0.546   6.065  14.263  0.0424 -0.0162 -0.4711
 2559TIP3   OH229167   2.647   2.065   3.889  0.3679  0.6149 -0.1748
 2559TIP3    H129168   2.592   2.004   3.841  0.4052  0.5730 -0.1643
 2559TIP3    H229169   2.734   2.026   3.887  0.3851  0.6503 -0.1377
 2560TIP3   OH229170   3.464   1.383  16.063  0.1070  0.1683  0.3799
 2560TIP3    H129171   3.386   1.389  16.119 -0.1787 -2.0974  0.3202
 2560TIP3    H229172   3.431   1.404  15.975  0.5692  3.7858  0.9264
 2561TIP3   OH229173   3.268   4.684   4.815 -0.5251  0.6521  0.3599
 2561TIP3    H129174   3.237   4.651   4.730  1.2701 -2.6692  0.8521
 2561TIP3    H229175   3.334   4.749   4.792 -0.2119 -0.0516 -0.8078
 2562TIP3   OH229176   3.958   5.890   4.399 -0.8537  0.0651 -0.2615
 2562TIP3    H129177   3.967   5.842   4.481  1.1412 -1.9705 -1.5233
 2562TIP3    H229178   3.891   5.841   4.350  0.8454 -1.2922 -1.3637
 2563TIP3   OH229179   4.114   2.752   1.191  0.1990  0.9734 -0.0586
 2563TIP3    H129180   4.123   2.836   1.146 -0.5348  0.7044 -0.7464
 2563TIP3    H229181   4.023   2.749   1.219 -0.0361  0.0503 -0.8232
 2564TIP3   OH229182   0.072   6.695  14.632 -0.2712 -0.5754  0.4828
 2564TIP3    H129183   0.067   6.602  14.654 -3.0148 -0.7332 -0.3725
 2564TIP3    H229184   0.090   6.696  14.538  0.4489 -0.2014  0.6193
 2565TIP3   OH229185   3.166   6.664  12.357 -0.0930  0.2829 -0.2228
 2565TIP3    H129186   3.101   6.732  12.374  0.8004  0.9646  0.5943
 2565TIP3    H229187   3.115   6.588  12.328 -1.1212  1.2361 -0.9944
 2566TIP3   OH229188   5.896   5.652  13.316 -0.1330  0.0449 -0.4758
 2566TIP3    H129189   5.890   5.579  13.254 -0.0360 -2.1045  1.9156
 2566TIP3    H229190   5.805   5.679  13.330 -0.2056  0.0899 -0.9947
 2567TIP3   OH229191   3.288   2.753  10.803  0.5327  0.4783  0.3547
 2567TIP3    H129192   3.299   2.754  10.708 -2.2781 -0.8491 -0.0895
 2567TIP3    H229193   3.222   2.685  10.819  0.8939  0.6761  3.2759
 2568TIP3   OH229194   3.077   1.640   0.574  0.3527  0.0723 -0.2735
 2568TIP3    H129195   3.088   1.715   0.517 -0.5654 -0.1576 -0.7677
 2568TIP3    H229196   2.984   1.638   0.595  0.4631 -0.5786  0.2217
 2569TIP3   OH229197   6.141   2.779   0.139  0.0134  0.2538  0.0458
 2569TIP3    H129198   6.104   2.821   0.217 -0.7330 -0.0021 -0.1711
 2569TIP3    H229199   6.181   2.851   0.090 -1.9065  0.8542 -0.7017
 2570TIP3   OH229200   2.717   4.239   0.367  0.1768 -0.5903  0.3116
 2570TIP3    H129201   2.808   4.212   0.359  0.3115 -0.0929  0.0920
 2570TIP3    H229202   2.695   4.227   0.459  1.0636  1.1056  0.7873
 2571TIP3   OH229203   4.635   3.810  13.369  0.4406  0.1662 -0.2584
 2571TIP3    H129204   4.544   3.828  13.393  0.4615 -0.9745  0.7602
 2571TIP3    H229205   4.663   3.742  13.429  1.9010  0.3024 -0.7365
 2572TIP3   OH229206   1.464   0.614   0.282  0.0474 -0.4471  0.3471
 2572TIP3    H129207   1.411   0.593   0.205  0.5428  1.0498 -0.4280
 2572TIP3    H229208   1.408   0.669   0.336  1.4067  3.1670 -1.5729
 2573TIP3   OH229209   5.947   3.066   0.496 -0.2299  0.4662 -0.1710
 2573TIP3    H129210   5.956   2.988   0.551 -1.8859 -0.2799 -0.8936
 2573TIP3    H229211   6.011   3.053   0.425  1.4395  1.1186  1.1413
 2574TIP3   OH229212   5.013   4.913  12.569  0.1771  0.1198 -0.4641
 2574TIP3    H129213   5.054   4.913  12.483 -0.2933  2.0605 -0.7314
 2574TIP3    H229214   4.956   4.835  12.568  0.5008 -0.1246 -1.7321
 2575TIP3   OH229215   1.551   4.753  14.222 -0.1592  0.1249  0.2942
 2575TIP3    H129216   1.617   4.719  14.282 -0.1306  0.7718  0.6439
 2575TIP3    H229217   1.517   4.831  14.265  0.8389  1.4093 -1.1149
 2576TIP3   OH229218   0.566   3.455   5.950 -0.2814 -0.0086 -0.5259
 2576TIP3    H129219   0.554   3.399   5.873 -0.0425 -0.9673  0.1125
 2576TIP3    H229220   0.486   3.443   6.001  0.0212 -0.2198 -0.1017
 2577TIP3   OH229221   0.113   4.053  15.751 -0.0598 -0.1038  0.0729
 2577TIP3    H129222   0.113   4.050  15.847 -3.0023  0.0133  0.1760
 2577TIP3    H229223   0.069   4.136  15.731  0.6804 -0.0462 -1.4179
 2578TIP3   OH229224   0.534   0.452   1.523  0.0365 -0.3988  0.0921
 2578TIP3    H129225   0.620   0.470   1.486  0.3570  0.8987  1.3897
 2578TIP3    H229226   0.531   0.503   1.604 -1.7343 -0.8647  0.3672
 2579TIP3   OH229227   1.260   0.978   3.866  0.0599 -0.1654 -0.4640
 2579TIP3    H129228   1.317   1.036   3.814  0.0216  0.1979 -0.1090
 2579TIP3    H229229   1.237   0.907   3.807  0.8844 -0.3162 -0.6207
 2580TIP3   OH229230   5.011   0.966  17.153 -0.3090  0.4721 -0.2796
 2580TIP3    H129231   5.050   0.879  17.165  0.7072  0.9417 -0.0707
 2580TIP3    H229232   5.038   0.991  17.064 -1.0821  0.3464 -0.5565
 2581TIP3   OH229233   0.835   4.864  13.841  0.3614 -1.0239  0.4352
 2581TIP3    H129234   0.868   4.791  13.893  0.1514 -2.0914 -0.8974
 2581TIP3    H229235   0.887   4.861  13.760 -2.0226 -1.9310 -1.1563
 2582TIP3   OH229236   2.377   4.191   6.126  0.3842 -0.2929  0.0958
 2582TIP3    H129237   2.366   4.194   6.221  1.5506 -1.9346  0.3403
 2582TIP3    H229238   2.428   4.269   6.105 -0.3859  0.3895  0.7250
 2583TIP3   OH229239   1.266   1.494   2.566 -0.2523  0.0433  0.2167
 2583TIP3    H129240   1.191   1.499   2.626 -1.1541  1.1510 -0.9464
 2583TIP3    H229241   1.247   1.417   2.511 -2.1671  1.9541 -2.0404
 2584TIP3   OH229242   0.495   3.299   1.492  0.1360 -0.4512  0.1277
 2584TIP3    H129243   0.546   3.235   1.543 -0.1535 -0.5209  0.3318
 2584TIP3    H229244   0.460   3.249   1.419 -1.1487 -0.8352  0.9751
 2585TIP3   OH229245   0.386   6.242   0.617  0.3794 -0.0776  0.2105
 2585TIP3    H129246   0.320   6.288   0.669  0.7098 -1.3932  1.8758
 2585TIP3    H229247   0.355   6.151   0.614  0.1608  0.0047 -2.3203
 2586TIP3   OH229248   6.585   1.216  16.884  0.1383  0.1504  0.2405
 2586TIP3    H129249   6.616   1.177  16.965  0.1005  2.6014  1.5143
 2586TIP3    H229250   6.590   1.310  16.898 -0.7712  0.6682 -2.2662
 2587TIP3   OH229251   0.953   0.292  12.370 -0.1439  0.0260 -0.7766
 2587TIP3    H129252   0.901   0.249  12.303 -0.4230 -0.3250 -0.3445
 2587TIP3    H229253   0.953   0.384  12.344 -0.4225 -0.0728 -1.1452
 2588TIP3   OH229254   1.439   6.772  16.384  0.0292 -0.1429 -0.2500
 2588TIP3    H129255   1.469   6.684  16.363 -1.9109 -0.7403 -0.6985
 2588TIP3    H229256   1.475   6.789  16.471  0.2413 -1.4638 -0.0597
 2589TIP3   OH229257   0.387   0.509  15.412 -0.3121 -0.4769 -0.1299
 2589TIP3    H129258   0.320   0.460  15.362 -1.3532  0.3777  0.3937
 2589TIP3    H229259   0.422   0.445  15.473  1.0193 -1.5709 -1.9284
 2590TIP3   OH229260   0.009   0.510   0.104  0.6887  0.0138  0.7237
 2590TIP3    H129261   0.060   0.561   0.041 -1.3721 -0.0730 -1.1298
 2590TIP3    H229262  -0.076   0.554   0.109 -1.0492 -2.8432 -0.6724
 2591TIP3   OH229263   0.609   2.044  13.925  0.5507 -0.3474 -0.3532
 2591TIP3    H129264   0.696   2.003  13.931 -0.0875 -1.6541  0.5700
 2591TIP3    H229265   0.558   1.983  13.871  0.0212  0.0700 -0.3322
 2592TIP3   OH229266   2.468   4.463  14.619  0.6583  0.2576  0.1812
 2592TIP3    H129267   2.486   4.384  14.569 -1.9257 -1.3240  1.5377
 2592TIP3    H229268   2.461   4.532  14.553  2.5748 -0.6545 -1.0720
 2593TIP3   OH229269   5.064   3.618  14.537  0.6434  0.1655 -0.5648
 2593TIP3    H129270   4.988   3.613  14.480  0.9396  2.2607 -1.2208
 2593TIP3    H229271   5.125   3.553  14.501  0.3450  0.6015 -1.9222
 2594TIP3   OH229272   1.594   6.654   1.847  0.6237 -0.2878 -0.1546
 2594TIP3    H129273   1.631   6.719   1.907  0.0436  0.2485 -0.3620
 2594TIP3    H229274   1.506   6.687   1.829 -0.6956 -2.4542  1.7877
 2595TIP3   OH229275   4.128   4.521  13.993 -0.2038  0.5344  0.0252
 2595TIP3    H129276   4.130   4.499  14.086 -1.4014  1.4172  0.2762
 2595TIP3    H229277   4.219   4.541  13.971 -0.0179  1.0147  1.1823
 2596TIP3   OH229278   6.334   3.722  15.517 -0.0669 -0.1010  0.2032
 2596TIP3    H129279   6.377   3.797  15.557  1.2386 -0.2427 -0.8540
 2596TIP3    H229280   6.367   3.647  15.566  0.9998 -0.2169 -0.6616
 2597TIP3   OH229281   5.110   3.322  16.966 -0.0713  0.0016  0.4278
 2597TIP3    H129282   5.204   3.338  16.953 -0.0920 -0.6457 -0.5877
 2597TIP3    H229283   5.098   3.230  16.942 -1.1683  0.3887 -0.5835
 2598TIP3   OH229284   6.637   3.035  15.633  0.0091  0.4476  0.3577
 2598TIP3    H129285   6.603   3.124  15.628 -2.1574 -0.3283 -0.1273
 2598TIP3    H229286   6.591   2.988  15.563  0.1045 -1.3251  1.4224
 2599TIP3   OH229287   3.288   3.566   3.780  0.2546  0.2658  0.2608
 2599TIP3    H129288   3.310   3.641   3.726  0.7618  0.7566  1.1159
 2599TIP3    H229289   3.223   3.599   3.842  0.2405 -0.0864  0.4393
 2600TIP3   OH229290   6.786   2.760  14.102  0.2506 -0.2522 -0.1484
 2600TIP3    H129291   6.739   2.695  14.154  0.2987 -0.5844 -0.5101
 2600TIP3    H229292   6.825   2.819  14.166 -0.2357 -0.2709  0.1692
 2601TIP3   OH229293   5.310   3.692   0.652  0.5930 -0.5232  0.1387
 2601TIP3    H129294   5.265   3.662   0.573 -0.9382 -0.6246  1.0098
 2601TIP3    H229295   5.300   3.619   0.714  0.4177  0.1653  0.9315
 2602TIP3   OH229296   5.946   5.537   1.665 -0.0749 -0.3116 -0.6216
 2602TIP3    H129297   6.038   5.561   1.661 -0.4771  2.0035  1.4783
 2602TIP3    H229298   5.919   5.527   1.573  2.4145 -1.9862 -1.2534
 2603TIP3   OH229299   1.137   5.645   4.614  1.0235 -0.0486 -0.2185
 2603TIP3    H129300   1.126   5.672   4.705  1.6515  0.2205 -0.2180
 2603TIP3    H229301   1.094   5.559   4.609  1.7377 -0.4586  0.5413
 2604TIP3   OH229302   6.472   3.470  11.999 -0.4744  0.0768  0.0445
 2604TIP3    H129303   6.401   3.525  12.031 -0.9924 -0.1018 -0.7606
 2604TIP3    H229304   6.445   3.444  11.911  0.1978 -0.6836  0.0423
 2605TIP3   OH229305   6.672   1.348  17.335  0.0565 -0.2265 -0.9695
 2605TIP3    H129306   6.624   1.302  17.403 -0.3965 -0.7324 -1.6233
 2605TIP3    H229307   6.738   1.285  17.305  1.1955  0.4758 -0.0441
 2606TIP3   OH229308   4.462   3.046  16.572  0.2713 -0.1115 -0.1694
 2606TIP3    H129309   4.420   3.125  16.605 -0.2860  0.0580 -1.2202
 2606TIP3    H229310   4.541   3.077  16.529 -1.8296  0.4913 -4.0718
 2607TIP3   OH229311   1.566   2.978  12.451 -0.0913 -0.0668  0.4136
 2607TIP3    H129312   1.491   2.932  12.413  0.2513 -0.2458 -0.0583
 2607TIP3    H229313   1.627   2.909  12.475  1.1610  0.1439 -1.8387
 2608TIP3   OH229314   6.501   0.147  16.702 -0.4856 -0.5761  0.2306
 2608TIP3    H129315   6.488   0.171  16.793 -0.4399  0.1227  0.0574
 2608TIP3    H229316   6.583   0.191  16.677 -1.1498  0.2836 -0.5056
 2609TIP3   OH229317   6.466   4.631  13.910  0.3457  0.1530 -0.1563
 2609TIP3    H129318   6.489   4.565  13.976  1.0231 -1.4062 -1.8511
 2609TIP3    H229319   6.512   4.710  13.937  0.1461 -0.2665  1.5187
 2610TIP3   OH229320   3.583   5.394   6.193  0.0710  0.1798  0.2689
 2610TIP3    H129321   3.548   5.324   6.139 -0.9789  0.2712  0.8170
 2610TIP3    H229322   3.506   5.438   6.230  0.6678  1.9160 -0.4057
 2611TIP3   OH229323   5.186   5.357  13.610 -0.0420 -0.3963 -0.4194
 2611TIP3    H129324   5.151   5.427  13.555  2.5378  1.2238 -0.1779
 2611TIP3    H229325   5.142   5.369  13.695 -1.8334 -1.0250 -1.2190
 2612TIP3   OH229326   5.698   1.857   6.113 -0.4240 -0.0462  0.1982
 2612TIP3    H129327   5.641   1.933   6.127 -0.0233  0.2286  0.3655
 2612TIP3    H229328   5.739   1.873   6.028 -2.6152 -1.5603 -1.2504
 2613TIP3   OH229329   0.742   1.386   2.549  0.6460 -0.8475  0.1423
 2613TIP3    H129330   0.805   1.365   2.481 -0.0378 -0.7873 -0.5263
 2613TIP3    H229331   0.762   1.476   2.573  1.5503 -1.1986  0.7676
 2614TIP3   OH229332   2.649   0.086  12.916  0.1972 -0.0735  0.4507
 2614TIP3    H129333   2.700   0.147  12.969 -0.5616 -0.4479  1.6635
 2614TIP3    H229334   2.584   0.141  12.872  0.6924  0.2168  0.0804
 2615TIP3   OH229335   0.516   5.646  12.151 -0.8867 -0.2021 -0.3433
 2615TIP3    H129336   0.450   5.699  12.196 -0.6156 -0.1289 -0.0233
 2615TIP3    H229337   0.590   5.643  12.212 -0.6326 -0.3684 -0.6530
 2616TIP3   OH229338   1.825   1.466  11.162 -0.5600 -0.0718  0.4296
 2616TIP3    H129339   1.806   1.372  11.166 -0.1760 -0.1704  0.1260
 2616TIP3    H229340   1.889   1.480  11.231  0.2924 -0.2785 -0.2906
 2617TIP3   OH229341   3.391   6.353  16.387  0.1762 -0.6233  0.0831
 2617TIP3    H129342   3.458   6.286  16.382  0.2367 -0.6018  0.5741
 2617TIP3    H229343   3.347   6.350  16.302  0.9549 -0.4691 -0.3284
 2618TIP3   OH229344   5.365   3.291  15.439 -0.2149 -0.2117  1.0986
 2618TIP3    H129345   5.406   3.323  15.359 -1.2383  1.9987  1.3863
 2618TIP3    H229346   5.317   3.212  15.413 -1.5478  1.1581 -0.7549
 2619TIP3   OH229347   3.551   2.536   4.303  0.1777 -0.3195 -0.3887
 2619TIP3    H129348   3.615   2.504   4.239  0.9210 -1.2117  0.7794
 2619TIP3    H229349   3.504   2.458   4.332 -0.9250  0.2293 -0.6416
 2620TIP3   OH229350   3.322   4.441  15.890  0.1102 -0.6176  0.1030
 2620TIP3    H129351   3.283   4.353  15.885  1.1890 -1.0938 -0.2286
 2620TIP3    H229352   3.264   4.496  15.836  0.3284 -1.4739 -1.0445
 2621TIP3   OH229353   2.439   0.547   4.051 -0.4674 -0.6871  0.3170
 2621TIP3    H129354   2.390   0.473   4.087 -1.8537 -0.9116 -1.8850
 2621TIP3    H229355   2.495   0.509   3.984 -0.0667  0.0700  0.2083
 2622TIP3   OH229356   2.337   3.948  17.168  0.4320  0.4806  0.2423
 2622TIP3    H129357   2.420   3.915  17.133 -0.2835 -0.2753 -0.8015
 2622TIP3    H229358   2.272   3.882  17.144 -0.8070  1.9532 -0.7064
 2623TIP3   OH229359   2.135   4.571   4.015 -0.2220  0.1938 -0.0908
 2623TIP3    H129360   2.171   4.522   3.941 -1.7439 -0.4993 -0.4092
 2623TIP3    H229361   2.137   4.508   4.088 -1.6982 -0.2086 -0.3720
 2624TIP3   OH229362   2.526   6.701   5.329  0.0915 -0.0528  0.2614
 2624TIP3    H129363   2.494   6.616   5.360  0.5911 -0.6895 -0.9259
 2624TIP3    H229364   2.483   6.764   5.386  0.8325 -1.1491  2.1430
 2625TIP3   OH229365   6.744   2.468   0.506  0.4500  0.2165  0.3140
 2625TIP3    H129366   6.796   2.515   0.441 -0.6799 -0.1002 -0.8524
 2625TIP3    H229367   6.808   2.437   0.570  1.5178  1.0338 -0.3354
 2626TIP3   OH229368   3.548   4.731   2.399  0.1296  0.7117 -0.0600
 2626TIP3    H129369   3.497   4.713   2.321  0.7751 -2.9290  0.2171
 2626TIP3    H229370   3.599   4.810   2.377 -0.4789  0.4156 -2.8799
 2627TIP3   OH229371   5.968   6.363   2.522 -0.4084 -0.3278 -0.3258
 2627TIP3    H129372   5.915   6.343   2.445  0.2878  0.2203 -0.9764
 2627TIP3    H229373   5.933   6.446   2.554  1.1861  1.0384 -1.8851
 2628TIP3   OH229374   0.621   4.743   5.894  0.0700  0.3674 -0.1824
 2628TIP3    H129375   0.658   4.698   5.818 -2.9188 -2.1971 -0.2899
 2628TIP3    H229376   0.675   4.712   5.968  0.5854 -0.2017 -0.7806
 2629TIP3   OH229377   0.211   6.066   1.577 -0.4667  0.4766 -0.3029
 2629TIP3    H129378   0.197   5.978   1.543 -1.5048  0.4433  0.1674
 2629TIP3    H229379   0.139   6.080   1.638  0.9498  0.7792  1.3868
 2630TIP3   OH229380   5.928   5.774   2.645  0.2445  0.2937  0.1684
 2630TIP3    H129381   5.982   5.729   2.581  1.1885  1.1945  0.2910
 2630TIP3    H229382   5.851   5.719   2.656 -0.0532  0.2247 -1.8970
 2631TIP3   OH229383   0.320   6.337   1.100 -0.2270 -0.6257  0.3988
 2631TIP3    H129384   0.285   6.419   1.133  1.0080 -0.3597  1.0876
 2631TIP3    H229385   0.315   6.346   1.005 -0.4354  0.0962  0.4708
 2632TIP3   OH229386   0.166   5.293   2.477  0.7074 -0.4029 -0.1442
 2632TIP3    H129387   0.218   5.213   2.467 -0.2165 -0.9242 -1.0914
 2632TIP3    H229388   0.187   5.345   2.400  0.0047 -0.5376 -0.4415
 2633TIP3   OH229389   2.433   3.151  14.666 -0.5748  0.4283 -0.1529
 2633TIP3    H129390   2.374   3.090  14.621 -0.4971 -1.6088  2.2791
 2633TIP3    H229391   2.375   3.202  14.723 -0.1748 -0.9150  1.5309
 2634TIP3   OH229392   0.241   6.491  11.626  0.1819 -1.1819 -0.1508
 2634TIP3    H129393   0.237   6.587  11.634  1.6157 -0.9300 -1.8747
 2634TIP3    H229394   0.203   6.473  11.540 -0.7295 -2.2597  0.4529
 2635TIP3   OH229395   6.081   3.059   6.658 -0.5264  0.1460  0.2400
 2635TIP3    H129396   6.039   3.113   6.725  0.2718  0.4893  0.4783
 2635TIP3    H229397   6.165   3.035   6.696 -1.0432 -1.6756  0.3329
 2636TIP3   OH229398   1.456   2.428  11.592  0.6873 -0.1900 -0.3146
 2636TIP3    H129399   1.395   2.374  11.542 -0.1633  0.2035  0.2651
 2636TIP3    H229400   1.525   2.450  11.530 -0.5959  0.7138 -1.4775
 2637TIP3   OH229401   3.625   0.393   3.215 -0.5190  0.4884 -0.3019
 2637TIP3    H129402   3.550   0.375   3.158 -0.3974 -1.2263  0.0146
 2637TIP3    H229403   3.611   0.337   3.291  0.9746  0.2811 -0.1437
 2638TIP3   OH229404   3.687   0.796  15.332 -0.5889  0.4676 -0.1738
 2638TIP3    H129405   3.716   0.734  15.265 -0.2092  0.2342  0.1997
 2638TIP3    H229406   3.735   0.770  15.411 -1.7324  0.1449  0.4395
 2639TIP3   OH229407   1.007   5.775   2.667 -0.2104  0.5541 -0.6182
 2639TIP3    H129408   0.963   5.854   2.700  0.7598  1.5297 -1.5743
 2639TIP3    H229409   0.990   5.709   2.734 -3.6336  0.6570 -1.2150
 2640TIP3   OH229410   6.328   3.710  16.365  0.6877 -0.7057 -0.0485
 2640TIP3    H129411   6.337   3.788  16.420 -0.6401  0.4050 -1.3539
 2640TIP3    H229412   6.311   3.639  16.427 -0.7752  0.5143  1.0155
 2641TIP3   OH229413   1.979   3.240  17.227 -0.1183 -0.1068 -0.1353
 2641TIP3    H129414   2.001   3.329  17.254  1.0357 -0.6211  0.7044
 2641TIP3    H229415   1.988   3.188  17.307 -1.6581 -0.8379 -0.4055
 2642TIP3   OH229416   2.873   0.597   4.424 -0.2533 -0.0772 -0.5162
 2642TIP3    H129417   2.939   0.658   4.390 -0.6961  0.9040  0.3304
 2642TIP3    H229418   2.831   0.561   4.346  0.6474 -0.0049 -1.0489
 2643TIP3   OH229419   2.142   5.097   2.599 -0.0733 -0.3401  0.3975
 2643TIP3    H129420   2.168   5.182   2.635 -0.3272  0.1607 -0.5605
 2643TIP3    H229421   2.055   5.081   2.637 -0.8771  0.7654 -0.8732
 2644TIP3   OH229422   4.864   4.573  11.664 -0.0991  0.1754 -0.1567
 2644TIP3    H129423   4.940   4.544  11.613  2.3608  0.4674  2.9665
 2644TIP3    H229424   4.806   4.497  11.666  1.1262 -0.8283 -0.9551
 2645TIP3   OH229425   5.920   3.304  14.634 -0.2640 -0.3782  0.4184
 2645TIP3    H129426   5.907   3.279  14.725  1.5594 -0.5307  0.6735
 2645TIP3    H229427   6.015   3.307  14.623 -0.4237 -1.2431 -1.7204
 2646TIP3   OH229428   2.301   1.369  15.308 -0.0650 -0.0552  0.1894
 2646TIP3    H129429   2.343   1.319  15.238 -0.0593 -0.4677  0.4816
 2646TIP3    H229430   2.246   1.433  15.263 -0.6611 -0.8254 -0.1894
 2647TIP3   OH229431   4.058   2.512   0.524  0.8188 -0.4975  0.4199
 2647TIP3    H129432   4.096   2.445   0.582  0.5771  0.2344  1.4463
 2647TIP3    H229433   3.969   2.524   0.558 -0.4416 -2.2310 -1.9833
 2648TIP3   OH229434   0.138   2.768  13.777  0.5601  0.4166  0.0173
 2648TIP3    H129435   0.202   2.838  13.789 -1.3545  1.9062  2.6150
 2648TIP3    H229436   0.151   2.710  13.852 -0.1886 -0.0519 -0.1979
 2649TIP3   OH229437   5.365   1.274   5.859  0.4443  0.2176  0.2454
 2649TIP3    H129438   5.306   1.327   5.912 -0.7219 -0.8625  0.0578
 2649TIP3    H229439   5.378   1.326   5.779 -1.2075 -0.0462 -0.2165
 2650TIP3   OH229440   6.509   2.708   4.157  0.5343 -0.1278 -0.0592
 2650TIP3    H129441   6.603   2.726   4.155  0.9347 -2.0337  0.2034
 2650TIP3    H229442   6.483   2.708   4.064  0.7317  0.5828 -0.1238
 2651TIP3   OH229443   3.643   3.805  15.341  0.1148 -0.2409 -0.1941
 2651TIP3    H129444   3.560   3.851  15.328 -0.0584 -0.6111 -0.4338
 2651TIP3    H229445   3.653   3.751  15.263  0.9706  0.3721 -0.5148
 2652TIP3   OH229446   3.726   4.302  13.862 -0.3072  0.3305  0.2141
 2652TIP3    H129447   3.742   4.343  13.777  3.0068 -3.3785 -1.2494
 2652TIP3    H229448   3.686   4.218  13.841 -1.3891  0.1656  2.5888
 2653TIP3   OH229449   0.003   1.104   0.600 -0.2162 -0.3429 -0.5692
 2653TIP3    H129450  -0.029   1.172   0.540 -0.1781 -0.5863 -0.8700
 2653TIP3    H229451  -0.027   1.132   0.687  1.1693  0.8995 -0.4590
 2654TIP3   OH229452   6.145   4.902   6.252 -0.4446 -0.3750  0.6672
 2654TIP3    H129453   6.076   4.847   6.216 -0.9309  1.2521 -1.0471
 2654TIP3    H229454   6.109   4.936   6.334 -0.7019 -1.3876  0.9924
 2655TIP3   OH229455   0.801   5.703  13.067 -0.2461 -0.7346  0.2324
 2655TIP3    H129456   0.833   5.705  12.977 -2.2927  0.5549 -0.5356
 2655TIP3    H229457   0.874   5.738  13.119 -0.0203  1.3347 -1.3160
 2656TIP3   OH229458   3.420   4.133  11.869 -0.2678 -0.2033  0.0317
 2656TIP3    H129459   3.451   4.223  11.864  1.2384 -0.5801  1.4879
 2656TIP3    H229460   3.441   4.095  11.784 -0.8443  0.7705 -0.5656
 2657TIP3   OH229461   0.538   2.004   5.785 -0.5111 -0.0863 -0.0258
 2657TIP3    H129462   0.604   1.939   5.764 -0.8477 -0.1181 -1.0787
 2657TIP3    H229463   0.454   1.958   5.773 -0.7356  0.2880  0.0830
 2658TIP3   OH229464   1.737   0.339   0.559 -0.3005 -0.2729  0.1911
 2658TIP3    H129465   1.821   0.386   0.561 -0.9493  1.0536 -1.2528
 2658TIP3    H229466   1.686   0.377   0.631 -1.6547  3.1036 -2.2756
 2659TIP3   OH229467   1.778   3.736   5.973  0.0236 -0.0530 -0.0099
 2659TIP3    H129468   1.794   3.695   5.888  2.3120  1.6781 -0.5319
 2659TIP3    H229469   1.857   3.789   5.989 -0.2072 -0.4827  3.3119
 2660TIP3   OH229470   3.893   5.615  16.649 -0.2905  0.4808  0.2858
 2660TIP3    H129471   3.860   5.693  16.693 -0.1850  0.5841  0.1848
 2660TIP3    H229472   3.988   5.618  16.663 -0.1379  1.0430 -0.7736
 2661TIP3   OH229473   0.218   5.480  13.955 -0.4526 -0.5158  0.3755
 2661TIP3    H129474   0.167   5.401  13.934  1.6810 -1.9015  0.0716
 2661TIP3    H229475   0.260   5.504  13.872 -1.9169  1.6800  0.1829
 2662TIP3   OH229476   6.171   2.198  12.639 -0.8515 -0.2873 -0.0245
 2662TIP3    H129477   6.089   2.155  12.665 -0.5276 -0.1957  1.2021
 2662TIP3    H229478   6.228   2.189  12.715  0.3866 -0.5869 -0.9732
 2663TIP3   OH229479   4.307   4.238   1.701  0.1445  0.0348  0.1903
 2663TIP3    H129480   4.252   4.242   1.779  1.6582  0.8168  1.2833
 2663TIP3    H229481   4.396   4.251   1.734  1.1504 -2.2705 -1.3470
 2664TIP3   OH229482   2.391   2.110  16.578  0.4593  0.1827 -0.1554
 2664TIP3    H129483   2.411   2.107  16.485 -0.6928  3.4567 -0.6286
 2664TIP3    H229484   2.326   2.180  16.587 -2.9838 -2.8936  2.5289
 2665TIP3   OH229485   0.222   6.590   1.982  0.2367 -0.2805 -0.8074
 2665TIP3    H129486   0.204   6.679   2.013  0.1941 -0.4029 -0.4703
 2665TIP3    H229487   0.317   6.587   1.971  0.1474  0.0938 -1.7315
 2666TIP3   OH229488   5.767   4.849   3.361 -0.0961  0.4222  0.0789
 2666TIP3    H129489   5.678   4.862   3.396 -0.8333  0.9157 -1.8675
 2666TIP3    H229490   5.819   4.915   3.406 -0.4345 -0.5625  2.0471
 2667TIP3   OH229491   5.297   2.558  15.396 -0.3076 -0.0876  0.1181
 2667TIP3    H129492   5.259   2.471  15.387  1.1152 -0.6339 -0.9775
 2667TIP3    H229493   5.343   2.556  15.480  2.6251 -1.6486 -1.3859
 2668TIP3   OH229494   6.552   2.357   4.983  0.3472 -0.7164  0.3871
 2668TIP3    H129495   6.573   2.362   4.890  0.6890 -5.2572 -0.0365
 2668TIP3    H229496   6.632   2.322   5.023 -0.4148 -0.6516  2.0588
 2669TIP3   OH229497   0.252   3.417  13.709 -0.0757 -0.2777 -0.5160
 2669TIP3    H129498   0.284   3.330  13.732  1.4434 -0.0368 -1.6157
 2669TIP3    H229499   0.331   3.470  13.698 -0.9710  1.2873  0.2337
 2670TIP3   OH229500   1.872   2.511   2.398  0.6103 -0.4155  0.1223
 2670TIP3    H129501   1.843   2.517   2.306  0.3566  0.1426  0.2298
 2670TIP3    H229502   1.967   2.506   2.393  0.5244 -3.3159 -0.2889
 2671TIP3   OH229503   6.416   1.650  17.218  0.6293  0.0779  0.1616
 2671TIP3    H129504   6.394   1.611  17.134  1.9042 -2.1337  0.7743
 2671TIP3    H229505   6.511   1.640  17.225  0.9981  2.9331  0.6275
 2672TIP3   OH229506   3.654   2.541  15.275 -0.3161  0.7858  0.4997
 2672TIP3    H129507   3.647   2.598  15.199  0.9880 -0.4088 -0.5701
 2672TIP3    H229508   3.706   2.467  15.245 -1.0167 -0.4377  2.1564
 2673TIP3   OH229509   1.415   5.338  15.387 -0.2466 -0.4548  0.3198
 2673TIP3    H129510   1.509   5.337  15.402 -0.6377  0.3953  3.7160
 2673TIP3    H229511   1.394   5.430  15.370 -0.5472 -0.4444  0.7131
 2674TIP3   OH229512   2.417   4.228   6.638  0.7495 -0.3422  0.2759
 2674TIP3    H129513   2.340   4.184   6.603  1.4339 -0.9412 -0.5458
 2674TIP3    H229514   2.480   4.157   6.652  1.4092  0.2147  0.2089
 2675TIP3   OH229515   3.803   2.853   2.679  0.2153 -0.2733 -0.7885
 2675TIP3    H129516   3.729   2.806   2.717  0.2084  0.8575  0.6946
 2675TIP3    H229517   3.763   2.916   2.619  0.0540 -0.4469 -0.8643
 2676TIP3   OH229518   1.584   5.806   4.778 -0.3061 -0.2811 -0.1080
 2676TIP3    H129519   1.619   5.814   4.867 -0.9950 -1.2055  0.2664
 2676TIP3    H229520   1.617   5.883   4.732 -1.1130  1.0068  1.3586
 2677TIP3   OH229521   6.276   4.727   4.320 -0.1571  0.1865 -0.2027
 2677TIP3    H129522   6.331   4.805   4.316 -1.3497  1.0268 -0.7297
 2677TIP3    H229523   6.238   4.719   4.233  1.5649 -2.2459 -0.8441
 2678TIP3   OH229524   3.802   3.737  11.473  0.3165 -0.1018  0.4328
 2678TIP3    H129525   3.785   3.810  11.532  0.4696 -0.6655  1.1863
 2678TIP3    H229526   3.738   3.671  11.498 -0.1640 -0.0459 -0.5902
 2679TIP3   OH229527   3.954   3.542  13.051 -0.4107 -0.3472 -0.4577
 2679TIP3    H129528   4.005   3.583  13.121  0.9158 -3.2600  0.4181
 2679TIP3    H229529   3.993   3.573  12.970  0.2709  0.4093  0.1520
 2680TIP3   OH229530   6.518   0.108   1.276  0.4297 -0.4325 -0.3669
 2680TIP3    H129531   6.555   0.137   1.359 -1.5468 -1.3657  0.9060
 2680TIP3    H229532   6.509   0.188   1.225 -0.8927  0.6352  1.4130
 2681TIP3   OH229533   4.559   1.273  14.718 -0.0477  0.7665 -0.0336
 2681TIP3    H129534   4.641   1.270  14.668  0.7836 -0.7987  1.3314
 2681TIP3    H229535   4.548   1.365  14.741  0.8099  1.1480 -1.0448
 2682TIP3   OH229536   1.553   2.968   4.875 -0.3680 -0.1686  0.0150
 2682TIP3    H129537   1.628   2.941   4.822  1.1127  0.4071  1.7152
 2682TIP3    H229538   1.557   2.913   4.953 -1.6770 -0.0571  0.1877
 2683TIP3   OH229539   0.911   3.987  13.350  0.9131  0.4660  0.0316
 2683TIP3    H129540   0.948   3.992  13.262 -0.2413 -2.2920 -0.7045
 2683TIP3    H229541   0.846   4.057  13.353  0.7048  0.3616 -1.4490
 2684TIP3   OH229542   5.841   1.216   5.576  0.7940 -0.2101  0.3336
 2684TIP3    H129543   5.814   1.154   5.643  0.5945  0.0113  0.4584
 2684TIP3    H229544   5.878   1.290   5.625  2.7286 -1.0052  0.1503
 2685TIP3   OH229545   2.330   5.448  12.610  0.4492  0.1678  0.5963
 2685TIP3    H129546   2.342   5.448  12.705 -0.7421 -0.9855  0.7914
 2685TIP3    H229547   2.377   5.525  12.579 -0.6809  1.6540  2.3397
 2686TIP3   OH229548   2.981   5.632  16.742 -0.1990  0.2557 -0.2338
 2686TIP3    H129549   2.929   5.711  16.756  0.5533  0.4926  1.3628
 2686TIP3    H229550   3.070   5.658  16.762 -0.0179 -1.1279  0.8840
 2687TIP3   OH229551   5.535   4.524  17.054 -0.8612 -0.3300  0.2067
 2687TIP3    H129552   5.555   4.559  16.968  1.2686 -1.3698  0.2202
 2687TIP3    H229553   5.452   4.479  17.043 -1.4275  0.9202 -0.8730
 2688TIP3   OH229554   6.403   5.198   5.947  0.0035 -0.3117  0.0044
 2688TIP3    H129555   6.338   5.196   6.018  0.0343 -1.5817  0.0279
 2688TIP3    H229556   6.424   5.106   5.933  2.5484  0.1052  0.6700
 2689TIP3   OH229557   2.084   1.552  11.961 -0.2684 -0.4114 -0.3466
 2689TIP3    H129558   2.088   1.467  11.917 -1.1019 -1.0860  0.7907
 2689TIP3    H229559   2.016   1.600  11.915 -1.3621 -1.2312  0.3531
 2690TIP3   OH229560   1.536   1.998  12.568  0.2959  1.0924  0.1834
 2690TIP3    H129561   1.623   1.963  12.552 -0.2939 -0.3450 -0.0864
 2690TIP3    H229562   1.491   1.989  12.484 -0.5850  0.3294  0.7151
 2691TIP3   OH229563   4.482   1.068  12.431 -0.2704 -0.2040  0.5064
 2691TIP3    H129564   4.440   1.107  12.508  0.4406 -1.5527  1.6192
 2691TIP3    H229565   4.422   1.087  12.359 -0.2994  2.2676  1.1074
 2692TIP3   OH229566   3.178   1.870   5.074  0.3256  0.3324  0.4217
 2692TIP3    H129567   3.154   1.915   5.155 -0.1984  0.6495  0.0952
 2692TIP3    H229568   3.095   1.851   5.031  0.5853 -0.1332  0.1128
 2693TIP3   OH229569   1.737   1.066  16.690  0.0222  0.6582 -0.5699
 2693TIP3    H129570   1.677   1.138  16.710  0.3526  0.3984  1.5809
 2693TIP3    H229571   1.822   1.109  16.675  0.4311  0.7143  1.6433
 2694TIP3   OH229572   2.520   3.262   3.209  0.7463 -0.5183  0.0300
 2694TIP3    H129573   2.531   3.173   3.176 -0.1561 -0.8471  0.5539
 2694TIP3    H229574   2.593   3.275   3.269  2.0225 -0.1477 -1.5567
 2695TIP3   OH229575   4.405   3.764   0.012  0.1212 -0.0548 -0.1344
 2695TIP3    H129576   4.448   3.840   0.050  0.8305 -0.6437  0.2770
 2695TIP3    H229577   4.388   3.788  -0.079  1.1915  0.2568 -0.2642
 2696TIP3   OH229578   1.189   2.422  16.700  0.1173  0.4176 -0.4547
 2696TIP3    H129579   1.261   2.468  16.743  0.3829 -0.3297 -0.0790
 2696TIP3    H229580   1.222   2.402  16.612 -0.0380  1.0233 -0.6555
 2697TIP3   OH229581   2.221   6.190  11.138 -0.3956 -0.4853 -0.1555
 2697TIP3    H129582   2.245   6.130  11.209 -0.6246 -0.2749  0.1036
 2697TIP3    H229583   2.132   6.219  11.161  0.7115  2.0865  1.1895
 2698TIP3   OH229584   5.581   4.066   6.607  0.0660  0.5347  0.1716
 2698TIP3    H129585   5.539   4.139   6.561  1.1260  1.6058  0.8376
 2698TIP3    H229586   5.675   4.080   6.594  0.2856 -0.9212  0.0239
 2699TIP3   OH229587   6.178   3.345   6.831  0.2010  0.3434 -0.2610
 2699TIP3    H129588   6.240   3.273   6.832 -1.0227 -0.7632  1.8571
 2699TIP3    H229589   6.230   3.421   6.858  0.8425 -0.3760  0.5978
 2700TIP3   OH229590   4.846   1.623   3.275 -0.0230 -0.3118  0.7837
 2700TIP3    H129591   4.838   1.644   3.182  2.6535  1.3735  0.8165
 2700TIP3    H229592   4.766   1.575   3.296 -0.8576 -0.4670 -2.2874
 2701TIP3   OH229593   3.496   4.097   3.896 -0.6914  0.5542  0.9409
 2701TIP3    H129594   3.581   4.053   3.888 -1.9739 -1.9118 -0.4089
 2701TIP3    H229595   3.470   4.116   3.806 -2.6167 -1.0291  1.0866
 2702TIP3   OH229596   4.099   3.735  14.661  0.4172  0.0840 -0.0660
 2702TIP3    H129597   4.033   3.694  14.717  1.1534 -0.1120  0.6863
 2702TIP3    H229598   4.135   3.662  14.610  1.4800 -0.1869  1.0191
 2703TIP3   OH229599   4.718   1.873   1.262  0.4412  0.3708 -0.0942
 2703TIP3    H129600   4.700   1.943   1.325 -2.7714  0.2829 -0.7789
 2703TIP3    H229601   4.692   1.793   1.307  0.4665  0.0392 -0.6698
 2704TIP3   OH229602   1.910   2.392   5.088  0.4726  0.3716  0.2578
 2704TIP3    H129603   1.947   2.449   5.155  2.4507 -1.1069  0.5296
 2704TIP3    H229604   1.853   2.449   5.036  0.2354  1.9324  2.1278
 2705TIP3   OH229605   2.358   4.697  14.536  0.5665  0.6521 -0.0140
 2705TIP3    H129606   2.376   4.702  14.443  0.2250 -0.7579 -0.1884
 2705TIP3    H229607   2.268   4.664  14.541  0.3903  1.2341  0.8096
 2706TIP3   OH229608   0.299   2.378   0.063 -0.0138 -0.4141  0.2524
 2706TIP3    H129609   0.326   2.469   0.053 -1.0331 -0.3033 -1.8219
 2706TIP3    H229610   0.325   2.335  -0.019 -2.2268 -1.2655 -0.0660
 2707TIP3   OH229611   3.240   6.692   3.580  0.2258  0.1485  0.3812
 2707TIP3    H129612   3.335   6.686   3.570  0.3952  2.6973 -0.3326
 2707TIP3    H229613   3.205   6.642   3.507  0.9064 -2.0722  1.4639
 2708TIP3   OH229614   4.220   2.966  12.988  0.6815  0.6358  0.7688
 2708TIP3    H129615   4.280   3.019  12.936  0.1261 -1.3440 -2.1356
 2708TIP3    H229616   4.137   3.013  12.985  0.4113  0.1308 -1.0641
 2709TIP3   OH229617   2.600   5.843   5.573 -0.2720  0.6292  0.5543
 2709TIP3    H129618   2.513   5.881   5.557 -0.1504  0.8597  0.4231
 2709TIP3    H229619   2.661   5.908   5.537 -0.0830 -0.0462 -0.3921
 2710TIP3   OH229620   4.975   4.781   0.529  0.0895  0.2890  0.6928
 2710TIP3    H129621   4.926   4.831   0.594 -0.2113  0.0638  0.6396
 2710TIP3    H229622   5.059   4.764   0.571  0.3187  1.1101  0.5883
 2711TIP3   OH229623   2.560   6.028   4.320 -0.2544 -0.4235 -0.3228
 2711TIP3    H129624   2.588   6.065   4.404  0.5373 -0.8232 -0.4011
 2711TIP3    H229625   2.542   6.104   4.265 -1.8837 -0.1431  0.5502
 2712TIP3   OH229626   6.596   6.506  17.059 -0.4737 -0.3894  0.0969
 2712TIP3    H129627   6.631   6.562  16.990  0.7171 -1.1520  0.0665
 2712TIP3    H229628   6.524   6.458  17.017 -1.2236  0.7618  0.0101
 2713TIP3   OH229629   5.846   1.649  12.725  0.0645  0.1921  0.6115
 2713TIP3    H129630   5.864   1.742  12.740 -0.3839  0.8374 -2.1842
 2713TIP3    H229631   5.933   1.609  12.718  0.3421  0.9434 -0.6658
 2714TIP3   OH229632   1.849   4.614  11.310  0.1393  0.0068 -0.0970
 2714TIP3    H129633   1.926   4.557  11.302  1.5088  1.8530 -0.6348
 2714TIP3    H229634   1.824   4.632  11.219  0.8785  1.7107  0.0037
 2715TIP3   OH229635   5.542   0.658   1.418 -0.6786  0.3917  0.4175
 2715TIP3    H129636   5.498   0.716   1.481  0.7834  1.9218  0.1132
 2715TIP3    H229637   5.635   0.669   1.437 -0.1397  1.2884 -2.2794
 2716TIP3   OH229638   2.283   6.650   1.366 -0.0077 -0.4479 -0.3062
 2716TIP3    H129639   2.343   6.580   1.341  0.7494  0.9972 -2.8822
 2716TIP3    H229640   2.203   6.633   1.316 -0.1300  0.0718 -0.2927
 2717TIP3   OH229641   3.098   6.348  14.387 -0.2198  1.0498 -0.1839
 2717TIP3    H129642   3.167   6.369  14.450  0.5835 -0.5219 -0.5056
 2717TIP3    H229643   3.145   6.312  14.311 -1.3057  1.2651 -0.9847
 2718TIP3   OH229644   1.811   4.011  10.456  0.1249  0.0392  0.2025
 2718TIP3    H129645   1.721   4.001  10.427 -0.6221  1.9767  1.5784
 2718TIP3    H229646   1.812   3.973  10.544  0.5328  0.3981  0.3576
 2719TIP3   OH229647   5.681   1.216  16.410 -0.0417  0.0624  0.4427
 2719TIP3    H129648   5.705   1.130  16.443 -0.2942  0.4370  1.6723
 2719TIP3    H229649   5.637   1.259  16.484 -0.9658  0.8232 -0.5058
 2720TIP3   OH229650   6.272   0.977   4.906  0.2925  0.1321  0.0103
 2720TIP3    H129651   6.319   1.060   4.914  2.5087 -0.9820 -0.5478
 2720TIP3    H229652   6.336   0.911   4.934 -1.4197 -1.3975  0.5042
 2721TIP3   OH229653   5.302   3.474   0.806  0.1649  0.2257  0.4255
 2721TIP3    H129654   5.295   3.427   0.723  1.8069  0.3749  0.1599
 2721TIP3    H229655   5.349   3.414   0.863  0.8663  0.9118  0.5865
 2722TIP3   OH229656   5.755   0.101  14.570  0.2305  0.0346  0.1201
 2722TIP3    H129657   5.698   0.176  14.584  0.3859  0.3206 -0.7354
 2722TIP3    H229658   5.813   0.128  14.498  2.2341  0.2219  1.6988
 2723TIP3   OH229659   3.456   1.749   1.811 -0.1631  0.0276 -0.2459
 2723TIP3    H129660   3.511   1.823   1.834 -0.5450  0.5371 -0.9667
 2723TIP3    H229661   3.485   1.722   1.724 -1.3444  0.5885 -0.8252
 2724TIP3   OH229662   0.707   4.536  14.165 -0.0483  0.0648 -0.3005
 2724TIP3    H129663   0.652   4.614  14.162  1.6110  1.2944  0.1617
 2724TIP3    H229664   0.650   4.466  14.134 -1.2024  1.6838 -2.0826
 2725TIP3   OH229665   5.933   2.385  12.620 -0.3162 -0.3595  0.4492
 2725TIP3    H129666   5.889   2.324  12.679 -1.6226  0.8797  0.8311
 2725TIP3    H229667   6.022   2.350  12.611 -0.2590 -0.9538  2.6386
 2726TIP3   OH229668   5.352   1.994   1.728  0.0449 -0.2733 -0.1234
 2726TIP3    H129669   5.442   1.990   1.696 -0.1269 -1.3474 -0.5119
 2726TIP3    H229670   5.354   1.952   1.814  0.0531  0.4274  0.2280
 2727TIP3   OH229671   0.511   1.641  14.432 -0.7502 -0.0604 -0.1038
 2727TIP3    H129672   0.507   1.579  14.505  3.7798  1.0284  1.3767
 2727TIP3    H229673   0.564   1.597  14.366  0.2343  1.1945 -0.1802
 2728TIP3   OH229674   0.147   5.581  16.808  0.8085  0.1248 -0.1135
 2728TIP3    H129675   0.210   5.625  16.751  0.9196  0.0301 -0.0637
 2728TIP3    H229676   0.062   5.604  16.771  0.6623  3.0136  1.7165
 2729TIP3   OH229677   1.761   1.045   5.136  0.2381 -0.4884 -0.6394
 2729TIP3    H129678   1.706   1.067   5.211 -1.6094  0.5003 -2.2217
 2729TIP3    H229679   1.744   0.952   5.121 -1.4274 -0.0953 -1.3941
 2730TIP3   OH229680   0.056   5.677  12.488  0.4034  1.0401 -0.4565
 2730TIP3    H129681  -0.024   5.625  12.495 -0.0148  1.8587  1.6273
 2730TIP3    H229682   0.033   5.762  12.526  2.5111  0.9586  1.1980
 2731TIP3   OH229683   5.407   6.069  17.009  0.3710 -0.3765  0.0031
 2731TIP3    H129684   5.501   6.082  17.004  0.5916 -1.8086 -0.1630
 2731TIP3    H229685   5.379   6.057  16.918 -0.2013  1.2598 -0.0772
 2732TIP3   OH229686   0.948   1.367   0.457  0.0670 -0.0501  0.5658
 2732TIP3    H129687   0.991   1.381   0.373 -0.8776 -3.1845 -0.6067
 2732TIP3    H229688   1.019   1.343   0.517  0.8491  2.9829  0.9881
 2733TIP3   OH229689   6.176   5.556  17.019 -0.4394  0.0573  0.0657
 2733TIP3    H129690   6.094   5.578  17.064 -0.3039 -0.1234  0.4083
 2733TIP3    H229691   6.200   5.635  16.972 -0.0893  0.5636  1.0685
 2734TIP3   OH229692   1.092   1.559  15.833 -0.0131 -0.0009  0.3928
 2734TIP3    H129693   1.146   1.570  15.912  0.3300 -0.6510  0.2567
 2734TIP3    H229694   1.044   1.477  15.848  0.2466 -0.2630 -0.1760
 2735TIP3   OH229695   1.557   6.559  10.407 -0.3637 -0.5523  0.1566
 2735TIP3    H129696   1.622   6.561  10.338 -1.2660  0.3123 -0.6903
 2735TIP3    H229697   1.581   6.482  10.460  0.2537 -1.3157 -1.1793
 2736TIP3   OH229698   4.116   2.879   0.157  0.0965 -0.4522  0.0454
 2736TIP3    H129699   4.048   2.845   0.215  0.0211  0.5381  0.5657
 2736TIP3    H229700   4.196   2.875   0.210  0.3624 -1.1481 -0.3918
 2737TIP3   OH229701   1.504   2.196   3.749  0.1475  0.1576 -0.1394
 2737TIP3    H129702   1.530   2.128   3.811 -0.8816 -0.8923 -0.8104
 2737TIP3    H229703   1.511   2.154   3.663 -1.8818  0.4068 -0.4780
 2738TIP3   OH229704   0.131   0.915  11.496  0.1958  0.3104 -0.4573
 2738TIP3    H129705   0.051   0.954  11.531  0.5031 -0.0659  0.7410
 2738TIP3    H229706   0.192   0.918  11.570  1.9399  2.3299 -1.8428
 2739TIP3   OH229707   1.216   0.259   3.363 -0.8457  0.6523 -0.4567
 2739TIP3    H129708   1.271   0.313   3.420 -1.3149 -0.3301  0.9780
 2739TIP3    H229709   1.234   0.169   3.389 -2.4801  0.2603 -0.5445
 2740TIP3   OH229710   0.528   2.986  12.683  0.0523  0.1391 -0.0982
 2740TIP3    H129711   0.461   2.998  12.750 -0.3317 -2.9118  0.2329
 2740TIP3    H229712   0.607   3.027  12.719 -0.5371 -0.0961  1.5365
 2741TIP3   OH229713   1.077   1.704  14.257 -0.7398  0.0836  0.3629
 2741TIP3    H129714   1.130   1.664  14.188  0.6142  2.4122 -0.0561
 2741TIP3    H229715   1.104   1.661  14.337 -0.4127 -0.8514 -0.2381
 2742TIP3   OH229716   4.287   6.735  12.000  0.1319 -0.3043  0.1635
 2742TIP3    H129717   4.274   6.698  12.087 -1.3087  1.5310  0.8108
 2742TIP3    H229718   4.226   6.810  11.997  1.1431  0.5079 -1.9043
 2743TIP3   OH229719   4.603   2.316  13.600 -0.1395  0.2058 -0.2106
 2743TIP3    H129720   4.624   2.399  13.557 -0.6608  0.9056  0.8450
 2743TIP3    H229721   4.659   2.314  13.678  1.3420 -1.3918 -1.2449
 2744TIP3   OH229722   2.013   2.363   1.363 -0.1601  0.2108  0.1326
 2744TIP3    H129723   1.969   2.375   1.278 -0.2741  2.9466  0.5052
 2744TIP3    H229724   1.971   2.285   1.400 -0.7384 -0.5287 -1.9167
 2745TIP3   OH229725   0.849   6.013   2.739 -0.1087 -0.3126 -0.2671
 2745TIP3    H129726   0.859   6.086   2.799  0.7335 -1.9058  1.6571
 2745TIP3    H229727   0.762   6.024   2.701 -0.1268  1.4671  0.2341
 2746TIP3   OH229728   3.875   2.682  11.182  0.0986 -0.5603 -0.4896
 2746TIP3    H129729   3.911   2.771  11.172  0.1209 -0.4696  0.3453
 2746TIP3    H229730   3.804   2.692  11.246 -0.5376 -0.9805 -1.1166
 2747TIP3   OH229731   2.394   5.702  13.076 -0.6858  0.0275  0.6535
 2747TIP3    H129732   2.410   5.733  13.165 -0.8849 -0.8446  1.0007
 2747TIP3    H229733   2.405   5.607  13.081  1.0529  0.1287 -0.6429
 2748TIP3   OH229734   0.679   2.166  11.629  0.4373  0.8684  0.5898
 2748TIP3    H129735   0.641   2.088  11.669 -0.7580  0.6641 -0.8764
 2748TIP3    H229736   0.638   2.239  11.677  0.9464  0.6269  1.4152
 2749TIP3   OH229737   2.480   2.432  12.930 -0.0362  0.1757 -0.1183
 2749TIP3    H129738   2.479   2.436  12.834 -0.5169  3.3821 -0.0915
 2749TIP3    H229739   2.388   2.429  12.955  0.0002  1.3388  0.2193
 2750TIP3   OH229740   2.104   1.934  15.732  0.8343 -0.4625  0.3279
 2750TIP3    H129741   2.122   1.931  15.638  0.4045  0.9573  0.1754
 2750TIP3    H229742   2.023   1.984  15.739  1.2986  0.1574  1.5018
 2751TIP3   OH229743   4.505   4.786  16.602 -0.2574 -0.0790 -0.2106
 2751TIP3    H129744   4.445   4.795  16.676 -0.7126 -1.2725 -0.4024
 2751TIP3    H229745   4.500   4.870  16.557  0.0100  0.6624  1.0858
 2752TIP3   OH229746   6.154   3.600   3.460  0.2850  0.5187  0.1601
 2752TIP3    H129747   6.071   3.633   3.494  0.4289  3.3873 -1.9436
 2752TIP3    H229748   6.135   3.510   3.432 -1.6016  0.5173  1.2712
 2753TIP3   OH229749   0.859   2.609  11.795  0.4195  0.0871  0.4079
 2753TIP3    H129750   0.767   2.627  11.813  0.1505 -0.2805 -0.5537
 2753TIP3    H229751   0.872   2.519  11.826 -0.5360 -1.2723 -2.7524
 2754TIP3   OH229752   5.689   5.607   2.691  0.0909 -0.2434 -0.5181
 2754TIP3    H129753   5.626   5.541   2.721 -0.2484  0.1331 -0.3890
 2754TIP3    H229754   5.647   5.691   2.712  1.2811  0.0213  0.9301
 2755TIP3   OH229755   2.431   0.231  12.864  0.4710 -0.4254 -0.0244
 2755TIP3    H129756   2.361   0.290  12.894 -0.1289 -1.2289  0.1847
 2755TIP3    H229757   2.419   0.226  12.769 -0.5842 -1.5758  0.1501
 2756TIP3   OH229758   6.158   4.119   3.840  0.1841  0.0171 -0.5193
 2756TIP3    H129759   6.101   4.115   3.916  2.3848 -1.6270  1.1907
 2756TIP3    H229760   6.222   4.187   3.861  0.7289 -0.3499 -0.9386
 2757TIP3   OH229761   6.661   4.650   0.300 -0.2753 -0.1469 -0.1888
 2757TIP3    H129762   6.594   4.654   0.368  0.3049  0.8193  0.3455
 2757TIP3    H229763   6.668   4.557   0.278 -0.5866 -0.4464  0.9584
 2758TIP3   OH229764   4.546   3.966  17.090  0.2583  0.0040  0.2050
 2758TIP3    H129765   4.526   3.873  17.081 -0.5473 -0.0488  2.0286
 2758TIP3    H229766   4.469   4.011  17.054  0.1971 -0.0585  0.2573
 2759TIP3   OH229767   5.439   4.957   4.552 -0.1248  0.0306 -0.0231
 2759TIP3    H129768   5.448   4.899   4.627 -0.9853  0.9650  0.8247
 2759TIP3    H229769   5.461   5.044   4.585 -1.4385  0.6140 -0.5849
 2760TIP3   OH229770   5.713   4.465  14.632  0.3276  0.2352 -0.0736
 2760TIP3    H129771   5.767   4.390  14.655  1.2813  0.9081 -0.0211
 2760TIP3    H229772   5.768   4.516  14.573 -1.8015 -1.1205 -3.4717
 2761TIP3   OH229773   0.165   0.855  14.175  0.0365  1.3489 -0.1410
 2761TIP3    H129774   0.167   0.935  14.121 -2.8140  2.1028  0.6995
 2761TIP3    H229775   0.231   0.870  14.243  3.1115  0.7354 -2.7220
 2762TIP3   OH229776   4.225   0.880  15.443 -0.1210 -0.0409  0.1183
 2762TIP3    H129777   4.151   0.893  15.383 -0.5804 -2.1564  0.1366
 2762TIP3    H229778   4.185   0.844  15.522  0.7950  0.0069  0.6087
 2763TIP3   OH229779   5.683   6.156   1.933 -0.1935  0.1805 -0.4974
 2763TIP3    H129780   5.735   6.175   1.854  1.0880 -0.0949  0.2470
 2763TIP3    H229781   5.731   6.085   1.976 -0.2368  1.0784  1.0929
 2764TIP3   OH229782   3.512   0.884  14.881 -0.0629 -0.3817  0.3708
 2764TIP3    H129783   3.547   0.848  14.963 -0.1535 -0.1949  0.4905
 2764TIP3    H229784   3.583   0.938  14.847 -0.3485  0.2536  0.7753
 2765TIP3   OH229785   6.418   6.213  15.110  0.8180 -0.2657  0.1484
 2765TIP3    H129786   6.506   6.186  15.136  0.6190 -2.3493 -1.1200
 2765TIP3    H229787   6.367   6.209  15.191  1.0912 -2.7194  0.2839
 2766TIP3   OH229788   2.477   5.157   1.198  0.5322 -0.4205  0.2501
 2766TIP3    H129789   2.440   5.236   1.236  0.8719 -0.8503  1.5255
 2766TIP3    H229790   2.518   5.187   1.116  1.0840  0.8086  0.9461
 2767TIP3   OH229791   6.554   0.603  16.217  0.5256  0.1280  0.4400
 2767TIP3    H129792   6.511   0.653  16.287 -0.4122  0.2632 -0.2252
 2767TIP3    H229793   6.483   0.573  16.161  1.2465 -0.1954 -0.3238
 2768TIP3   OH229794   3.359   3.780  12.744  0.0522 -0.0057  0.0151
 2768TIP3    H129795   3.316   3.710  12.793  0.9816 -1.1800 -0.7844
 2768TIP3    H229796   3.377   3.742  12.658 -2.8638  2.4431 -1.8873
 2769TIP3   OH229797   1.394   2.786  11.993 -1.1205 -0.2992  0.2702
 2769TIP3    H129798   1.342   2.852  12.039  0.1368  0.1650  1.0857
 2769TIP3    H229799   1.381   2.706  12.044 -1.6633 -0.3922 -0.0033
 2770TIP3   OH229800   4.572   3.868  15.601 -0.0953  0.2678  0.0288
 2770TIP3    H129801   4.552   3.946  15.550 -0.0733 -0.2447 -0.7750
 2770TIP3    H229802   4.667   3.872  15.614  0.0240 -0.0395 -0.7109
 2771TIP3   OH229803   5.246   1.408   0.874  0.5845  0.6260  0.1392
 2771TIP3    H129804   5.155   1.376   0.877  0.9890 -0.5477  0.8743
 2771TIP3    H229805   5.249   1.467   0.799 -0.5358 -0.1495 -0.5394
 2772TIP3   OH229806   6.280   1.786  13.371 -0.2747  0.8905 -0.9250
 2772TIP3    H129807   6.300   1.708  13.423 -0.3912  1.0535 -0.6304
 2772TIP3    H229808   6.291   1.859  13.432 -2.0442  0.9705 -0.6289
 2773TIP3   OH229809   6.473   2.674   2.200 -0.3896 -0.6127 -0.2458
 2773TIP3    H129810   6.388   2.671   2.157 -1.7300 -1.2060  2.2644
 2773TIP3    H229811   6.453   2.690   2.292  2.2586 -0.3777  0.3641
 2774TIP3   OH229812   2.375   5.421   2.365 -0.1103  0.5378  0.3308
 2774TIP3    H129813   2.464   5.441   2.394 -0.2599  0.3834  0.9266
 2774TIP3    H229814   2.382   5.408   2.271  0.5036  0.5111  0.3759
 2775TIP3   OH229815   4.947   0.711  14.292 -0.2067  0.7292 -0.2892
 2775TIP3    H129816   4.858   0.745  14.291 -0.5107 -0.0448 -1.6634
 2775TIP3    H229817   5.002   0.789  14.291 -0.8841  1.2166 -1.4816
 2776TIP3   OH229818   6.555   2.605   0.783  0.2709 -0.1488 -0.3384
 2776TIP3    H129819   6.587   2.656   0.709 -0.0322 -1.8875 -1.7324
 2776TIP3    H229820   6.630   2.551   0.809  0.4754  0.6756  0.8749
 2777TIP3   OH229821   5.948   6.052   2.468 -0.4418 -0.2439  0.4257
 2777TIP3    H129822   5.911   6.012   2.389 -0.5206 -1.5756  1.1113
 2777TIP3    H229823   5.921   5.993   2.539  0.9968  0.0516  1.2431
 2778TIP3   OH229824   6.693   1.574   2.148  0.6758  0.6240  0.6074
 2778TIP3    H129825   6.614   1.534   2.185  2.2199 -0.7843  2.6470
 2778TIP3    H229826   6.698   1.661   2.189 -0.1562  0.9873 -0.0543
 2779TIP3   OH229827   4.998   6.558  15.468 -0.7707 -0.1561 -0.0485
 2779TIP3    H129828   5.005   6.479  15.522  3.3675 -0.3125 -0.5201
 2779TIP3    H229829   4.946   6.531  15.392 -2.4061 -1.3334  1.4072
 2780TIP3   OH229830   6.588   6.710  12.938 -0.3808 -0.4213  0.1204
 2780TIP3    H129831   6.605   6.761  12.859 -0.5652  1.2775  1.1302
 2780TIP3    H229832   6.577   6.776  13.007 -1.4634 -1.8138  1.3295
 2781TIP3   OH229833   2.554   2.134  16.843  0.1385 -0.1107  0.1531
 2781TIP3    H129834   2.549   2.169  16.754  0.0669 -0.6349 -0.0489
 2781TIP3    H229835   2.602   2.052  16.835 -1.4601 -1.1118  0.2892
 2782TIP3   OH229836   0.709   3.933   2.907 -0.1341  0.2134  0.1273
 2782TIP3    H129837   0.748   4.010   2.866 -0.2275  0.7152  0.9486
 2782TIP3    H229838   0.783   3.888   2.949 -0.3732  1.0876  1.5615
 2783TIP3   OH229839   4.582   2.791  12.918  0.1538  0.1947  0.1137
 2783TIP3    H129840   4.669   2.793  12.879 -0.6638 -0.3158 -1.8639
 2783TIP3    H229841   4.578   2.870  12.972  0.9268  1.6986 -1.9158
 2784TIP3   OH229842   2.758   1.793  16.096 -0.5252 -0.1428 -0.1664
 2784TIP3    H129843   2.695   1.722  16.115 -0.7381  0.0938  0.0184
 2784TIP3    H229844   2.792   1.818  16.182 -0.5394  0.0604 -0.2205
 2785TIP3   OH229845   6.308   3.659   5.148 -0.2690 -0.0156 -0.5159
 2785TIP3    H129846   6.366   3.662   5.224 -0.9158  2.8897 -0.0087
 2785TIP3    H229847   6.221   3.678   5.184 -0.9214 -0.5155 -1.7514
 2786TIP3   OH229848   4.287   1.491  12.180  0.7916  0.0291 -0.8202
 2786TIP3    H129849   4.373   1.449  12.175 -0.2003 -2.2125 -0.3586
 2786TIP3    H229850   4.265   1.509  12.089  0.3468 -2.5737 -1.3129
 2787TIP3   OH229851   6.046   5.217  16.105 -0.2273  0.3933 -0.4507
 2787TIP3    H129852   6.055   5.171  16.188 -0.6473  1.6332  0.3036
 2787TIP3    H229853   6.055   5.309  16.127 -1.6538  0.8369 -1.5686
 2788TIP3   OH229854   6.705   3.116   7.078  0.3852  0.0425 -0.4366
 2788TIP3    H129855   6.619   3.075   7.073  0.0351  0.3806  1.5977
 2788TIP3    H229856   6.700   3.191   7.019  0.2192 -1.3926 -2.3333
 2789TIP3   OH229857   5.534   6.512  12.384 -0.2350  0.3162 -0.3429
 2789TIP3    H129858   5.562   6.433  12.337  1.8003  0.2964  0.7801
 2789TIP3    H229859   5.490   6.480  12.462  0.2712  0.2923 -0.0666
 2790TIP3   OH229860   1.373   5.348  13.193 -0.3300  0.1205  0.1507
 2790TIP3    H129861   1.380   5.381  13.103  1.4554 -0.2426  0.1021
 2790TIP3    H229862   1.392   5.254  13.185 -2.6849 -0.4406  0.6216
 2791TIP3   OH229863   0.590   1.019  16.727 -0.4759  0.0131 -0.3599
 2791TIP3    H129864   0.646   1.096  16.719  1.6894 -1.6298 -3.0061
 2791TIP3    H229865   0.580   1.006  16.822  1.7734  1.7248  0.1947
 2792TIP3   OH229866   3.443   4.120   3.637 -0.2911 -0.9952 -0.1477
 2792TIP3    H129867   3.348   4.130   3.629 -0.5910 -3.1703  0.0884
 2792TIP3    H229868   3.474   4.106   3.548 -0.4814 -2.0980 -0.0634
 2793TIP3   OH229869   1.844   1.835   0.740 -0.5183 -0.0484 -0.4136
 2793TIP3    H129870   1.766   1.879   0.774 -0.0516  0.0042  0.6421
 2793TIP3    H229871   1.862   1.766   0.804  0.5132  0.1860 -0.4406
 2794TIP3   OH229872   2.172   2.783   5.752  0.2426  0.1788  0.4098
 2794TIP3    H129873   2.082   2.802   5.778 -0.4692  0.2232 -1.8688
 2794TIP3    H229874   2.191   2.697   5.790 -1.8466 -1.1932 -1.4415
 2795TIP3   OH229875   2.878   0.016   1.162  0.4380  0.2016  0.9612
 2795TIP3    H129876   2.913   0.009   1.251  2.2840  1.7719  0.4397
 2795TIP3    H229877   2.953  -0.003   1.106  0.0096  1.8208 -0.2373
 2796TIP3   OH229878   6.067   5.500  14.847  0.6880  0.5946  0.1893
 2796TIP3    H129879   6.065   5.552  14.767 -0.8830 -0.7933 -0.7287
 2796TIP3    H229880   6.140   5.440  14.835 -0.8337 -1.0729 -1.2357
 2797TIP3   OH229881   0.330   6.234  15.854  0.6646 -0.0231  0.0800
 2797TIP3    H129882   0.235   6.236  15.841  0.4663 -2.1181  0.6946
 2797TIP3    H229883   0.367   6.223  15.767  0.0156 -3.4110  0.0991
 2798TIP3   OH229884   2.731   4.515   2.914  0.0003  0.2417  0.2246
 2798TIP3    H129885   2.777   4.530   2.831 -2.3318  1.1601 -0.9987
 2798TIP3    H229886   2.685   4.432   2.901  0.3526 -0.0806  0.9814
 2799TIP3   OH229887   1.570   4.732  14.910 -0.0757 -0.4213  0.4144
 2799TIP3    H129888   1.481   4.745  14.879  0.1666 -0.8129 -0.4707
 2799TIP3    H229889   1.624   4.737  14.831  0.3108 -4.2015  0.2472
 2800TIP3   OH229890   2.574   3.158   3.781  0.1778  0.0767 -0.6476
 2800TIP3    H129891   2.498   3.192   3.734 -0.2349 -0.4259 -0.3471
 2800TIP3    H229892   2.541   3.136   3.868  1.1128  1.7887  0.1853
 2801TIP3   OH229893   0.724   0.248   2.275 -0.9212 -0.2624 -0.1947
 2801TIP3    H129894   0.688   0.167   2.238  0.6265 -0.9159 -0.3575
 2801TIP3    H229895   0.790   0.218   2.338 -1.2811  0.8768  0.7480
 2802TIP3   OH229896   5.672   6.291  12.590 -0.5413  0.0682  0.8113
 2802TIP3    H129897   5.760   6.323  12.572 -0.3140  0.1038  1.8828
 2802TIP3    H229898   5.616   6.368  12.580 -0.2532  0.3807  1.4928
 2803TIP3   OH229899   3.408   6.666  11.577 -0.3670  0.2584 -0.1109
 2803TIP3    H129900   3.384   6.598  11.515  2.0005 -0.3796 -0.4399
 2803TIP3    H229901   3.405   6.747  11.527  0.8713 -0.1734 -0.9455
 2804TIP3   OH229902   0.293   6.201  14.069  0.3096  0.3579  0.1541
 2804TIP3    H129903   0.237   6.129  14.098  0.6829 -0.0466 -0.1054
 2804TIP3    H229904   0.309   6.183  13.976  1.8579 -0.2180  0.5031
 2805TIP3   OH229905   5.126   3.355  12.484 -0.1594 -0.1613 -0.5761
 2805TIP3    H129906   5.094   3.442  12.458  1.5444  1.4820  2.2965
 2805TIP3    H229907   5.217   3.353  12.455 -0.4941 -1.5262 -1.6384
 2806TIP3   OH229908   3.889   0.994  17.155  0.5126  0.4011 -0.2988
 2806TIP3    H129909   3.865   0.989  17.063  0.0725 -0.8115 -0.1381
 2806TIP3    H229910   3.807   1.012  17.201  0.5079 -0.2817 -0.0374
 2807TIP3   OH229911   1.553   3.702   3.952  0.0717  0.4012  0.1485
 2807TIP3    H129912   1.591   3.788   3.971  0.7656  0.1567 -0.1216
 2807TIP3    H229913   1.583   3.646   4.024 -0.2554  0.3407  0.2411
 2808TIP3   OH229914   4.354   6.487  14.106 -0.4340  0.0442 -0.2112
 2808TIP3    H129915   4.394   6.414  14.060 -0.7786  0.2596 -0.8624
 2808TIP3    H229916   4.279   6.512  14.053  0.5775  1.8983 -0.8736
 2809TIP3   OH229917   2.874   2.432   0.158 -0.4121  0.1151 -0.0250
 2809TIP3    H129918   2.787   2.394   0.170 -0.1274  0.1506  2.6479
 2809TIP3    H229919   2.857   2.526   0.144 -0.8822 -0.2415 -2.0888
 2810TIP3   OH229920   6.473   6.133   2.571  0.9815 -0.5769  0.3443
 2810TIP3    H129921   6.424   6.051   2.566  1.0173 -0.5933  0.2689
 2810TIP3    H229922   6.417   6.198   2.530  1.1820 -0.6700 -0.0798
 2811TIP3   OH229923   4.252   3.437  12.919 -0.2841 -0.2453 -0.1018
 2811TIP3    H129924   4.245   3.519  12.869 -0.0897  1.1027  1.9496
 2811TIP3    H229925   4.288   3.374  12.856 -3.4220  0.2826 -2.7013
 2812TIP3   OH229926   5.127   0.431   2.092 -0.2155 -0.2996  1.0051
 2812TIP3    H129927   5.047   0.382   2.074 -0.4869 -1.4602  4.4860
 2812TIP3    H229928   5.107   0.481   2.172  2.4728 -0.6617  2.0134
 2813TIP3   OH229929   1.670   2.452  11.402  0.3867  0.6187  0.0506
 2813TIP3    H129930   1.712   2.535  11.380  0.9931  0.2657 -0.1339
 2813TIP3    H229931   1.739   2.387  11.393  0.4481  0.3376  2.2008
 2814TIP3   OH229932   0.891   2.260   5.557  0.2545 -0.8198 -0.2723
 2814TIP3    H129933   0.911   2.353   5.552 -2.6481 -0.0990 -0.6977
 2814TIP3    H229934   0.976   2.217   5.560  1.7024  1.8016 -0.4247
 2815TIP3   OH229935   0.011   0.274  16.633  0.0396 -0.1845  0.0291
 2815TIP3    H129936   0.044   0.364  16.630 -0.9911  0.1885 -1.6256
 2815TIP3    H229937   0.086   0.221  16.660  0.6576  1.1633  1.0449
 2816TIP3   OH229938   6.047   1.686   2.934 -0.0516 -0.2600  0.2719
 2816TIP3    H129939   5.976   1.730   2.979 -0.1284  0.9808 -0.9910
 2816TIP3    H229940   6.011   1.601   2.908 -0.9278  0.1808  0.0327
 2817TIP3   OH229941   4.473   5.221   5.769 -0.8277  0.1352  0.9291
 2817TIP3    H129942   4.540   5.273   5.812  1.7121 -0.2082 -2.2221
 2817TIP3    H229943   4.436   5.279   5.702 -1.4952 -0.6140  0.6306
 2818TIP3   OH229944   4.966   1.262   1.630  0.3162 -0.8161  0.7191
 2818TIP3    H129945   4.908   1.334   1.654 -0.3182 -1.0000 -0.2374
 2818TIP3    H229946   4.983   1.274   1.537  0.2013 -1.8866  0.5434
 2819TIP3   OH229947   1.734   4.439   0.117  0.5148 -0.0189 -0.4254
 2819TIP3    H129948   1.827   4.461   0.126  0.5200 -0.3985  0.6602
 2819TIP3    H229949   1.731   4.378   0.044  1.0333  0.4970 -0.8848
 2820TIP3   OH229950   5.269   2.207  12.769 -0.3335  0.2940  0.0618
 2820TIP3    H129951   5.179   2.238  12.778 -0.4765 -0.2106  0.4429
 2820TIP3    H229952   5.262   2.128  12.717 -0.2297 -0.2691  0.8779
 2821TIP3   OH229953   3.793   1.462  15.558  0.5794 -0.1390  0.0017
 2821TIP3    H129954   3.788   1.367  15.546  1.4870 -0.3090  0.8500
 2821TIP3    H229955   3.753   1.498  15.479 -0.7801 -1.2244  0.1361
 2822TIP3   OH229956   3.445   2.128   4.522 -0.1411  0.4800 -0.2423
 2822TIP3    H129957   3.500   2.109   4.598  0.4494  0.5981 -0.6339
 2822TIP3    H229958   3.382   2.057   4.520 -0.6156  0.8552  0.7741
 2823TIP3   OH229959   6.105   4.742   3.255 -0.0571 -0.4210 -0.1366
 2823TIP3    H129960   6.099   4.833   3.227  1.8996  0.7834  2.8913
 2823TIP3    H229961   6.028   4.700   3.216 -2.6795  3.1774  0.6236
 2824TIP3   OH229962   4.125   4.762   5.255 -0.3833 -0.3393  0.2426
 2824TIP3    H129963   4.116   4.685   5.311 -1.8377  0.1833  0.7784
 2824TIP3    H229964   4.088   4.734   5.171  2.1176 -1.2375 -0.6691
 2825TIP3   OH229965   1.238   2.517   2.267  0.0166 -0.1991 -0.1115
 2825TIP3    H129966   1.205   2.427   2.272 -0.1123 -0.1855 -0.6469
 2825TIP3    H229967   1.239   2.548   2.358 -0.6277 -0.4941 -0.0024
 2826TIP3   OH229968   0.158   1.119   2.290  0.8742 -0.3805 -0.1111
 2826TIP3    H129969   0.111   1.202   2.282  1.3494 -0.2039 -1.3587
 2826TIP3    H229970   0.099   1.062   2.339 -0.2499  0.1076 -0.8734
 2827TIP3   OH229971   4.266   0.630  10.581 -0.0047  0.3010  0.2121
 2827TIP3    H129972   4.180   0.672  10.575  0.1003  0.3629 -1.2785
 2827TIP3    H229973   4.322   0.681  10.523  0.4094 -1.1984 -0.7697
 2828TIP3   OH229974   5.463   6.076   3.126 -0.2389 -1.0541 -0.3826
 2828TIP3    H129975   5.558   6.072   3.141 -0.0027  3.3083  0.6715
 2828TIP3    H229976   5.453   6.138   3.053 -2.2606 -0.3842  0.4018
 2829TIP3   OH229977   1.389   1.869   5.257 -0.7115  0.5182 -0.0367
 2829TIP3    H129978   1.470   1.842   5.215  0.1007  0.3098  1.5930
 2829TIP3    H229979   1.320   1.838   5.198  0.3727  1.0740 -1.6659
 2830TIP3   OH229980   4.802   2.566   1.293  0.2062  0.0782 -0.2848
 2830TIP3    H129981   4.783   2.621   1.217  1.9938  0.4361 -0.5263
 2830TIP3    H229982   4.773   2.478   1.267 -0.8647  0.5329 -0.6640
 2831TIP3   OH229983   3.025   1.014  16.622  0.2418  0.0716  0.2061
 2831TIP3    H129984   2.981   1.036  16.540 -0.6057 -1.5354  0.1951
 2831TIP3    H229985   2.970   1.054  16.690 -0.4992 -0.7895  0.1191
 2832TIP3   OH229986   2.293   4.064   0.269  0.3336 -0.0454 -0.5855
 2832TIP3    H129987   2.241   4.047   0.190  0.4559  0.3232 -0.7499
 2832TIP3    H229988   2.233   4.047   0.341 -0.0560  0.5056 -0.7758
 2833TIP3   OH229989   0.014   0.429   0.948  0.1064 -0.0306 -0.2951
 2833TIP3    H129990   0.103   0.461   0.959  0.6107 -1.5359  0.2143
 2833TIP3    H229991  -0.041   0.495   0.990  1.0326  0.5758 -0.0101
 2834TIP3   OH229992   1.207   5.718   5.557  0.4476  0.3671  0.4283
 2834TIP3    H129993   1.159   5.768   5.623 -1.2462 -0.3822 -0.2083
 2834TIP3    H229994   1.236   5.784   5.494  1.4478  0.9907  1.5026
 2835TIP3   OH229995   5.842   1.438  14.652 -0.4976  0.7544 -0.4119
 2835TIP3    H129996   5.889   1.395  14.581  1.7658  1.1167  0.7396
 2835TIP3    H229997   5.799   1.513  14.611  0.7261  0.9354 -1.4392
 2836TIP3   OH229998   3.465   0.762   2.099  0.1531  0.1247 -0.1592
 2836TIP3    H129999   3.466   0.786   2.006 -0.9728  1.5173  0.1477
 2836TIP3    H230000   3.489   0.842   2.145  1.9794 -0.8822  0.7372
 2837TIP3   OH230001   0.849   2.166  11.924 -0.2022 -0.1058  0.5971
 2837TIP3    H130002   0.874   2.092  11.869  0.1110  0.6105 -0.2455
 2837TIP3    H230003   0.802   2.225  11.866 -0.8260  0.1697  1.3580
 2838TIP3   OH230004   6.703   6.591   6.027 -0.0368 -0.0438  0.6802
 2838TIP3    H130005   6.693   6.554   5.940 -0.4405 -0.4702  0.9084
 2838TIP3    H230006   6.641   6.543   6.082 -0.5550  0.9376  0.9890
 2839TIP3   OH230007   2.189   5.441   4.396 -0.7100 -0.4401 -0.4550
 2839TIP3    H130008   2.261   5.458   4.456  0.2028 -0.3344 -1.5597
 2839TIP3    H230009   2.131   5.382   4.445  0.3006 -0.8315  0.3124
 2840TIP3   OH230010   0.426   3.235  12.170 -0.1730  0.4455  0.3626
 2840TIP3    H130011   0.345   3.279  12.145 -0.2846  0.0192 -0.0492
 2840TIP3    H230012   0.494   3.276  12.117 -0.3117 -0.0269 -0.1861
 2841TIP3   OH230013   6.240   4.027   2.610  0.3250 -0.6876 -0.2048
 2841TIP3    H130014   6.226   4.069   2.695 -0.8843 -0.3891 -0.5325
 2841TIP3    H230015   6.165   4.055   2.556 -0.7593 -3.5061 -0.3381
 2842TIP3   OH230016   0.568   2.933   1.230  0.4226 -0.1461 -0.2207
 2842TIP3    H130017   0.661   2.931   1.253  0.8955  0.6269 -1.8927
 2842TIP3    H230018   0.532   2.852   1.267  1.3994  0.2598  1.7599
 2843TIP3   OH230019   5.123   4.013  15.048  0.5472  0.5510  0.3009
 2843TIP3    H130020   5.070   3.933  15.049  1.4384 -0.0623 -0.0682
 2843TIP3    H230021   5.059   4.084  15.051 -0.2914 -0.1690  0.0155
 2844TIP3   OH230022   1.105   2.345   3.420  0.4597 -0.1916 -0.2174
 2844TIP3    H130023   1.038   2.380   3.479  1.2553  1.0666 -0.0136
 2844TIP3    H230024   1.117   2.254   3.449 -0.1170 -0.0007  0.6883
 2845TIP3   OH230025   6.520   2.281   1.931  0.0396  0.3349  0.5975
 2845TIP3    H130026   6.589   2.345   1.910 -0.8184  0.6533 -1.4657
 2845TIP3    H230027   6.540   2.206   1.876  0.0740 -0.5455  1.7740
 2846TIP3   OH230028   0.354   5.943   2.058  0.0961  0.5149  0.3015
 2846TIP3    H130029   0.373   5.950   2.152  0.3002 -2.2269  0.5408
 2846TIP3    H230030   0.422   5.885   2.024 -1.8346 -1.1853 -0.8515
 2847TIP3   OH230031   5.590   2.268   4.901  0.2553  0.1801  0.5342
 2847TIP3    H130032   5.604   2.248   4.809 -0.0673 -2.5104  1.0097
 2847TIP3    H230033   5.668   2.234   4.946 -0.1588  0.3228  1.3921
 2848TIP3   OH230034   2.246   5.241  15.746  0.5027  0.5226 -0.9804
 2848TIP3    H130035   2.184   5.202  15.684  0.8830 -1.3492 -0.2511
 2848TIP3    H230036   2.192   5.266  15.821  0.3943  0.4793 -1.0432
 2849TIP3   OH230037   5.597   4.225   3.152 -0.1169 -0.0239  1.0154
 2849TIP3    H130038   5.583   4.168   3.227 -0.0725  0.7561  1.6181
 2849TIP3    H230039   5.660   4.290   3.182  0.1864  0.0833  0.1914
 2850TIP3   OH230040   3.924   4.076  12.112  0.0436 -0.3658 -0.0075
 2850TIP3    H130041   3.870   4.152  12.130  0.5406  0.0320 -0.1874
 2850TIP3    H230042   3.958   4.048  12.197 -0.4494 -0.6263  0.1078
 2851TIP3   OH230043   6.765   3.640  17.345  0.0943  0.2845 -0.1831
 2851TIP3    H130044   6.802   3.725  17.324 -1.5039  1.3879  1.2187
 2851TIP3    H230045   6.841   3.587  17.372  1.2093  0.9417 -1.8527
 2852TIP3   OH230046   4.355   5.466   2.269 -0.2756  0.2435 -0.3813
 2852TIP3    H130047   4.358   5.399   2.200  1.1504 -1.3614  1.1354
 2852TIP3    H230048   4.446   5.477   2.296 -0.6572  1.7756  0.3995
 2853TIP3   OH230049   0.997   4.506  14.729 -0.3886  0.3007  0.3150
 2853TIP3    H130050   1.053   4.450  14.674 -0.8447  1.4281 -1.3861
 2853TIP3    H230051   0.912   4.505  14.685 -0.6713  1.5408  0.7883
 2854TIP3   OH230052   0.631   1.339   3.680 -0.2291 -0.4563  0.5486
 2854TIP3    H130053   0.652   1.398   3.607 -0.3264  0.0600  0.9352
 2854TIP3    H230054   0.537   1.351   3.694 -0.7570 -2.3976 -0.8614
 2855TIP3   OH230055   0.809   3.578   2.450 -0.3186  0.4220 -0.4306
 2855TIP3    H130056   0.810   3.603   2.358 -0.2523 -1.1515 -0.8868
 2855TIP3    H230057   0.728   3.528   2.461 -1.5701  2.6321  0.9866
 2856TIP3   OH230058   2.964   0.355   5.335 -0.7952  0.3414  0.6766
 2856TIP3    H130059   2.893   0.418   5.328 -1.0595  0.0045  0.1955
 2856TIP3    H230060   3.016   0.369   5.256  1.2028  2.3709  2.2602
 2857TIP3   OH230061   6.705   5.931  13.848  0.4317  0.1285  0.2024
 2857TIP3    H130062   6.689   5.862  13.911  0.7398  1.3650  1.6966
 2857TIP3    H230063   6.800   5.934  13.839  0.4004  0.0993 -0.1551
 2858TIP3   OH230064   5.993   1.280   1.190  0.1299 -0.2027 -0.5398
 2858TIP3    H130065   6.079   1.263   1.151  0.5564  1.3170 -0.3266
 2858TIP3    H230066   5.971   1.369   1.161 -0.7169 -0.0418  0.5561
 2859TIP3   OH230067   0.281   5.980   0.575 -0.0228 -0.3111  0.2423
 2859TIP3    H130068   0.265   5.985   0.481 -0.5810  2.9677  0.3799
 2859TIP3    H230069   0.258   5.891   0.599 -1.8388 -0.6600 -2.3997
 2860TIP3   OH230070   0.845   4.011   4.042 -0.3788 -0.1568  0.4677
 2860TIP3    H130071   0.847   3.993   4.136  0.4270 -2.5121  0.0644
 2860TIP3    H230072   0.934   3.993   4.012 -0.4401  1.2350 -0.6747
 2861TIP3   OH230073   0.870   0.495  10.957 -0.1658  0.5158  0.3102
 2861TIP3    H130074   0.882   0.404  10.986  1.2550  0.5690 -0.0220
 2861TIP3    H230075   0.798   0.490  10.893 -0.9346 -0.1567  1.1902
 2862TIP3   OH230076   2.988   0.994   3.313 -0.1452  0.1645 -0.2481
 2862TIP3    H130077   2.916   0.948   3.269  0.0237 -0.5812  0.2306
 2862TIP3    H230078   3.007   1.068   3.256 -0.3919 -0.3882 -1.0777
 2863TIP3   OH230079   5.266   3.823  12.130 -0.2412  0.0012 -0.1342
 2863TIP3    H130080   5.200   3.803  12.196 -0.4605 -0.0394 -0.3665
 2863TIP3    H230081   5.298   3.911  12.154  0.6208 -0.5406  0.7895
 2864TIP3   OH230082   1.941   5.274  11.896  0.2508  0.6201  0.2879
 2864TIP3    H130083   1.867   5.295  11.839 -0.1881  0.7835  0.9098
 2864TIP3    H230084   1.955   5.354  11.947 -0.6983 -0.1894  1.8641
 2865TIP3   OH230085   1.805   0.668  13.286  0.3543 -0.4992  0.3220
 2865TIP3    H130086   1.790   0.689  13.378  1.2234 -1.7343  0.7739
 2865TIP3    H230087   1.803   0.573  13.282  0.6624 -0.4717 -0.8815
 2866TIP3   OH230088   4.281   4.281  11.476 -0.3721  0.4801 -0.2326
 2866TIP3    H130089   4.309   4.372  11.473 -0.2100  0.4343 -0.1345
 2866TIP3    H230090   4.291   4.249  11.387  0.4262  0.3061 -0.0872
 2867TIP3   OH230091   3.054   2.851  14.612  0.8268 -0.5827  0.1878
 2867TIP3    H130092   3.091   2.841  14.700  0.9708  0.5800  0.2740
 2867TIP3    H230093   3.131   2.850  14.554  0.8424 -0.0788  0.1954
 2868TIP3   OH230094   1.327   2.764  15.986  0.0595  0.4599 -0.0394
 2868TIP3    H130095   1.405   2.819  15.971  0.2204  0.3484  0.3621
 2868TIP3    H230096   1.355   2.701  16.053  0.5515 -1.5225 -2.0126
 2869TIP3   OH230097   6.063   2.848  14.046  0.3715  0.2686  0.2516
 2869TIP3    H130098   6.151   2.875  14.020  0.8305 -0.6608  0.7558
 2869TIP3    H230099   6.075   2.811  14.133 -1.0915  3.1812  1.8291
 2870TIP3   OH230100   2.834   4.876   2.703  0.2388 -0.2429  0.2985
 2870TIP3    H130101   2.844   4.971   2.702  2.1603 -0.4062 -0.2485
 2870TIP3    H230102   2.892   4.847   2.774 -0.4058 -0.9964  0.5251
 2871TIP3   OH230103   4.239   2.329  12.905  0.2510 -0.1175  0.3026
 2871TIP3    H130104   4.266   2.414  12.869  0.7771  0.3381  1.7022
 2871TIP3    H230105   4.205   2.350  12.992 -0.5221 -1.2427  0.2934
 2872TIP3   OH230106   6.116   4.309  14.471 -0.3215  0.4690  0.6738
 2872TIP3    H130107   6.152   4.295  14.558  1.8721 -0.5631 -0.3136
 2872TIP3    H230108   6.156   4.391  14.441 -0.4733  0.4314  0.3634
 2873TIP3   OH230109   6.762   6.046   4.083  0.3119  0.1255  0.1720
 2873TIP3    H130110   6.728   6.128   4.046 -1.6924  0.0472  1.6338
 2873TIP3    H230111   6.689   6.012   4.135  1.1728 -2.4895 -0.1886
 2874TIP3   OH230112   0.097   5.626   4.241 -0.2317  0.0598 -0.8186
 2874TIP3    H130113   0.127   5.650   4.329  1.0506 -2.1387 -0.5838
 2874TIP3    H230114   0.003   5.610   4.251  0.2757 -2.4096  0.7647
 2875TIP3   OH230115   4.998   5.330   6.025  0.0251  0.3778  0.1805
 2875TIP3    H130116   4.986   5.250   5.973  0.6197  0.9089 -0.8099
 2875TIP3    H230117   4.910   5.354   6.052 -0.0513 -1.3281  1.6376
 2876TIP3   OH230118   1.657   4.096  13.417  0.0606 -0.6656 -0.4470
 2876TIP3    H130119   1.601   4.135  13.350 -1.1093  0.1207  0.9327
 2876TIP3    H230120   1.652   4.002  13.401 -3.6572 -0.8767  1.0074
 2877TIP3   OH230121   2.876   3.507   3.476 -0.3044  0.1715  0.0814
 2877TIP3    H130122   2.936   3.432   3.483 -1.6514 -0.9650 -0.0009
 2877TIP3    H230123   2.928   3.582   3.503  1.2874 -0.6974 -0.4214
 2878TIP3   OH230124   0.853   0.342  15.593  0.2290  0.0971 -0.3315
 2878TIP3    H130125   0.760   0.325  15.608  0.1139 -0.9743 -1.9758
 2878TIP3    H230126   0.898   0.269  15.636  0.3107  0.4299  0.1639
 2879TIP3   OH230127   2.754   6.595   3.529  0.0716 -0.2145  0.1643
 2879TIP3    H130128   2.797   6.627   3.608  0.5066  2.4921 -1.0355
 2879TIP3    H230129   2.678   6.653   3.519 -0.4417 -1.0471 -0.9477
 2880TIP3   OH230130   5.307   1.957   2.713 -0.3880 -0.8061  0.4313
 2880TIP3    H130131   5.229   1.925   2.668 -0.0620 -1.4091  0.2983
 2880TIP3    H230132   5.378   1.899   2.685  0.1720 -0.0828  0.3257
 2881TIP3   OH230133   2.441   2.032   4.099 -0.7500 -0.2261 -0.4150
 2881TIP3    H130134   2.515   2.068   4.050 -0.4406 -1.1666 -0.6683
 2881TIP3    H230135   2.389   2.108   4.124  0.7736  0.5485  0.5749
 2882TIP3   OH230136   2.562   2.619  16.050  0.2636  0.1691  0.0707
 2882TIP3    H130137   2.597   2.668  15.976 -1.6950  0.5946 -0.6500
 2882TIP3    H230138   2.554   2.683  16.120 -0.4522  0.4350 -0.2454
 2883TIP3   OH230139   4.941   2.407  15.455 -0.0239  0.1645 -0.0870
 2883TIP3    H130140   5.020   2.354  15.464 -0.3203 -0.3527 -0.5204
 2883TIP3    H230141   4.908   2.415  15.544  0.5344  0.4148  0.1036
 2884TIP3   OH230142   2.325   5.084  16.628  0.5134 -0.3156  0.2389
 2884TIP3    H130143   2.334   5.177  16.646  0.6718 -0.3513  0.3505
 2884TIP3    H230144   2.246   5.077  16.576  1.2177  0.0495 -0.9309
 2885TIP3   OH230145   3.631   3.442   4.371 -0.7890 -0.4736 -0.0410
 2885TIP3    H130146   3.720   3.409   4.355 -0.1078  0.6404  1.2634
 2885TIP3    H230147   3.641   3.507   4.441 -2.7249 -0.7335  0.5409
 2886TIP3   OH230148   3.442   6.364  12.241 -0.0298 -0.2985 -0.3533
 2886TIP3    H130149   3.390   6.435  12.203  0.3896  1.3806  1.9881
 2886TIP3    H230150   3.395   6.284  12.216 -2.2240  0.9814 -0.5511
 2887TIP3   OH230151   6.694   0.883   0.512  0.4457 -0.8569  0.0837
 2887TIP3    H130152   6.768   0.842   0.468  1.1848  1.3147 -0.8305
 2887TIP3    H230153   6.733   0.956   0.561 -1.1310  0.7797 -0.9967
 2888TIP3   OH230154   0.730   3.714   5.423 -0.0680  0.0197 -0.1547
 2888TIP3    H130155   0.721   3.803   5.458  1.9179 -0.0041  0.5351
 2888TIP3    H230156   0.741   3.659   5.501 -1.1934 -0.8580 -0.5788
 2889TIP3   OH230157   4.328   5.485   0.135 -0.7692  0.1534  0.2729
 2889TIP3    H130158   4.279   5.494   0.218 -2.2091 -0.4544 -0.4650
 2889TIP3    H230159   4.275   5.424   0.083  1.0637 -0.9364 -0.4085
 2890TIP3   OH230160   5.480   0.263  17.294  0.3661 -0.2745 -0.4503
 2890TIP3    H130161   5.486   0.326  17.365  0.6712 -0.3498 -0.4075
 2890TIP3    H230162   5.565   0.269  17.249 -1.0908  2.5683 -3.2208
 2891TIP3   OH230163   3.658   6.645   4.120  0.0251 -0.5500  0.5725
 2891TIP3    H130164   3.588   6.588   4.087  0.3649 -1.1387  0.8593
 2891TIP3    H230165   3.699   6.595   4.190  0.0110  0.2551  1.1671
 2892TIP3   OH230166   4.551   3.530   3.838  0.4214  0.1047 -0.0172
 2892TIP3    H130167   4.502   3.592   3.892  0.9037 -0.2193  0.8148
 2892TIP3    H230168   4.547   3.448   3.887 -0.1288 -0.5059 -1.0632
 2893TIP3   OH230169   6.426   1.225   4.916  0.2779 -0.1580 -0.0852
 2893TIP3    H130170   6.476   1.167   4.858 -0.2921 -0.4202 -0.3344
 2893TIP3    H230171   6.385   1.288   4.857  0.8780  0.4912  0.1860
 2894TIP3   OH230172   5.687   0.665   5.104  0.1705 -0.2919 -0.1929
 2894TIP3    H130173   5.609   0.620   5.072 -1.4868  1.4180  1.2068
 2894TIP3    H230174   5.654   0.727   5.168  2.8844 -0.6904  1.7657
 2895TIP3   OH230175   1.292   6.360   3.000  0.7447 -0.3706  0.0106
 2895TIP3    H130176   1.373   6.331   2.957 -0.7126 -0.9911 -2.5392
 2895TIP3    H230177   1.307   6.453   3.018  1.7857 -0.3046 -1.0255
 2896TIP3   OH230178   4.550   1.354   1.152 -0.0678 -0.3111  0.1000
 2896TIP3    H130179   4.474   1.333   1.098 -2.3361  1.8905  2.1488
 2896TIP3    H230180   4.553   1.285   1.218 -0.7599 -0.0663  0.4014
 2897TIP3   OH230181   6.060   1.060  12.378  0.1414  0.4470  0.0606
 2897TIP3    H130182   6.141   1.035  12.422  2.3371  1.5618 -3.0429
 2897TIP3    H230183   6.041   1.148  12.412  0.3086  0.2610  0.6522
 2898TIP3   OH230184   4.948   1.083  13.595  0.3587 -0.6600  0.5285
 2898TIP3    H130185   4.928   1.176  13.609  2.5712  0.3458 -2.0623
 2898TIP3    H230186   5.040   1.074  13.622 -0.1416 -2.4633  1.8547
 2899TIP3   OH230187   2.691   4.070  13.662 -0.0034 -0.1898  0.3038
 2899TIP3    H130188   2.613   4.125  13.673 -0.5794 -1.1009  0.9307
 2899TIP3    H230189   2.721   4.088  13.573 -1.1879 -0.1433 -0.1001
 2900TIP3   OH230190   1.153   2.381  13.726 -0.1196 -0.6389  0.0673
 2900TIP3    H130191   1.134   2.332  13.646 -1.3550 -3.4534  1.9280
 2900TIP3    H230192   1.231   2.340  13.762  1.6850  1.9741 -0.6365
 2901TIP3   OH230193   5.050   5.783   2.872  0.5943 -0.2471 -0.7537
 2901TIP3    H130194   5.021   5.860   2.921 -0.4378 -0.0694 -1.6023
 2901TIP3    H230195   5.144   5.777   2.890  1.4838  3.2147 -3.2660
 2902TIP3   OH230196   3.530   4.334  15.677 -0.1952 -0.1042 -0.5321
 2902TIP3    H130197   3.463   4.267  15.687 -0.0816 -0.2712 -0.8736
 2902TIP3    H230198   3.497   4.392  15.609 -0.2016  0.0763 -0.3776
 2903TIP3   OH230199   0.894   3.093   3.493 -0.1814 -0.6578  0.0564
 2903TIP3    H130200   0.889   3.059   3.583  1.3123 -0.9376  0.0581
 2903TIP3    H230201   0.897   3.188   3.504 -0.3538 -0.6783  0.2887
 2904TIP3   OH230202   1.550   3.153  13.513 -0.0231 -0.1015  0.0269
 2904TIP3    H130203   1.564   3.242  13.544  1.7018  0.1050 -1.1686
 2904TIP3    H230204   1.485   3.116  13.573  1.7386  0.8491  2.7072
 2905TIP3   OH230205   6.337   1.470   1.692 -0.4422 -0.9775 -0.8809
 2905TIP3    H130206   6.373   1.494   1.777 -2.6117  0.6004 -0.3234
 2905TIP3    H230207   6.378   1.386   1.671 -1.8490 -2.8812  3.0504
 2906TIP3   OH230208   2.035   3.307  14.577  0.1820  0.1594 -0.0259
 2906TIP3    H130209   2.106   3.245  14.563 -0.7112 -0.7258 -0.7936
 2906TIP3    H230210   2.015   3.301  14.670 -0.1600 -1.0064 -0.1657
 2907TIP3   OH230211   5.655   1.501  15.626  0.1108  0.1918  0.0049
 2907TIP3    H130212   5.675   1.450  15.705 -2.3409 -0.1243  0.4977
 2907TIP3    H230213   5.643   1.435  15.558  1.8575  0.4480 -0.6191
 2908TIP3   OH230214   4.825   4.410   5.007  0.1070 -0.0859  0.2887
 2908TIP3    H130215   4.920   4.417   5.003  0.0235  2.9616  0.8926
 2908TIP3    H230216   4.797   4.425   4.916  0.1823  1.6947  0.5229
 2909TIP3   OH230217   4.657   6.225   5.152 -0.0186 -0.0754 -0.7014
 2909TIP3    H130218   4.622   6.246   5.065  0.8453 -0.0082 -1.0435
 2909TIP3    H230219   4.737   6.278   5.159  0.6699 -1.1274 -0.4290
 2910TIP3   OH230220   5.381   6.615   0.824 -0.0232 -0.4342  0.2539
 2910TIP3    H130221   5.290   6.597   0.850 -0.3650  0.7860 -0.0515
 2910TIP3    H230222   5.407   6.689   0.879  0.5556 -0.3236 -0.1673
 2911TIP3   OH230223   1.731   5.807  16.759 -0.2148 -0.2877  0.4850
 2911TIP3    H130224   1.807   5.751  16.743 -2.1580 -3.0041  0.0862
 2911TIP3    H230225   1.691   5.818  16.673 -1.2381 -0.4214  0.9295
 2912TIP3   OH230226   5.144   5.728   3.420  0.1923 -0.6356  0.4303
 2912TIP3    H130227   5.122   5.682   3.339 -0.0900 -0.1625  0.2411
 2912TIP3    H230228   5.224   5.777   3.399 -0.5921  0.5170  0.0418
 2913TIP3   OH230229   2.959   4.304   2.206 -0.0336 -0.2759  0.0853
 2913TIP3    H130230   3.033   4.328   2.150 -0.4976  3.3516  0.7693
 2913TIP3    H230231   2.997   4.245   2.272  1.7822 -0.0645 -0.7138
 2914TIP3   OH230232   1.234   2.842   2.133 -0.1349 -0.1697  0.0411
 2914TIP3    H130233   1.269   2.924   2.098 -1.9237  0.5936 -0.0818
 2914TIP3    H230234   1.265   2.839   2.223  1.3762 -0.2550 -0.4544
 2915TIP3   OH230235   3.099   0.628  14.265  0.0778 -0.0098  0.0741
 2915TIP3    H130236   3.151   0.686  14.320  1.0684 -0.7912 -0.0178
 2915TIP3    H230237   3.013   0.624  14.309  0.3687  0.5844  0.7137
 2916TIP3   OH230238   6.687   6.747   5.608  0.3700 -0.0155 -0.7118
 2916TIP3    H130239   6.679   6.662   5.651  1.2632  0.1180 -0.2662
 2916TIP3    H230240   6.623   6.803   5.651 -0.8253 -0.6816 -1.5822
 2917TIP3   OH230241   1.713   4.162   5.894 -1.1970 -0.1896 -0.1793
 2917TIP3    H130242   1.776   4.115   5.948 -1.1628 -0.8916 -0.8163
 2917TIP3    H230243   1.686   4.237   5.948  1.9094  1.4730 -0.7478
 2918TIP3   OH230244   5.930   0.056  14.819 -0.0354  0.8007  0.1409
 2918TIP3    H130245   5.992   0.025  14.753 -0.2127  1.5468 -0.3804
 2918TIP3    H230246   5.846   0.057  14.775 -0.1709  1.2292  0.4044
 2919TIP3   OH230247   4.336   2.996   5.679 -0.8593  0.3623  0.0104
 2919TIP3    H130248   4.257   2.999   5.626 -1.4465  0.7102  0.8742
 2919TIP3    H230249   4.399   2.947   5.626  0.1520  4.4562 -3.0373
 2920TIP3   OH230250   1.224   0.513   1.311 -0.0669 -0.2955  0.3691
 2920TIP3    H130251   1.317   0.527   1.296  0.1847  0.5231  2.4000
 2920TIP3    H230252   1.183   0.528   1.225  1.8559 -3.2362 -1.2196
 2921TIP3   OH230253   0.502   3.932  14.951 -0.0282 -0.2570 -0.7418
 2921TIP3    H130254   0.487   3.841  14.926 -0.5286 -0.0214 -1.3195
 2921TIP3    H230255   0.473   3.983  14.875  0.3340  0.3775 -0.4585
 2922TIP3   OH230256   2.623   4.187   6.358  0.3384  0.1898  0.7896
 2922TIP3    H130257   2.714   4.158   6.363  0.5366  0.3796 -0.9612
 2922TIP3    H230258   2.620   4.269   6.408  1.3903  0.7310 -0.0086
 2923TIP3   OH230259   0.456   3.002  11.419  0.1493  0.2836  0.5485
 2923TIP3    H130260   0.361   2.990  11.427  0.0566  0.4363 -0.3015
 2923TIP3    H230261   0.484   3.027  11.507 -0.7575  1.2832  0.5657
 2924TIP3   OH230262   1.909   6.699   0.875 -0.7300  0.3832  0.2614
 2924TIP3    H130263   1.877   6.750   0.801 -0.5959  0.0367 -0.0355
 2924TIP3    H230264   1.866   6.738   0.951 -1.4734  0.2336 -0.0790
 2925TIP3   OH230265   6.259   0.240  15.105  0.4289 -0.2754  0.2932
 2925TIP3    H130266   6.171   0.211  15.085  0.3672 -1.1539  1.6626
 2925TIP3    H230267   6.314   0.203  15.035 -0.0656 -1.1765  0.3698
 2926TIP3   OH230268   1.140   0.948  13.636 -0.0508 -0.6314 -0.2355
 2926TIP3    H130269   1.163   0.874  13.692  0.9174  0.1314  0.3918
 2926TIP3    H230270   1.070   0.914  13.579  0.1312 -1.9108  0.2808
 2927TIP3   OH230271   0.928   4.226   0.169 -0.0168  0.4190  0.2015
 2927TIP3    H130272   0.866   4.153   0.177 -0.2589  0.6406  0.3757
 2927TIP3    H230273   0.876   4.297   0.131  0.6080  0.0275 -1.4761
 2928TIP3   OH230274   0.361   1.153   5.169  0.2249  0.3616 -0.9051
 2928TIP3    H130275   0.413   1.088   5.217  0.7718  0.7345 -0.9871
 2928TIP3    H230276   0.280   1.106   5.147 -0.7885  0.6323  1.7735
 2929TIP3   OH230277   0.546   0.497  12.466 -0.2609 -0.2347 -0.2204
 2929TIP3    H130278   0.553   0.574  12.523  1.2750 -1.1286  0.8858
 2929TIP3    H230279   0.454   0.472  12.470 -0.8735  1.7354 -0.8991
 2930TIP3   OH230280   0.714   0.717   5.653 -0.2131 -0.0534  0.4306
 2930TIP3    H130281   0.794   0.717   5.601  0.0851 -0.1626  0.8848
 2930TIP3    H230282   0.735   0.769   5.730 -0.0801 -1.3610  1.3006
 2931TIP3   OH230283   1.179   1.285   1.269  0.2200  0.3173  0.2679
 2931TIP3    H130284   1.174   1.230   1.192  3.2985  2.0861 -1.3902
 2931TIP3    H230285   1.149   1.230   1.341 -1.7417 -1.7374 -1.9840
 2932TIP3   OH230286   1.338   3.068   2.243  0.3508 -0.3563  0.0034
 2932TIP3    H130287   1.282   3.026   2.308 -0.8048  2.5400  1.0219
 2932TIP3    H230288   1.390   3.131   2.292  0.0283  1.3447 -1.7042
 2933TIP3   OH230289   2.984   3.261  13.220 -0.3852  0.1150  0.0345
 2933TIP3    H130290   3.012   3.325  13.286  0.8478 -1.1079  0.7446
 2933TIP3    H230291   2.900   3.229  13.252 -1.1669  1.5511 -0.4794
 2934TIP3   OH230292   5.210   2.643  17.003  0.5234 -0.4064 -0.1433
 2934TIP3    H130293   5.259   2.567  17.037  2.6254  0.6770 -0.5890
 2934TIP3    H230294   5.216   2.708  17.072 -1.7036 -0.7378  0.4428
 2935TIP3   OH230295   5.973   2.766  14.564  0.3479 -0.1777  0.1005
 2935TIP3    H130296   5.887   2.726  14.550  0.4782 -0.1713 -0.8082
 2935TIP3    H230297   5.993   2.750  14.656 -0.3788 -0.6687  0.1799
 2936TIP3   OH230298   1.306   2.985  14.580 -0.1987  0.2944 -0.5439
 2936TIP3    H130299   1.296   2.945  14.667 -1.5299  1.5062 -0.0836
 2936TIP3    H230300   1.281   3.077  14.594  1.7680  1.0806 -1.7523
 2937TIP3   OH230301   0.818   3.012  12.438 -0.2992 -0.3280 -0.2066
 2937TIP3    H130302   0.811   2.917  12.440 -1.1790 -0.2914  2.2407
 2937TIP3    H230303   0.767   3.039  12.362  2.6799 -1.8767 -2.9888
 2938TIP3   OH230304   2.065   3.103   3.328  0.6489  0.2125 -0.5557
 2938TIP3    H130305   2.135   3.043   3.354 -0.0282 -0.0474  0.7631
 2938TIP3    H230306   2.092   3.136   3.243  2.0943 -0.3142 -0.3268
 2939TIP3   OH230307   2.830   2.803  14.116 -0.3132  0.3662 -0.1708
 2939TIP3    H130308   2.768   2.799  14.188 -0.6394  2.2497 -0.2990
 2939TIP3    H230309   2.806   2.731  14.058 -1.6970  0.4248  0.3145
 2940TIP3   OH230310   0.389   1.016   6.492 -0.2406  0.1360 -0.7333
 2940TIP3    H130311   0.411   1.035   6.583 -0.5101  1.3748 -0.9081
 2940TIP3    H230312   0.432   1.086   6.442 -0.8521  0.0028 -1.4668
 2941TIP3   OH230313   0.550   5.048  16.317  0.1773 -0.3952  0.2534
 2941TIP3    H130314   0.529   4.977  16.256  1.9888 -0.1626 -0.7204
 2941TIP3    H230315   0.635   5.080  16.288  0.6327  0.4265  2.3180
 2942TIP3   OH230316   3.595   5.924   2.981 -0.0535  0.0017  0.6880
 2942TIP3    H130317   3.542   5.996   3.014  1.2656  0.3089  2.2854
 2942TIP3    H230318   3.533   5.867   2.936 -1.7652  0.2997  2.5353
 2943TIP3   OH230319   1.640   5.864  13.458  0.6526  0.6096  0.3377
 2943TIP3    H130320   1.720   5.814  13.444 -0.1352 -0.4440 -0.6182
 2943TIP3    H230321   1.634   5.923  13.382  0.2063  0.2328  0.0744
 2944TIP3   OH230322   1.083   3.600   3.710  0.6060 -0.4566 -0.0861
 2944TIP3    H130323   1.096   3.524   3.654  0.8286 -1.8003  1.7146
 2944TIP3    H230324   1.145   3.588   3.782 -1.5146 -0.2567  1.8912
 2945TIP3   OH230325   4.394   3.628   0.461 -0.5245  0.0860 -0.0881
 2945TIP3    H130326   4.344   3.709   0.472 -1.9829 -0.8158  0.1956
 2945TIP3    H230327   4.376   3.602   0.371 -2.5082 -1.4323  0.6711
 2946TIP3   OH230328   1.244   2.339  11.136  0.8227  0.2876  0.1796
 2946TIP3    H130329   1.228   2.356  11.229 -2.1186 -1.5647  0.1526
 2946TIP3    H230330   1.207   2.415  11.092 -0.4128 -0.1118  0.4776
 2947TIP3   OH230331   4.569   6.212   3.457  0.1680 -0.5830 -0.3874
 2947TIP3    H130332   4.655   6.247   3.478  1.9687 -4.5069 -0.2167
 2947TIP3    H230333   4.524   6.206   3.541 -0.7431  2.2657 -0.5798
 2948TIP3   OH230334   4.170   5.500   3.882  0.4533 -0.3924 -0.3508
 2948TIP3    H130335   4.245   5.507   3.942  0.0078 -0.6638  0.2474
 2948TIP3    H230336   4.199   5.545   3.803  0.5917  1.1602  0.5253
 2949TIP3   OH230337   3.590   1.098   4.311 -0.6671  0.2586  0.1567
 2949TIP3    H130338   3.599   1.184   4.270  1.0370  1.4428  2.7753
 2949TIP3    H230339   3.680   1.072   4.331 -1.3179 -1.0118  1.5879
 2950TIP3   OH230340   5.937   1.235   2.387 -0.4449  0.4417  0.2760
 2950TIP3    H130341   5.870   1.176   2.353 -1.2727  1.9980 -0.9851
 2950TIP3    H230342   6.015   1.216   2.333 -1.1142  1.3916 -1.0978
 2951TIP3   OH230343   3.234   5.859  15.788 -0.4561 -0.1205  0.3192
 2951TIP3    H130344   3.293   5.893  15.720  1.0850 -0.2786  1.5123
 2951TIP3    H230345   3.250   5.916  15.864 -0.4299 -1.3378  1.2573
 2952TIP3   OH230346   6.611   5.322  15.559 -0.7352 -0.2975 -0.2371
 2952TIP3    H130347   6.609   5.375  15.638  0.8525  0.2217 -0.5152
 2952TIP3    H230348   6.558   5.371  15.496 -0.9331 -0.0639  0.1071
 2953TIP3   OH230349   3.841   3.949   1.227  0.1542 -0.2240  0.5339
 2953TIP3    H130350   3.847   3.874   1.168  0.5636 -0.9336  1.4458
 2953TIP3    H230351   3.910   3.934   1.291  0.0376  0.7845  0.9183
 2954TIP3   OH230352   2.470   3.656  14.360  0.0892 -0.2097  0.3689
 2954TIP3    H130353   2.474   3.742  14.318 -0.0393 -0.4915 -0.2351
 2954TIP3    H230354   2.552   3.614  14.335 -0.7050 -1.0208 -1.0530
 2955TIP3   OH230355   4.380   6.380   0.868 -0.1556  0.1728 -0.2176
 2955TIP3    H130356   4.340   6.459   0.904  1.8198  1.1734 -0.0797
 2955TIP3    H230357   4.312   6.341   0.813 -1.7929  0.9356  1.1900
 2956TIP3   OH230358   0.815   2.595   0.205  0.6837 -0.3689  0.3635
 2956TIP3    H130359   0.889   2.581   0.265 -2.0399 -0.5725  3.9667
 2956TIP3    H230360   0.788   2.685   0.220  0.9467  0.1708 -1.9791
 2957TIP3   OH230361   2.271   3.743  12.818 -0.2492  0.1416 -0.2669
 2957TIP3    H130362   2.366   3.739  12.813 -0.1871  1.7409 -0.6203
 2957TIP3    H230363   2.242   3.654  12.795  1.0994 -0.0690 -1.2133
 2958TIP3   OH230364   3.332   4.870   0.302  0.0496  0.2740 -0.0954
 2958TIP3    H130365   3.269   4.912   0.244  0.2349 -0.2015 -0.6360
 2958TIP3    H230366   3.287   4.793   0.337  0.1787  0.1778 -0.1397
 2959TIP3   OH230367   0.280   0.201   0.493 -0.9108  0.1344  0.0609
 2959TIP3    H130368   0.218   0.145   0.539  0.6856 -3.2825 -1.5407
 2959TIP3    H230369   0.345   0.226   0.559 -1.5127 -0.1376  0.7557
 2960TIP3   OH230370   2.407   2.171  10.623 -0.0915 -0.6595  0.0516
 2960TIP3    H130371   2.332   2.142  10.674 -0.8725  0.3693 -0.4625
 2960TIP3    H230372   2.370   2.230  10.557  1.2651  0.7433  0.4572
 2961TIP3   OH230373   2.000   3.533  14.108 -0.2363 -0.5915  0.5377
 2961TIP3    H130374   1.957   3.594  14.168 -2.3772 -1.4487 -0.0251
 2961TIP3    H230375   2.084   3.512  14.151  0.2362  2.0975  1.0862
 2962TIP3   OH230376   4.959   1.979  17.021  0.0839  0.2972 -0.0226
 2962TIP3    H130377   5.035   2.015  17.067 -0.1954  1.0318 -0.1200
 2962TIP3    H230378   4.980   1.887  17.008  1.9447  0.9385 -2.0331
 2963TIP3   OH230379   5.010   3.162   0.551 -0.0010 -0.3564  0.0678
 2963TIP3    H130380   5.084   3.216   0.581  0.1999 -1.3550  1.4945
 2963TIP3    H230381   4.934   3.199   0.595 -0.3057  0.3930 -1.0526
 2964TIP3   OH230382   2.512   6.257  11.857 -0.1448  0.4336  0.1834
 2964TIP3    H130383   2.439   6.313  11.882  0.0975  0.5007  0.7543
 2964TIP3    H230384   2.587   6.291  11.905  0.2509  0.3149 -0.3359
 2965TIP3   OH230385   1.466   1.459   6.434 -0.2417  0.5924  0.8641
 2965TIP3    H130386   1.470   1.517   6.510 -0.7972  1.6959  0.0745
 2965TIP3    H230387   1.392   1.402   6.451 -0.1516  0.6065  1.3063
 2966TIP3   OH230388   1.909   5.612   0.850 -0.3591 -0.4279 -0.1593
 2966TIP3    H130389   1.919   5.705   0.828 -0.1654 -0.8802 -2.2035
 2966TIP3    H230390   1.822   5.605   0.887 -0.2670  0.6069  0.2830
 2967TIP3   OH230391   2.536   5.953  12.617  0.5095  0.1425 -0.2018
 2967TIP3    H130392   2.624   5.978  12.646  0.3327 -0.0397  0.5018
 2967TIP3    H230393   2.498   5.907  12.692  0.6369 -1.7642 -1.2354
 2968TIP3   OH230394   6.369   1.961  12.967  0.7934  0.4178 -0.5700
 2968TIP3    H130395   6.345   1.924  12.883  0.3801 -0.3143 -0.1420
 2968TIP3    H230396   6.363   1.888  13.029 -0.5422  1.2958  0.3938
 2969TIP3   OH230397   2.344   1.844  10.938  0.3513 -0.1741 -0.0093
 2969TIP3    H130398   2.415   1.907  10.945  1.0233 -0.8546 -0.5445
 2969TIP3    H230399   2.272   1.893  10.900  0.4191  0.6065  0.8405
 2970TIP3   OH230400   2.209   1.345  11.200 -0.1179  0.2723 -0.6397
 2970TIP3    H130401   2.183   1.424  11.154 -1.7968  0.7657  1.0051
 2970TIP3    H230402   2.163   1.274  11.155 -1.8434  0.7625  0.2578
 2971TIP3   OH230403   0.619   5.497   0.925 -0.0389 -0.4462  0.5196
 2971TIP3    H130404   0.621   5.434   0.997 -0.7858 -0.4834  0.5108
 2971TIP3    H230405   0.560   5.566   0.954 -0.0513 -0.2753  0.0993
 2972TIP3   OH230406   5.649   4.990  13.994  0.0348 -0.1076 -0.0293
 2972TIP3    H130407   5.705   5.050  14.043  0.1271  2.3729 -2.8502
 2972TIP3    H230408   5.559   5.016  14.017  0.0672 -0.4590  0.4915
 2973TIP3   OH230409   5.756   3.441   5.707 -0.2676 -0.2088 -0.1138
 2973TIP3    H130410   5.665   3.430   5.734 -0.7488 -1.7493 -2.1452
 2973TIP3    H230411   5.793   3.502   5.771 -3.3250  2.3085 -0.4883
 2974TIP3   OH230412   1.575   0.798   5.864  0.1820 -0.2032 -0.2329
 2974TIP3    H130413   1.531   0.828   5.943 -1.1691 -0.8872 -0.6900
 2974TIP3    H230414   1.543   0.857   5.795  2.8038  1.6172 -0.0160
 2975TIP3   OH230415   3.777   3.079   5.793 -0.4112  0.7730  0.3194
 2975TIP3    H130416   3.870   3.097   5.807 -0.4740  1.1386  0.2643
 2975TIP3    H230417   3.769   2.984   5.802 -0.1980  0.8411  1.3619
 2976TIP3   OH230418   5.651   0.993   6.381 -0.4078  0.3700 -0.2482
 2976TIP3    H130419   5.571   0.948   6.407 -0.7933  0.2308 -1.5924
 2976TIP3    H230420   5.701   1.003   6.462 -1.4435 -0.2153  0.4812
 2977TIP3   OH230421   1.007   6.325  17.266 -0.9526  0.5166 -0.0307
 2977TIP3    H130422   1.077   6.262  17.249  0.0739  1.7108 -0.3922
 2977TIP3    H230423   0.995   6.323  17.361  1.4188  2.1212  0.4005
 2978TIP3   OH230424   1.320   5.011   5.706 -0.1710 -0.3370 -0.5967
 2978TIP3    H130425   1.251   4.974   5.761 -1.2745  2.0424 -0.2472
 2978TIP3    H230426   1.273   5.059   5.638  1.0699  1.7962 -0.0446
 2979TIP3   OH230427   0.230   6.343   5.267  0.2302  0.2869 -0.6275
 2979TIP3    H130428   0.227   6.280   5.339 -1.6662  1.7799  0.7167
 2979TIP3    H230429   0.173   6.306   5.200  0.8062 -0.4187 -0.7273
 2980TIP3   OH230430   5.383   3.785   0.282  0.4906  0.2562  0.2084
 2980TIP3    H130431   5.478   3.785   0.284  0.5048  2.0706  1.2531
 2980TIP3    H230432   5.357   3.872   0.314 -1.4917  0.3010 -1.2918
 2981TIP3   OH230433   1.476   5.571  10.480 -0.0303 -0.4303 -0.0399
 2981TIP3    H130434   1.384   5.563  10.456  0.3147 -0.0236 -1.6295
 2981TIP3    H230435   1.509   5.642  10.425  1.0332  0.0399  1.1540
 2982TIP3   OH230436   5.681   4.051  11.992  0.2728 -0.1194  0.1161
 2982TIP3    H130437   5.594   4.014  12.004 -0.9247  2.5111  0.0391
 2982TIP3    H230438   5.718   4.002  11.918 -2.3432  0.6752 -1.8464
 2983TIP3   OH230439   0.346   3.393  16.649  0.0212  0.7791  0.2710
 2983TIP3    H130440   0.439   3.396  16.670 -0.1845 -0.0196  1.4432
 2983TIP3    H230441   0.342   3.373  16.556  1.0077  3.1705 -0.3453
 2984TIP3   OH230442   2.057   6.182  12.606 -0.1806  0.3036  0.3037
 2984TIP3    H130443   2.039   6.143  12.521  2.6171 -0.2709 -0.1219
 2984TIP3    H230444   2.067   6.276  12.588  1.2619  0.0827 -0.2460
 2985TIP3   OH230445   3.025   3.518  14.724  0.0259  0.0416  0.2749
 2985TIP3    H130446   3.022   3.469  14.642 -2.6203 -2.5141  1.7267
 2985TIP3    H230447   2.935   3.544  14.740  0.5768  0.9894  2.1467
 2986TIP3   OH230448   4.800   0.050  16.350  0.7292  0.0175 -0.2073
 2986TIP3    H130449   4.736  -0.007  16.308  0.1749 -0.8653  1.7216
 2986TIP3    H230450   4.884   0.004  16.340  0.5695 -0.2909 -0.1356
 2987TIP3   OH230451   3.280   5.839  12.683 -0.1302  0.0014  0.8017
 2987TIP3    H130452   3.345   5.879  12.626  0.0721 -0.2549  0.8474
 2987TIP3    H230453   3.324   5.762  12.720 -0.4373 -0.1428  0.8790
 2988TIP3   OH230454   2.630   0.657  16.164 -0.1370  0.0079 -0.0998
 2988TIP3    H130455   2.715   0.686  16.198 -1.3180  2.5167  0.9656
 2988TIP3    H230456   2.649   0.627  16.075  1.8157  0.8527 -0.0348
 2989TIP3   OH230457   1.959   1.852  16.619  0.1547  0.4789 -0.6217
 2989TIP3    H130458   2.044   1.887  16.593  0.2003  0.3022 -0.7138
 2989TIP3    H230459   1.978   1.765  16.653  0.0080  0.4354 -0.6505
 2990TIP3   OH230460   5.516   2.470   0.586  0.0892 -0.2849  0.1207
 2990TIP3    H130461   5.518   2.381   0.621 -5.7435 -1.0802 -0.5934
 2990TIP3    H230462   5.483   2.524   0.658 -2.5429 -0.0640 -1.1352
 2991TIP3   OH230463   0.959   5.310   1.389  0.2145  0.0777 -0.5079
 2991TIP3    H130464   1.045   5.332   1.354  1.2081 -1.1746  0.9930
 2991TIP3    H230465   0.965   5.330   1.482 -0.7583 -0.9887 -0.1907
 2992TIP3   OH230466   3.960   6.275   4.316  0.1149 -0.2277 -0.5501
 2992TIP3    H130467   3.914   6.257   4.398 -1.4455  1.1562 -1.0786
 2992TIP3    H230468   3.909   6.229   4.249  2.1031 -2.4445 -0.6753
 2993TIP3   OH230469   0.973   3.623   3.108  0.3394 -0.2690 -0.4244
 2993TIP3    H130470   1.060   3.632   3.145  0.0782 -0.6029  0.3003
 2993TIP3    H230471   0.980   3.658   3.019  0.8300  1.1244  0.1511
 2994TIP3   OH230472   2.474   2.682   5.207  0.4309  0.3577  0.1992
 2994TIP3    H130473   2.551   2.736   5.223  0.4547 -0.0743  1.7383
 2994TIP3    H230474   2.419   2.696   5.284 -0.2350 -0.6577 -0.0709
 2995TIP3   OH230475   2.484   0.572   5.276  0.2294  0.0865  0.3960
 2995TIP3    H130476   2.439   0.609   5.352 -0.5059  0.7276 -0.3343
 2995TIP3    H230477   2.455   0.625   5.202  0.6637 -0.7425 -0.3952
 2996TIP3   OH230478   4.123   1.225  11.530 -0.2330 -0.0789 -0.1071
 2996TIP3    H130479   4.029   1.243  11.529 -0.9463 -3.2610 -1.1127
 2996TIP3    H230480   4.133   1.152  11.590  1.6042  0.0250 -0.2118
 2997TIP3   OH230481   5.864   1.757   3.143  0.1953 -0.2397  0.3399
 2997TIP3    H130482   5.899   1.845   3.151 -0.3398 -0.0555  0.7265
 2997TIP3    H230483   5.796   1.752   3.211  1.1249 -1.3990  1.2192
 2998TIP3   OH230484   3.976   4.355   1.773 -0.3025  0.0683  0.2111
 2998TIP3    H130485   3.931   4.437   1.794  0.8585  0.8405 -0.2211
 2998TIP3    H230486   4.043   4.347   1.840 -0.3407 -0.4909  0.1884
 2999TIP3   OH230487   4.879   0.928   1.980  0.0641  0.2311 -0.5141
 2999TIP3    H130488   4.937   0.943   1.906 -0.2598 -0.5579 -0.9385
 2999TIP3    H230489   4.791   0.945   1.946  0.0019  1.0277  0.0152
 3000TIP3   OH230490   6.652   5.244   4.248  0.0054 -0.1543  0.2068
 3000TIP3    H130491   6.630   5.270   4.158 -0.5346 -0.1707  0.3356
 3000TIP3    H230492   6.568   5.228   4.290  0.2912 -3.2815 -0.2030
 3001TIP3   OH230493   5.975   1.127  12.115 -0.2851  1.1754  0.4931
 3001TIP3    H130494   6.054   1.164  12.076  1.0268 -1.9134 -0.1398
 3001TIP3    H230495   6.007   1.083  12.194 -1.1745 -0.8014 -0.1926
 3002TIP3   OH230496   3.637   5.343   6.613  0.1969 -0.0462 -0.4134
 3002TIP3    H130497   3.659   5.264   6.564  1.1836 -1.9134  2.7468
 3002TIP3    H230498   3.722   5.379   6.641 -0.3073  1.2213 -0.4331
 3003TIP3   OH230499   4.308   2.796   4.818  0.1866 -0.6040 -0.2776
 3003TIP3    H130500   4.228   2.776   4.771 -0.2503  1.0724 -0.3259
 3003TIP3    H230501   4.288   2.776   4.910 -0.7476  0.9177 -0.1084
 3004TIP3   OH230502   6.716   5.198   3.821  0.0425 -0.2297 -0.9592
 3004TIP3    H130503   6.799   5.241   3.840 -0.5751  1.1839 -1.3769
 3004TIP3    H230504   6.656   5.231   3.887  0.0624 -2.1754  0.1079
 3005TIP3   OH230505   4.863   1.011   1.499 -0.1065 -0.0760 -0.2518
 3005TIP3    H130506   4.800   1.076   1.530  0.3752  0.5752 -0.6003
 3005TIP3    H230507   4.891   1.044   1.414 -1.3852 -1.8116 -1.4030
 3006TIP3   OH230508   2.533   6.335  17.161  0.2795 -0.2625  0.3816
 3006TIP3    H130509   2.505   6.332  17.070 -1.5280 -0.6304  0.9204
 3006TIP3    H230510   2.605   6.399  17.162 -1.7884  2.2499 -0.7920
 3007TIP3   OH230511   6.139   6.712  14.233  0.0141 -0.3481  0.8680
 3007TIP3    H130512   6.152   6.633  14.180 -0.0358  0.1517  0.0958
 3007TIP3    H230513   6.155   6.683  14.322  0.0717 -1.2199  0.5896
 3008TIP3   OH230514   6.615   2.498   3.816  0.0992 -0.8037  0.8203
 3008TIP3    H130515   6.560   2.576   3.825 -0.5625 -1.2240  0.5032
 3008TIP3    H230516   6.669   2.515   3.739  0.1657 -0.5335  0.9255
 3009TIP3   OH230517   3.478   1.453   5.494 -0.3441  0.0152 -0.3480
 3009TIP3    H130518   3.383   1.465   5.495 -0.2289  0.8856  0.5285
 3009TIP3    H230519   3.514   1.541   5.497  0.5095 -0.2732 -1.3858
 3010TIP3   OH230520   5.875   0.068   5.935  0.3704 -0.1762 -0.3905
 3010TIP3    H130521   5.970   0.066   5.924  0.8976 -2.1000  3.0904
 3010TIP3    H230522   5.862   0.077   6.030 -2.9548  0.5000 -0.7870
 3011TIP3   OH230523   5.463   5.572  12.616  0.3120  0.2959  1.0605
 3011TIP3    H130524   5.383   5.563  12.564 -0.3525  0.2581  2.0720
 3011TIP3    H230525   5.483   5.483  12.645  1.5554  0.0660 -0.3670
 3012TIP3   OH230526   6.583   1.365   4.331 -0.3567  0.3307  0.6085
 3012TIP3    H130527   6.603   1.373   4.424 -1.7942  2.3254  0.8238
 3012TIP3    H230528   6.656   1.408   4.287  0.0156 -0.0504  0.8555
 3013TIP3   OH230529   3.772   3.159   3.051  0.4092  0.1186  0.1012
 3013TIP3    H130530   3.749   3.121   2.966 -2.3276 -1.1683  1.3121
 3013TIP3    H230531   3.749   3.252   3.042 -0.7196 -0.1829 -0.3164
 3014TIP3   OH230532   0.633   1.003  12.665  0.4448 -0.3301  0.2944
 3014TIP3    H130533   0.552   0.961  12.636  0.6866 -1.2724  0.9322
 3014TIP3    H230534   0.604   1.065  12.733  0.1322  0.2966 -0.3860
 3015TIP3   OH230535   0.689   0.964  12.153 -0.1719 -0.1969  0.2576
 3015TIP3    H130536   0.720   1.047  12.117  0.6261  0.0804  1.5192
 3015TIP3    H230537   0.630   0.989  12.224 -0.2952 -0.7082  0.3404
 3016TIP3   OH230538   5.773   6.545   3.567  0.2352 -0.4410 -0.4226
 3016TIP3    H130539   5.715   6.577   3.497  0.6782 -1.1026 -1.1084
 3016TIP3    H230540   5.828   6.620   3.588 -1.6566  0.6058  1.1336
 3017TIP3   OH230541   6.756   5.525  13.600  0.3920  0.5096 -0.3798
 3017TIP3    H130542   6.850   5.545  13.597  0.5031 -0.0523 -0.7632
 3017TIP3    H230543   6.715   5.592  13.545  0.6360  0.4059 -0.6917
 3018TIP3   OH230544   0.889   5.615   2.887  0.0576 -0.0523 -0.2013
 3018TIP3    H130545   0.934   5.671   2.949  1.5692 -1.0232 -0.3811
 3018TIP3    H230546   0.843   5.551   2.942  1.0016 -0.6150 -0.0374
 3019TIP3   OH230547   5.868   0.784  16.363 -0.2514  0.1127 -0.4375
 3019TIP3    H130548   5.817   0.710  16.329  1.6863 -2.0522  1.1110
 3019TIP3    H230549   5.910   0.821  16.285  2.0298 -3.1022 -0.9383
 3020TIP3   OH230550   5.895   0.539   3.885 -0.5679 -0.0463 -0.5134
 3020TIP3    H130551   5.886   0.466   3.946 -0.8847  0.8305  0.5235
 3020TIP3    H230552   5.811   0.585   3.890 -0.9447 -0.4445 -2.3088
 3021TIP3   OH230553   4.136   0.775  16.363 -0.2726 -0.7624 -1.0193
 3021TIP3    H130554   4.076   0.731  16.423 -1.2489 -0.3929 -1.6995
 3021TIP3    H230555   4.107   0.748  16.276  0.0538  0.0391 -1.3848
 3022TIP3   OH230556   6.787   0.903   2.457  0.9159  0.3162  0.0778
 3022TIP3    H130557   6.708   0.941   2.495  1.4077  2.6429 -1.0665
 3022TIP3    H230558   6.755   0.843   2.390  0.1018  0.3888  0.3958
 3023TIP3   OH230559   6.247   5.962   2.607 -0.3744  0.3368 -0.2400
 3023TIP3    H130560   6.263   6.051   2.636  1.0933 -0.1627  0.5986
 3023TIP3    H230561   6.159   5.942   2.637 -0.0934  0.9448  1.0427
 3024TIP3   OH230562   0.171   0.737  12.217 -0.2016  0.0901 -0.8304
 3024TIP3    H130563   0.216   0.821  12.227 -0.7121  0.2775 -0.0308
 3024TIP3    H230564   0.236   0.672  12.244 -0.4885  0.3824  0.6961
 3025TIP3   OH230565   1.777   3.220   6.102 -0.0056  0.6334 -0.7116
 3025TIP3    H130566   1.866   3.252   6.112  0.2866 -0.5688  1.1415
 3025TIP3    H230567   1.749   3.198   6.192 -1.7276 -0.1284 -1.3725
 3026TIP3   OH230568   2.888   3.629  14.965  0.5198 -0.2575  0.6351
 3026TIP3    H130569   2.939   3.550  14.982  0.0543 -0.9885 -1.0927
 3026TIP3    H230570   2.802   3.612  15.003  0.6412 -0.2994  0.8860
 3027TIP3   OH230571   0.333   3.587   5.211 -1.0670  0.2813  0.3825
 3027TIP3    H130572   0.285   3.656   5.165 -1.7536 -1.4702 -1.7012
 3027TIP3    H230573   0.271   3.553   5.276 -2.4152 -1.2696 -1.5958
 3028TIP3   OH230574   6.133   1.936  16.871 -0.0377 -0.2530 -0.2207
 3028TIP3    H130575   6.181   2.002  16.921 -1.6978  0.0893  1.0478
 3028TIP3    H230576   6.169   1.941  16.783  2.6859 -0.5366  0.7778
 3029TIP3   OH230577   6.451   5.819   4.795  0.2645 -0.2319 -0.2549
 3029TIP3    H130578   6.437   5.757   4.866  0.0925 -0.5870 -0.5970
 3029TIP3    H230579   6.389   5.890   4.812  0.7339  0.0474  0.3569
 3030TIP3   OH230580   0.893   3.428  15.151  0.3219  0.2168 -0.1206
 3030TIP3    H130581   0.886   3.455  15.242  1.8574 -2.1064  0.7746
 3030TIP3    H230582   0.986   3.439  15.130  0.3567 -1.0318 -0.7457
 3031TIP3   OH230583   1.836   3.766  15.133  0.3554 -0.4522  0.0595
 3031TIP3    H130584   1.832   3.848  15.181  1.4486 -0.0735 -0.4563
 3031TIP3    H230585   1.836   3.698  15.200  1.6798  0.0611  0.6030
 3032TIP3   OH230586   6.591   2.053   1.800  0.5482 -0.6939  0.7188
 3032TIP3    H130587   6.680   2.071   1.830 -0.0293  1.2577  1.3778
 3032TIP3    H230588   6.561   1.981   1.856  1.8325 -1.6987  0.1795
 3033TIP3   OH230589   4.308   0.260   4.626 -0.2589  0.7322 -0.2461
 3033TIP3    H130590   4.331   0.178   4.670  1.5829 -0.1758 -2.6749
 3033TIP3    H230591   4.292   0.321   4.698 -3.0377 -1.9876  1.7051
 3034TIP3   OH230592   2.593   3.753  13.701 -0.3663 -0.0216  0.0258
 3034TIP3    H130593   2.559   3.724  13.617 -2.2176 -1.7913  1.3021
 3034TIP3    H230594   2.583   3.848  13.700 -1.7326 -0.1528 -1.1961
 3035TIP3   OH230595   6.443   4.298   1.577  0.5230  0.0636 -0.0826
 3035TIP3    H130596   6.398   4.378   1.548  0.1065  0.0780  0.5850
 3035TIP3    H230597   6.528   4.328   1.608  0.6700  0.1473 -0.5667
 3036TIP3   OH230598   1.874   4.780  15.681  0.2910  0.0069  0.1445
 3036TIP3    H130599   1.780   4.787  15.664  0.1191 -2.0326 -0.0265
 3036TIP3    H230600   1.888   4.686  15.696  2.2182  0.3478  0.6880
 3037TIP3   OH230601   0.222   0.340  17.125  0.4444  0.7401  0.5411
 3037TIP3    H130602   0.159   0.319  17.194  0.8813  2.3383  1.4921
 3037TIP3    H230603   0.292   0.387  17.171  1.7553  0.0449 -0.6829
 3038TIP3   OH230604   2.476   2.057  16.337 -0.0598 -0.1568 -0.2217
 3038TIP3    H130605   2.568   2.078  16.324  0.3507 -2.2756 -1.2601
 3038TIP3    H230606   2.433   2.084  16.255  0.2464 -2.0007 -1.0366
 3039TIP3   OH230607   4.934   1.988   0.614 -0.3892 -0.1742  0.0216
 3039TIP3    H130608   4.933   2.013   0.522  2.2129 -2.5209 -0.7847
 3039TIP3    H230609   4.936   2.071   0.661 -3.0955  1.1073 -1.8991
 3040TIP3   OH230610   4.430   2.419   3.585  0.3363 -0.4019 -0.8821
 3040TIP3    H130611   4.452   2.328   3.607  2.3049  0.4341  0.9543
 3040TIP3    H230612   4.495   2.444   3.519  0.8788  0.1483 -0.1566
 3041TIP3   OH230613   2.715   5.556  11.277  0.3899 -0.4070  0.1758
 3041TIP3    H130614   2.793   5.586  11.324  0.3868 -0.7283  0.3844
 3041TIP3    H230615   2.724   5.461  11.272 -0.3092 -0.5180  0.7840
 3042TIP3   OH230616   4.354   5.534   2.738 -0.6731 -0.5456  0.2412
 3042TIP3    H130617   4.279   5.496   2.785 -0.3105 -1.0339  0.4315
 3042TIP3    H230618   4.317   5.564   2.655 -0.8709 -1.8632 -0.1778
 3043TIP3   OH230619   4.310   0.618   0.880 -0.0905  0.2961 -0.2262
 3043TIP3    H130620   4.303   0.591   0.788 -0.5998 -0.4852  0.0264
 3043TIP3    H230621   4.343   0.707   0.876 -0.8346  0.5524 -1.2064
 3044TIP3   OH230622   1.436   4.119   2.338  0.3991  0.3184 -0.4092
 3044TIP3    H130623   1.374   4.156   2.274 -1.1303  1.2571  1.5116
 3044TIP3    H230624   1.446   4.028   2.311 -0.2050  0.6755 -1.9658
 3045TIP3   OH230625   4.461   3.892   2.198  0.1261 -0.1487 -0.0090
 3045TIP3    H130626   4.426   3.826   2.139 -1.6254  2.7964 -2.5580
 3045TIP3    H230627   4.413   3.878   2.280 -0.1795 -2.0023 -0.4670
 3046TIP3   OH230628   2.975   6.519  14.068 -0.3925  0.3394 -0.4656
 3046TIP3    H130629   3.038   6.455  14.101  0.9966  1.0480 -1.5851
 3046TIP3    H230630   2.903   6.517  14.130  0.2475 -1.2929  0.2813
 3047TIP3   OH230631   0.241   1.167  16.167  0.5602  0.2168  0.1357
 3047TIP3    H130632   0.280   1.095  16.117 -1.9905 -2.3920  1.5611
 3047TIP3    H230633   0.151   1.139  16.181  0.2790  2.3173  3.3826
 3048TIP3   OH230634   6.786   2.282   6.354 -0.6464  0.2134  0.1550
 3048TIP3    H130635   6.882   2.276   6.354 -0.6805 -0.5994  0.9562
 3048TIP3    H230636   6.767   2.365   6.399 -0.3301 -0.0731  0.8263
 3049TIP3   OH230637   4.062   3.819   1.350  1.1325 -0.6285  0.1625
 3049TIP3    H130638   4.155   3.806   1.331  1.0720 -0.6025 -0.1531
 3049TIP3    H230639   4.021   3.736   1.326  1.1261 -0.7726  0.6583
 3050TIP3   OH230640   1.919   2.656  15.684 -0.0328  0.4765 -0.2046
 3050TIP3    H130641   1.962   2.626  15.765 -0.4790 -2.1220 -0.8445
 3050TIP3    H230642   1.826   2.660  15.707 -0.3805 -1.8622 -0.9242
 3051TIP3   OH230643   1.885   0.971  14.530  0.0592 -0.1046  0.1441
 3051TIP3    H130644   1.834   0.892  14.509 -0.8469  0.9760 -2.0844
 3051TIP3    H230645   1.973   0.952  14.497 -0.2573 -0.0628 -0.7499
 3052TIP3   OH230646   0.755   0.201  12.095  0.1005 -0.0991 -0.3839
 3052TIP3    H130647   0.669   0.235  12.116  0.1975 -0.1612  0.1363
 3052TIP3    H230648   0.761   0.205  12.000 -0.5753 -0.3379 -0.4370
 3053TIP3   OH230649   3.716   3.661   0.810  0.5911 -0.1719 -0.0761
 3053TIP3    H130650   3.679   3.591   0.863 -0.3711  1.0427  0.8969
 3053TIP3    H230651   3.658   3.667   0.734 -0.2890  0.6577  0.6537
 3054TIP3   OH230652   2.293   6.263   3.852 -0.1355  0.2648 -0.0866
 3054TIP3    H130653   2.384   6.280   3.830  0.1919 -1.0473  0.1880
 3054TIP3    H230654   2.256   6.223   3.774  0.0078 -0.8433  0.3955
 3055TIP3   OH230655   5.765   1.277  12.235 -0.2445  0.1100  0.8813
 3055TIP3    H130656   5.844   1.263  12.183 -0.9975 -1.1669  0.0208
 3055TIP3    H230657   5.797   1.315  12.317  1.1475  0.5107  0.1878
 3056TIP3   OH230658   2.971   6.041  12.928 -0.1576 -0.3618 -0.9376
 3056TIP3    H130659   2.937   6.119  12.972  0.3215  0.0239 -1.2345
 3056TIP3    H230660   2.960   5.970  12.992  2.6787  0.6022  0.7966
 3057TIP3   OH230661   4.316   2.185   1.139 -0.2010  0.5961 -0.2760
 3057TIP3    H130662   4.330   2.247   1.211  0.0445  1.7567 -1.2838
 3057TIP3    H230663   4.405   2.162   1.111 -0.2995  0.7056 -0.6725
 3058TIP3   OH230664   5.728   2.835   3.038  0.6876  0.0271 -0.1720
 3058TIP3    H130665   5.727   2.822   2.943  0.2958 -0.8718 -0.0550
 3058TIP3    H230666   5.698   2.925   3.049  1.7953  0.5230 -0.9412
 3059TIP3   OH230667   1.872   2.855   0.220 -0.5898 -0.1107  0.0360
 3059TIP3    H130668   1.913   2.777   0.184  0.2107  0.9049 -1.3423
 3059TIP3    H230669   1.778   2.844   0.204 -0.3956 -0.4030 -0.9357
 3060TIP3   OH230670   5.944   2.089   0.880  0.3233  0.0659  0.4832
 3060TIP3    H130671   5.960   2.000   0.911  0.9760 -0.6814 -1.7845
 3060TIP3    H230672   5.882   2.126   0.944  1.6160 -1.2547  2.6218
 3061TIP3   OH230673   2.315   0.351  15.290 -0.3125 -0.0109 -0.2607
 3061TIP3    H130674   2.378   0.281  15.275 -1.7584 -0.9821 -2.1985
 3061TIP3    H230675   2.354   0.404  15.359  1.3656 -2.0612  0.4652
 3062TIP3   OH230676   4.132   2.945  16.492  0.1963  0.5022  0.3285
 3062TIP3    H130677   4.066   2.891  16.450  0.6578  0.7923 -0.8200
 3062TIP3    H230678   4.106   3.035  16.473 -0.0987  0.6837  1.4941
 3063TIP3   OH230679   1.500   6.098   0.461 -0.3554  0.1668  0.0765
 3063TIP3    H130680   1.554   6.022   0.444 -0.6791 -0.0241 -0.1138
 3063TIP3    H230681   1.411   6.063   0.469 -0.0705 -0.1598  4.3939
 3064TIP3   OH230682   0.846   4.780  14.855 -0.4822  0.1193  0.4315
 3064TIP3    H130683   0.876   4.843  14.921 -0.5662 -0.0383  0.6223
 3064TIP3    H230684   0.922   4.722  14.842 -0.6559 -0.1944  0.8107
 3065TIP3   OH230685   1.178   6.309  12.735  0.0052 -0.5870 -0.2098
 3065TIP3    H130686   1.257   6.364  12.742  0.6024 -1.3696 -0.6193
 3065TIP3    H230687   1.141   6.331  12.649 -0.6799  0.3527  0.3045
 3066TIP3   OH230688   6.763   0.211  17.042 -0.4493 -0.0509  0.0180
 3066TIP3    H130689   6.696   0.155  17.080 -0.5340  1.4163  2.1824
 3066TIP3    H230690   6.844   0.161  17.051 -0.9300 -1.0068 -0.7905
 3067TIP3   OH230691   0.339   3.922  13.844 -0.2906  0.0852  0.1023
 3067TIP3    H130692   0.369   3.836  13.872  0.1212  0.3141  0.3890
 3067TIP3    H230693   0.245   3.922  13.862  0.0849  0.5606  2.4658
 3068TIP3   OH230694   0.740   0.173   1.645 -0.4195  0.0249  0.1006
 3068TIP3    H130695   0.703   0.105   1.589 -1.0705 -1.4556  2.1975
 3068TIP3    H230696   0.665   0.205   1.695  0.4377 -0.1839  1.5733
 3069TIP3   OH230697   0.967   1.827  15.319 -0.4829 -0.1018 -0.0335
 3069TIP3    H130698   1.018   1.900  15.284 -1.5029  0.0326 -1.3237
 3069TIP3    H230699   0.936   1.859  15.404  1.3374 -0.1074  0.6825
 3070TIP3   OH230700   5.019   3.775  15.028 -0.0045  0.4379 -0.5223
 3070TIP3    H130701   5.057   3.734  14.950  1.7631 -0.4658  0.7651
 3070TIP3    H230702   4.955   3.711  15.060  2.5418 -1.3627  1.3184
 3071TIP3   OH230703   5.480   2.320   5.389 -0.3273  0.6446  0.6554
 3071TIP3    H130704   5.398   2.348   5.348 -0.9043 -0.8663  0.7032
 3071TIP3    H230705   5.495   2.384   5.458 -0.3320  2.1454 -0.6850
 3072TIP3   OH230706   5.118   1.143  10.861  0.2095  0.4589  0.1155
 3072TIP3    H130707   5.157   1.230  10.865 -2.2150  1.6110  0.9176
 3072TIP3    H230708   5.084   1.128  10.949  0.7482 -1.4085  0.0377
 3073TIP3   OH230709   0.560   3.213  14.131 -0.3241  0.5962 -0.3526
 3073TIP3    H130710   0.488   3.183  14.187  0.2746  1.3595  0.8994
 3073TIP3    H230711   0.639   3.193  14.182  0.3494 -0.0422 -1.6088
 3074TIP3   OH230712   4.521   0.357   1.213  0.7849  0.4385 -0.4238
 3074TIP3    H130713   4.550   0.296   1.281 -1.9691  0.0351  0.4926
 3074TIP3    H230714   4.484   0.431   1.261 -0.9170  0.3035 -1.4619
 3075TIP3   OH230715   1.315   4.878   4.468  0.1523 -0.4315  0.0148
 3075TIP3    H130716   1.347   4.787   4.463 -2.4812 -1.3756 -1.6435
 3075TIP3    H230717   1.288   4.898   4.379 -0.3119  1.6312  0.5802
 3076TIP3   OH230718   0.674   6.709   0.962 -0.2621 -0.1990 -0.0262
 3076TIP3    H130719   0.698   6.799   0.939 -1.2345 -0.2275 -1.2186
 3076TIP3    H230720   0.589   6.717   1.005 -0.9414 -0.6509 -1.2554
 3077TIP3   OH230721   1.320   2.734   3.017 -0.0141  0.4267 -0.1509
 3077TIP3    H130722   1.326   2.644   3.049  0.0110  0.7243  0.6962
 3077TIP3    H230723   1.378   2.784   3.073 -0.7271  1.1325 -0.0247
 3078TIP3   OH230724   0.419   5.187   5.703  0.2539  0.0704 -0.2405
 3078TIP3    H130725   0.406   5.095   5.723  0.8409  0.0422  0.0124
 3078TIP3    H230726   0.422   5.190   5.607 -0.0185 -0.1364 -0.2569
 3079TIP3   OH230727   4.747   0.599  12.487  0.6852  0.2310 -0.3043
 3079TIP3    H130728   4.808   0.582  12.416 -1.1154 -1.0500 -1.6369
 3079TIP3    H230729   4.747   0.695  12.496  2.8598  0.2730 -0.1984
 3080TIP3   OH230730   1.091   4.287   3.226  0.3549  0.6465 -0.5374
 3080TIP3    H130731   1.101   4.287   3.321 -1.4665 -0.7172 -0.2904
 3080TIP3    H230732   1.102   4.378   3.200  0.1421  1.1509  1.0621
 3081TIP3   OH230733   4.594   6.461  17.172 -0.0687 -0.1417 -0.3220
 3081TIP3    H130734   4.665   6.412  17.130  0.2998  0.5435 -0.4988
 3081TIP3    H230735   4.633   6.545  17.196 -0.7396  0.1290 -0.1609
 3082TIP3   OH230736   6.508   1.833   0.519  0.3423 -0.6607  0.3909
 3082TIP3    H130737   6.445   1.885   0.470  0.3869 -0.3835  0.6314
 3082TIP3    H230738   6.591   1.880   0.509  0.6661 -1.3827 -0.5057
 3083TIP3   OH230739   0.693   0.429  15.264 -0.2896  0.1044  0.0283
 3083TIP3    H130740   0.643   0.434  15.182 -1.2877 -1.3369  0.5019
 3083TIP3    H230741   0.784   0.439  15.237 -0.6206 -0.0922 -1.2445
 3084TIP3   OH230742   6.237   0.874  15.842 -0.8712  0.0723 -0.6256
 3084TIP3    H130743   6.223   0.780  15.857 -1.2697  0.2968  0.4699
 3084TIP3    H230744   6.295   0.901  15.913 -0.5553  0.6101 -1.0843
 3085TIP3   OH230745   3.107   4.652   1.547  0.1374  0.3218 -0.4980
 3085TIP3    H130746   3.118   4.676   1.455  0.6988 -0.2370 -0.5750
 3085TIP3    H230747   3.112   4.557   1.548  1.3026  0.3742  0.2576
 3086TIP3   OH230748   1.775   2.875  12.160 -0.2714  0.3880  0.7288
 3086TIP3    H130749   1.702   2.913  12.111 -0.8296  0.0065  1.2578
 3086TIP3    H230750   1.746   2.787  12.182  0.4595  0.1411  0.7172
 3087TIP3   OH230751   4.085   3.458  13.662  0.4187 -0.0662  0.2662
 3087TIP3    H130752   4.074   3.370  13.696 -0.3314 -0.5215 -1.0562
 3087TIP3    H230753   4.022   3.511  13.711 -1.1102 -0.8315 -0.7956
 3088TIP3   OH230754   3.760   5.328  13.111 -0.0125  0.1377  0.0793
 3088TIP3    H130755   3.764   5.326  13.206  3.4152  0.3032  0.0520
 3088TIP3    H230756   3.849   5.310  13.082 -1.0697 -0.6369 -3.1573
 3089TIP3   OH230757   6.589   6.535  11.826 -0.0180 -0.0188 -0.0814
 3089TIP3    H130758   6.494   6.545  11.834  0.1607  0.2691  2.4079
 3089TIP3    H230759   6.611   6.463  11.886  1.7395  2.6286  2.7366
 3090TIP3   OH230760   0.632   5.449   2.583 -0.2627 -0.3027 -0.0573
 3090TIP3    H130761   0.604   5.407   2.664 -0.8743 -0.0325 -0.1213
 3090TIP3    H230762   0.695   5.388   2.544  0.7943  0.0160  1.1056
 3091TIP3   OH230763   5.592   4.127   5.219  0.4679 -0.7331 -0.4353
 3091TIP3    H130764   5.601   4.220   5.199 -0.9003 -0.5577 -0.3069
 3091TIP3    H230765   5.652   4.084   5.158  0.2105  0.1591 -1.3539
 3092TIP3   OH230766   3.607   0.291   6.264  0.4027 -0.2793  0.9076
 3092TIP3    H130767   3.678   0.229   6.246  2.4337  2.1149  0.0414
 3092TIP3    H230768   3.633   0.333   6.346  0.3027  1.0132  0.2954
 3093TIP3   OH230769   0.576   0.654   2.016  0.4406  0.6611 -0.2400
 3093TIP3    H130770   0.544   0.628   2.102  1.8718  0.5200  0.2734
 3093TIP3    H230771   0.639   0.724   2.034  2.0129 -0.4970 -1.0098
 3094TIP3   OH230772   1.186   6.718  11.338  0.4839  0.0117 -0.7695
 3094TIP3    H130773   1.254   6.749  11.277  0.1145  1.3058 -0.5609
 3094TIP3    H230774   1.112   6.775  11.320  0.1314 -0.0607  0.4135
 3095TIP3   OH230775   6.133   2.720   2.505  0.6007  0.4600 -0.0179
 3095TIP3    H130776   6.039   2.716   2.525  0.3993  2.5015 -0.3344
 3095TIP3    H230777   6.146   2.651   2.439 -0.6291  0.0329  0.1584
 3096TIP3   OH230778   3.360   6.234  11.882 -0.0356 -0.9543  0.2419
 3096TIP3    H130779   3.388   6.306  11.825  0.5853 -1.0587  0.4059
 3096TIP3    H230780   3.286   6.270  11.931 -0.0718 -0.6029 -0.0627
 3097TIP3   OH230781   4.006   3.215   5.847 -0.1206  0.2351 -0.1269
 3097TIP3    H130782   4.051   3.278   5.790 -0.3366  0.8446  0.3561
 3097TIP3    H230783   4.076   3.175   5.898  0.0763 -0.3207 -0.8146
 3098TIP3   OH230784   5.038   4.156  12.496  0.2043 -0.0295  0.0040
 3098TIP3    H130785   5.122   4.158  12.542 -1.4731  1.1598  3.4386
 3098TIP3    H230786   4.991   4.083  12.536 -0.9977  0.3890 -0.5899
 3099TIP3   OH230787   3.886   4.074  12.647  0.1148  0.2112 -0.2386
 3099TIP3    H130788   3.852   3.988  12.623  1.8128 -0.3633 -0.6835
 3099TIP3    H230789   3.890   4.072  12.743 -0.3178 -0.0220 -0.2245
 3100TIP3   OH230790   2.133   3.374   4.009  0.0941 -0.2920 -0.5761
 3100TIP3    H130791   2.110   3.443   4.071  2.2605 -0.5380  0.5677
 3100TIP3    H230792   2.078   3.300   4.034 -0.1993  0.1207  0.0065
 3101TIP3   OH230793   5.033   3.634   1.662  0.3006 -0.4470  0.1551
 3101TIP3    H130794   4.966   3.632   1.730 -2.1088  1.4041 -1.9891
 3101TIP3    H230795   5.109   3.674   1.705 -1.4111  1.4715  1.6148
 3102TIP3   OH230796   2.019   4.247   3.393  0.1463 -0.3817 -0.2050
 3102TIP3    H130797   1.983   4.258   3.305  2.2399 -0.0485 -1.0814
 3102TIP3    H230798   2.109   4.221   3.378  1.0939  1.4644  1.8177
 3103TIP3   OH230799   6.454   4.210  12.873 -0.5952 -0.2957  0.2239
 3103TIP3    H130800   6.538   4.188  12.912 -0.4679 -1.2348 -0.5486
 3103TIP3    H230801   6.406   4.255  12.943  0.2719 -0.3906  0.8937
 3104TIP3   OH230802   5.761   5.593  15.126  0.4280 -0.1536 -0.5403
 3104TIP3    H130803   5.836   5.642  15.093 -0.0530  0.2305 -1.0886
 3104TIP3    H230804   5.799   5.511  15.159  1.2866  0.7469  0.7835
 3105TIP3   OH230805   4.175   6.128  16.695 -0.5676  0.0068  0.5143
 3105TIP3    H130806   4.241   6.124  16.626  0.4807  0.4652  1.4526
 3105TIP3    H230807   4.097   6.088  16.656 -0.1710  0.6925 -1.0990
 3106TIP3   OH230808   2.902   5.072  12.813  0.4118 -0.0197  0.6468
 3106TIP3    H130809   2.831   5.115  12.860 -0.1160 -0.2539  0.0742
 3106TIP3    H230810   2.859   5.027  12.740  0.9068 -1.6760  1.3227
 3107TIP3   OH230811   3.372   6.303   2.521 -0.2863 -0.2253  0.0790
 3107TIP3    H130812   3.432   6.228   2.520 -2.2235 -1.8510  0.2651
 3107TIP3    H230813   3.352   6.318   2.428  1.4519  1.2670 -0.1070
 3108TIP3   OH230814   2.937   3.658   4.495  0.4405 -0.6699  0.0822
 3108TIP3    H130815   2.845   3.669   4.516 -0.5263 -2.7004 -2.5772
 3108TIP3    H230816   2.969   3.746   4.476 -2.4152 -0.2592 -4.0388
 3109TIP3   OH230817   4.300   2.115  12.231 -0.1246  0.2480 -0.1443
 3109TIP3    H130818   4.309   2.116  12.135  0.9785  2.5080 -0.0875
 3109TIP3    H230819   4.387   2.088  12.262  0.0784  1.2916  0.2197
 3110TIP3   OH230820   5.309   0.358   3.867  0.3303 -0.2202  0.4904
 3110TIP3    H130821   5.253   0.344   3.943 -0.0658  0.0476  0.2543
 3110TIP3    H230822   5.266   0.311   3.796 -0.9837  2.0107 -0.3011
 3111TIP3   OH230823   5.560   6.653  14.647 -0.1516 -0.2980 -0.5351
 3111TIP3    H130824   5.525   6.741  14.660 -0.6543 -0.6770  0.8958
 3111TIP3    H230825   5.607   6.657  14.564 -0.4002  1.2437 -0.6191
 3112TIP3   OH230826   4.484   5.046  16.859  0.8832  0.0999  0.6761
 3112TIP3    H130827   4.482   4.967  16.913  0.8395 -0.3176  0.0861
 3112TIP3    H230828   4.462   5.117  16.918 -1.3859 -0.6000  0.7379
 3113TIP3   OH230829   4.338   1.247   0.615  0.1129  0.4387 -0.2330
 3113TIP3    H130830   4.303   1.336   0.610 -0.9387  0.0038 -0.9822
 3113TIP3    H230831   4.319   1.209   0.529  1.0616 -0.3302 -0.1199
 3114TIP3   OH230832   2.316   2.505  16.091 -0.1257 -0.6784 -0.1741
 3114TIP3    H130833   2.307   2.472  16.002  0.1825 -0.6316 -0.2222
 3114TIP3    H230834   2.382   2.574  16.085 -0.6521 -0.1531 -0.0494
 3115TIP3   OH230835   2.741   4.422  13.194  0.3285 -0.3208  0.3833
 3115TIP3    H130836   2.757   4.470  13.113 -0.1215  0.2698  0.6356
 3115TIP3    H230837   2.713   4.335  13.166  3.5163 -1.3555 -0.1175
 3116TIP3   OH230838   1.176   1.615  13.876 -0.6094  0.6623  0.3914
 3116TIP3    H130839   1.127   1.533  13.878 -0.2557  0.4326 -0.1879
 3116TIP3    H230840   1.202   1.630  13.967 -0.4034 -0.0337  0.4523
 3117TIP3   OH230841   3.944   1.151  14.992  0.1151  0.4118 -0.5462
 3117TIP3    H130842   3.931   1.191  15.078 -0.8756  0.8304 -0.8795
 3117TIP3    H230843   3.905   1.064  15.000  2.0984 -0.4865  0.1186
 3118TIP3   OH230844   1.250   5.411  11.186 -0.5245  0.4152  0.7236
 3118TIP3    H130845   1.184   5.397  11.253 -0.1611  0.8842  1.1881
 3118TIP3    H230846   1.223   5.491  11.142 -1.0015 -0.1235  0.0083
 3119TIP3   OH230847   1.386   2.008   1.536  0.0240  0.0096  0.4740
 3119TIP3    H130848   1.384   1.979   1.445 -2.9174  0.4444  0.3095
 3119TIP3    H230849   1.410   2.100   1.532 -2.1396  0.5947 -0.1216
 3120TIP3   OH230850   3.471   1.201  12.619 -0.0321  0.2824  0.5274
 3120TIP3    H130851   3.461   1.241  12.533 -1.7075 -0.4125  0.3645
 3120TIP3    H230852   3.382   1.187  12.650  0.5215 -0.8924  1.7200
 3121TIP3   OH230853   2.054   1.222  17.319  0.2703  0.4119  0.0804
 3121TIP3    H130854   2.141   1.253  17.342 -0.1203  1.1670  0.5652
 3121TIP3    H230855   2.010   1.209  17.402  0.3613 -1.3461 -0.1038
 3122TIP3   OH230856   4.059   1.133   3.550  0.2861  0.1274 -0.3678
 3122TIP3    H130857   4.006   1.163   3.476  0.6212 -1.6182 -1.3744
 3122TIP3    H230858   4.143   1.179   3.540  0.5965 -0.6603 -1.5354
 3123TIP3   OH230859   0.043   1.936   3.949 -0.1996 -0.2935 -0.0640
 3123TIP3    H130860   0.059   1.918   3.857  0.5763  2.4941 -0.5671
 3123TIP3    H230861  -0.052   1.947   3.955 -0.2595 -0.5537 -0.5200
 3124TIP3   OH230862   4.652   2.457   4.388  0.2787  0.2454  0.1989
 3124TIP3    H130863   4.605   2.390   4.338  0.0302 -0.4048  1.2742
 3124TIP3    H230864   4.739   2.420   4.401  1.2997  1.6225 -2.1429
 3125TIP3   OH230865   5.353   6.727   0.564 -0.1760 -0.1367 -0.1945
 3125TIP3    H130866   5.365   6.710   0.658 -0.4509 -0.8139 -0.2773
 3125TIP3    H230867   5.270   6.685   0.542  0.5597 -1.2111 -1.0341
 3126TIP3   OH230868   5.270   5.920  10.806  0.2958  0.2407  0.1046
 3126TIP3    H130869   5.239   5.999  10.761  0.4682  0.8720  1.0503
 3126TIP3    H230870   5.362   5.913  10.779  0.0634 -0.1117 -0.6187
 3127TIP3   OH230871   2.498   4.410  13.542  0.2398  0.4251 -0.5080
 3127TIP3    H130872   2.589   4.402  13.514  0.5788  2.7043 -0.2200
 3127TIP3    H230873   2.493   4.358  13.622  1.3711  0.4721 -0.3882
 3128TIP3   OH230874   4.527   2.701  16.574 -0.4011 -0.3621 -0.0406
 3128TIP3    H130875   4.619   2.686  16.594 -0.3346  0.6662  0.4940
 3128TIP3    H230876   4.488   2.614  16.570  0.4144 -0.7605  0.5789
 3129TIP3   OH230877   1.229   3.863  15.133  0.5712  0.3300  0.4030
 3129TIP3    H130878   1.207   3.886  15.043 -0.9890 -2.8014 -0.1816
 3129TIP3    H230879   1.189   3.932  15.186  0.4375  1.5802 -1.2348
 3130TIP3   OH230880   0.291   4.517  15.917 -0.4091  0.4616  0.2368
 3130TIP3    H130881   0.196   4.506  15.914 -0.4405 -0.5176  2.6147
 3130TIP3    H230882   0.323   4.437  15.959  1.3013  1.4229  0.8620
 3131TIP3   OH230883   0.434   0.825   1.234  0.6148  0.5408  0.0308
 3131TIP3    H130884   0.398   0.740   1.261 -3.1576  2.1778  0.9102
 3131TIP3    H230885   0.471   0.809   1.148  1.8812 -2.3541  1.0030
 3132TIP3   OH230886   4.405   0.069   2.818  0.3630  0.3671  0.2367
 3132TIP3    H130887   4.364   0.128   2.755 -2.1291  1.5626  2.7168
 3132TIP3    H230888   4.487   0.113   2.843 -0.4487  1.7864  0.5099
 3133TIP3   OH230889   0.111   2.286   3.759 -0.2477  0.5148 -0.0032
 3133TIP3    H130890   0.088   2.329   3.677 -1.1045 -0.6532 -0.4079
 3133TIP3    H230891   0.094   2.193   3.742 -1.7243  0.3929  1.9177
 3134TIP3   OH230892   4.036   4.808   4.424 -0.0937 -0.3339 -0.6554
 3134TIP3    H130893   4.047   4.842   4.336 -0.5496 -1.1433 -1.0344
 3134TIP3    H230894   3.973   4.736   4.415 -2.2255  1.2304  0.7329
 3135TIP3   OH230895   2.035   0.830  14.789 -0.1517  0.3926  0.3458
 3135TIP3    H130896   2.079   0.792  14.713 -0.3979 -2.8938  1.6721
 3135TIP3    H230897   2.103   0.880  14.834  0.3895  1.0584 -1.1387
 3136TIP3   OH230898   5.974   6.553  13.874  0.1907 -0.0502  0.0822
 3136TIP3    H130899   6.057   6.534  13.919  0.2597 -0.1765 -0.0970
 3136TIP3    H230900   5.946   6.468  13.840 -0.1228 -0.0465  0.3273
 3137TIP3   OH230901   2.610   5.950  13.050 -0.2767 -0.3512  0.3090
 3137TIP3    H130902   2.539   5.916  12.995 -0.9265 -0.7659  1.3672
 3137TIP3    H230903   2.611   6.044  13.032 -1.7975 -0.1685  1.0177
 3138TIP3   OH230904   6.196   1.298  17.052  0.3195 -0.3362  0.2475
 3138TIP3    H130905   6.267   1.291  17.116  2.1612 -0.4893 -1.7218
 3138TIP3    H230906   6.144   1.373  17.082  2.8185  1.4595  0.3862
 3139TIP3   OH230907   6.035   3.457  11.963 -0.2536 -0.6497  0.1229
 3139TIP3    H130908   6.088   3.378  11.950  3.3064  1.8042 -1.5724
 3139TIP3    H230909   5.963   3.448  11.900  0.0319 -2.5238 -0.0027
 3140TIP3   OH230910   4.047   3.670  12.808 -0.4248  0.1656 -0.6204
 3140TIP3    H130911   4.087   3.635  12.729  1.1294  0.0705  0.1855
 3140TIP3    H230912   3.989   3.740  12.777 -0.7071 -0.6203 -1.9183
 3141TIP3   OH230913   3.460   0.423   4.705 -0.1294 -0.3774 -0.6184
 3141TIP3    H130914   3.443   0.329   4.713 -1.4469 -0.1335 -0.1683
 3141TIP3    H230915   3.373   0.463   4.714  0.6197  0.9886  1.1521
 3142TIP3   OH230916   5.238   0.279  11.953  0.9314 -0.3659  0.1355
 3142TIP3    H130917   5.319   0.288  11.902  0.2368 -1.5833 -1.2863
 3142TIP3    H230918   5.240   0.188  11.984  0.3066 -0.2782  0.4361
 3143TIP3   OH230919   2.970   2.910   1.463  0.1471  0.1758  0.5036
 3143TIP3    H130920   3.042   2.866   1.507 -1.1043 -1.2655  1.2107
 3143TIP3    H230921   2.891   2.866   1.496 -1.0821  1.8875 -0.0151
 3144TIP3   OH230922   1.826   2.144  16.629 -0.3354 -0.6314  0.1197
 3144TIP3    H130923   1.781   2.060  16.640 -1.7120  0.3083  2.3789
 3144TIP3    H230924   1.872   2.157  16.712  1.6511 -0.0937 -1.0056
 3145TIP3   OH230925   3.240   4.928   1.118 -0.1676 -0.3247 -0.5215
 3145TIP3    H130926   3.193   4.965   1.043  0.5288 -1.0115 -1.3212
 3145TIP3    H230927   3.318   4.982   1.127  0.2606 -0.8537 -0.9522
 3146TIP3   OH230928   6.616   5.264  13.570 -0.3474 -0.5954 -0.2875
 3146TIP3    H130929   6.579   5.231  13.488 -2.9532  0.6598  0.3041
 3146TIP3    H230930   6.665   5.343  13.544 -1.8313  0.2567 -0.5820
 3147TIP3   OH230931   4.823   0.535  14.465  0.6070 -0.1409 -0.0503
 3147TIP3    H130932   4.845   0.572  14.379  0.8341  0.2186  0.1596
 3147TIP3    H230933   4.736   0.571  14.485  0.6806  0.0110  0.0001
 3148TIP3   OH230934   4.930   6.750   0.198 -0.4601 -0.0305 -0.6373
 3148TIP3    H130935   4.947   6.838   0.166 -2.5491  0.0577 -1.6610
 3148TIP3    H230936   4.899   6.762   0.288  0.0436  0.1893 -0.4895
 3149TIP3   OH230937   0.091   3.062  16.599 -0.4327  0.5208 -0.0424
 3149TIP3    H130938   0.004   3.081  16.632 -0.2842 -0.6356  1.0919
 3149TIP3    H230939   0.150   3.091  16.669  0.0908  0.9911 -0.6604
 3150TIP3   OH230940   3.835   5.452  11.918  0.1136 -0.1466  0.3580
 3150TIP3    H130941   3.826   5.526  11.858  1.9652 -0.2633 -0.1348
 3150TIP3    H230942   3.765   5.465  11.983 -0.1564  1.5361 -0.2189
 3151TIP3   OH230943   1.686   4.914  13.720  0.5935 -0.0649 -0.0906
 3151TIP3    H130944   1.656   4.913  13.811 -0.0419  1.8708 -0.2372
 3151TIP3    H230945   1.666   5.002  13.689  1.5105 -0.4427 -1.8854
 3152TIP3   OH230946   4.571   3.300   5.111 -0.1987 -0.0972 -0.2334
 3152TIP3    H130947   4.488   3.296   5.062  0.2370 -0.3316 -0.9663
 3152TIP3    H230948   4.635   3.327   5.046  0.2859  0.2023  0.3643
 3153TIP3   OH230949   5.414   0.228   5.781 -0.3227  0.3708  0.4580
 3153TIP3    H130950   5.406   0.139   5.816 -1.8317 -0.4173 -1.6570
 3153TIP3    H230951   5.508   0.245   5.778  0.1185 -1.9084 -0.7405
 3154TIP3   OH230952   2.445   5.472  11.844  0.2681  0.6115  1.1826
 3154TIP3    H130953   2.492   5.396  11.879 -0.6015  0.6843  2.5777
 3154TIP3    H230954   2.373   5.486  11.905  0.3171  2.4758  0.8680
 3155TIP3   OH230955   0.275   6.447  17.414  0.2038 -0.6485 -0.2451
 3155TIP3    H130956   0.333   6.482  17.347 -1.0740  0.7647 -0.6586
 3155TIP3    H230957   0.187   6.471  17.386 -0.3719  0.1858  2.0210
 3156TIP3   OH230958   1.634   4.652   1.742  0.5190  0.8943 -0.1316
 3156TIP3    H130959   1.572   4.592   1.784  0.3930  1.5455  0.6309
 3156TIP3    H230960   1.641   4.619   1.652  1.6903 -1.2466  0.6531
 3157TIP3   OH230961   2.924   0.611  11.470 -0.1938  0.0501  0.7743
 3157TIP3    H130962   2.971   0.639  11.391 -2.2643 -0.3449 -0.6669
 3157TIP3    H230963   2.892   0.693  11.508 -1.9300  0.0861 -0.6380
 3158TIP3   OH230964   2.931   3.092   2.083  0.4547 -0.3431  0.2992
 3158TIP3    H130965   2.928   3.088   1.987  2.4298  0.2200  0.1758
 3158TIP3    H230966   2.860   3.153   2.106 -1.4949 -2.1474 -0.6050
 3159TIP3   OH230967   0.256   2.006  12.673 -0.3171  0.5333 -0.3380
 3159TIP3    H130968   0.221   1.927  12.716  0.0171  0.3465 -0.4039
 3159TIP3    H230969   0.240   2.076  12.736 -0.4010  0.3709 -0.1753
 3160TIP3   OH230970   1.135   4.042   4.621  0.0190 -0.1360  0.4879
 3160TIP3    H130971   1.136   4.071   4.712 -0.7700  0.2689  0.3819
 3160TIP3    H230972   1.088   3.959   4.623 -1.1048  0.4686  0.3095
 3161TIP3   OH230973   5.981   5.402   2.055  0.5708 -0.0192 -0.3834
 3161TIP3    H130974   6.056   5.389   2.113  1.8474  2.1257 -1.4367
 3161TIP3    H230975   6.014   5.379   1.968 -0.7457 -1.3058 -0.5947
 3162TIP3   OH230976   5.342   0.455  11.331 -0.4169  0.2056 -0.6720
 3162TIP3    H130977   5.433   0.425  11.334 -0.7878 -0.8333  1.5637
 3162TIP3    H230978   5.291   0.377  11.309 -1.1032 -0.2460  2.2012
 3163TIP3   OH230979   6.793   6.342  13.638  0.2653  0.3378 -0.4073
 3163TIP3    H130980   6.775   6.258  13.596 -1.3697  1.2411 -1.6437
 3163TIP3    H230981   6.827   6.319  13.724  0.6308 -1.5762 -1.0031
 3164TIP3   OH230982   5.771   0.671   1.829  0.2341 -0.2996  0.6681
 3164TIP3    H130983   5.692   0.639   1.870  0.7553 -1.0972  1.0674
 3164TIP3    H230984   5.831   0.597   1.830 -0.3768 -1.0695 -3.3805
 3165TIP3   OH230985   0.612   0.968  11.610 -0.2408 -0.2405  0.3959
 3165TIP3    H130986   0.676   0.958  11.681  0.0802 -0.7046  0.0484
 3165TIP3    H230987   0.597   1.062  11.603  0.3812 -0.1344  0.5060
 3166TIP3   OH230988   3.857   5.256  11.144  0.2130 -0.2092 -0.1383
 3166TIP3    H130989   3.915   5.293  11.078  1.8103 -0.8397  0.8701
 3166TIP3    H230990   3.833   5.170  11.110  2.8600 -1.5148  1.0348
 3167TIP3   OH230991   6.269   3.628  10.741 -0.2654 -0.0094 -0.1268
 3167TIP3    H130992   6.315   3.607  10.659 -1.0352 -1.7501 -0.1450
 3167TIP3    H230993   6.176   3.624  10.719 -0.6545 -3.9059  1.4746
 3168TIP3   OH230994   0.945   3.589  16.506  0.6563 -0.5100  0.4204
 3168TIP3    H130995   0.997   3.664  16.535  1.3784 -0.6115 -0.5874
 3168TIP3    H230996   0.891   3.568  16.582 -0.2541  1.6128  0.4401
 3169TIP3   OH230997   5.600   1.164   0.497  0.4967  0.0464 -0.4943
 3169TIP3    H130998   5.618   1.111   0.574 -0.9373 -0.4498 -0.4676
 3169TIP3    H230999   5.678   1.154   0.442  0.3645 -1.9816 -0.4116
 3170TIP3   OH231000   6.272   5.596   6.370 -0.0331 -0.1719 -0.1056
 3170TIP3    H131001   6.183   5.611   6.400  0.0609  0.7172 -0.2279
 3170TIP3    H231002   6.287   5.503   6.383 -0.9599 -0.3197 -0.0350
 3171TIP3   OH231003   5.904   0.367   5.636 -0.5200  0.5895  0.1672
 3171TIP3    H131004   5.899   0.462   5.636 -2.1887  0.5598  2.2280
 3171TIP3    H231005   5.994   0.348   5.607 -0.5468  2.6975 -1.5334
 3172TIP3   OH231006   5.289   4.236   0.521  0.2060 -0.3221 -0.4572
 3172TIP3    H131007   5.251   4.307   0.471 -2.4925 -1.2406  0.1526
 3172TIP3    H231008   5.215   4.195   0.567  1.9432 -2.1692  0.9133
 3173TIP3   OH231009   5.895   3.903  14.399  0.0252 -0.1615 -0.0327
 3173TIP3    H131010   5.975   3.945  14.369  0.2584 -0.0385  0.7271
 3173TIP3    H231011   5.862   3.855  14.323  1.2065 -0.8125 -0.1603
 3174TIP3   OH231012   0.478   3.455  14.017 -0.1843 -0.3034  0.1908
 3174TIP3    H131013   0.422   3.483  14.089 -1.1229 -1.9185  0.1162
 3174TIP3    H231014   0.531   3.384  14.054 -1.0114 -1.4764 -0.8071
 3175TIP3   OH231015   0.575   4.085  15.168  0.1114  0.0648 -0.2368
 3175TIP3    H131016   0.555   4.021  15.099  1.3364 -0.4926 -0.0993
 3175TIP3    H231017   0.649   4.047  15.215 -0.5893  0.5118  1.2990
 3176TIP3   OH231018   3.831   5.854   4.667 -0.0010  0.5417  0.2859
 3176TIP3    H131019   3.768   5.845   4.595  0.8058 -0.3498 -0.3320
 3176TIP3    H231020   3.789   5.914   4.728 -0.9801  0.8149 -0.6288
 3177TIP3   OH231021   4.759   1.492   6.264  0.5981 -0.2938  0.7680
 3177TIP3    H131022   4.709   1.483   6.345 -0.6871  0.6575  0.1226
 3177TIP3    H231023   4.774   1.586   6.256  1.8153 -0.4907  0.5224
 3178TIP3   OH231024   5.815   3.975   1.369  0.2534  0.3010  0.0323
 3178TIP3    H131025   5.846   3.935   1.451  3.5796  0.9321 -0.7569
 3178TIP3    H231026   5.811   4.068   1.389  1.0561  0.4537 -0.4623
 3179TIP3   OH231027   6.019   6.492   5.994 -0.0082  0.2731 -0.0426
 3179TIP3    H131028   5.951   6.504   6.060  0.4665 -2.4780  1.0946
 3179TIP3    H231029   5.987   6.421   5.938  1.2141  0.0161 -0.4527
 3180TIP3   OH231030   1.315   5.883  11.043 -0.3128  0.0684 -0.3013
 3180TIP3    H131031   1.391   5.856  11.095  0.8170 -0.4155 -2.1275
 3180TIP3    H231032   1.330   5.975  11.024  0.0361 -0.1395 -1.0307
 3181TIP3   OH231033   5.932   1.291  17.410 -0.1239 -0.3634 -0.1930
 3181TIP3    H131034   5.912   1.370  17.460  0.8422 -0.1843 -0.0641
 3181TIP3    H231035   6.027   1.284  17.415 -0.1555 -1.2087 -0.7050
 3182TIP3   OH231036   6.485   3.052  11.346 -0.2581  0.0204  0.4141
 3182TIP3    H131037   6.562   3.007  11.381 -0.5349  0.5547  1.7564
 3182TIP3    H231038   6.520   3.108  11.277  0.5312  0.0782  0.8421
 3183TIP3   OH231039   3.478   0.393  15.078  0.0264  0.3199 -0.2238
 3183TIP3    H131040   3.396   0.360  15.115 -0.6287 -0.8280 -2.4999
 3183TIP3    H231041   3.451   0.466  15.022  1.0261  2.2606  1.6820
 3184TIP3   OH231042   5.421   6.568  11.750 -0.2199  0.3160 -0.8477
 3184TIP3    H131043   5.432   6.662  11.765 -0.6445  0.2040  0.2237
 3184TIP3    H231044   5.419   6.559  11.654  0.9481  1.2535 -0.9791
 3185TIP3   OH231045   2.677   1.398   4.486  0.5903 -0.4007 -0.3326
 3185TIP3    H131046   2.731   1.392   4.565  0.8585 -0.1742 -0.4986
 3185TIP3    H231047   2.725   1.458   4.429 -1.3999  2.5084  0.8137
 3186TIP3   OH231048   0.992   3.056  13.887  0.9068  0.1186  0.4112
 3186TIP3    H131049   1.058   3.066  13.956  1.6948 -1.2372 -0.0953
 3186TIP3    H231050   0.939   2.981  13.916  1.1130 -0.3226 -0.3414
 3187TIP3   OH231051   1.694   0.579  11.500  0.4894  0.3529  0.1987
 3187TIP3    H131052   1.707   0.485  11.496 -1.3158  0.0950 -1.0011
 3187TIP3    H231053   1.643   0.600  11.422  0.4969  2.2663  0.6439
 3188TIP3   OH231054   1.110   6.709  15.118 -0.5648  0.6332 -0.3757
 3188TIP3    H131055   1.041   6.682  15.178  0.0949 -1.8218 -0.6070
 3188TIP3    H231056   1.066   6.714  15.033 -0.8256  0.8319 -0.2307
 3189TIP3   OH231057   3.033   1.708   5.296  0.4309  0.2211 -0.2538
 3189TIP3    H131058   3.105   1.698   5.233  2.2368  0.9227  1.5639
 3189TIP3    H231059   3.024   1.802   5.309 -0.6160  0.1281 -0.2147
 3190TIP3   OH231060   5.095   4.755  15.914  0.5858  0.1008  0.3600
 3190TIP3    H131061   5.162   4.764  15.846  0.7394 -0.8057  0.3795
 3190TIP3    H231062   5.144   4.730  15.993  0.2206 -0.7846  0.3249
 3191TIP3   OH231063   4.947   5.921   6.058  0.2533  0.0516 -0.0820
 3191TIP3    H131064   5.008   5.870   6.112 -0.9307  0.5871  1.8655
 3191TIP3    H231065   4.896   5.855   6.011  0.4486 -0.4777  0.4350
 3192TIP3   OH231066   3.538   2.616   1.269  0.3140  0.2748 -0.4161
 3192TIP3    H131067   3.522   2.620   1.363 -0.3516 -1.8653 -0.3881
 3192TIP3    H231068   3.454   2.592   1.231  0.4123  1.7209 -1.6690
 3193TIP3   OH231069   6.706   1.896  17.290  0.5952 -0.1866  0.3828
 3193TIP3    H131070   6.723   1.885  17.383 -0.5114 -1.9937  0.4110
 3193TIP3    H231071   6.693   1.807  17.257  0.4609  0.4513 -1.4003
 3194TIP3   OH231072   2.798   5.792  14.538 -0.1738 -0.3793  0.1325
 3194TIP3    H131073   2.861   5.835  14.480  0.0022 -0.1155  0.5123
 3194TIP3    H231074   2.751   5.731  14.482  0.3856 -0.5362 -0.1696
 3195TIP3   OH231075   1.950   2.763   1.916  0.0794  0.1794 -0.2758
 3195TIP3    H131076   1.932   2.798   1.829  0.3137 -0.7361 -0.7073
 3195TIP3    H231077   1.953   2.840   1.973 -0.6298  0.7363 -0.9774
 3196TIP3   OH231078   4.239   2.559   4.515  0.4339 -0.2254 -0.5738
 3196TIP3    H131079   4.171   2.626   4.519  0.0272 -0.6722  0.5225
 3196TIP3    H231080   4.282   2.564   4.601  1.0149 -0.7357 -0.8293
 3197TIP3   OH231081   5.856   2.738   2.606  0.0468  1.1291 -0.0518
 3197TIP3    H131082   5.839   2.678   2.679  2.3620  0.8665  0.3325
 3197TIP3    H231083   5.772   2.744   2.561 -1.0570  0.0826  1.7261
 3198TIP3   OH231084   0.793   6.610  17.302  0.2335  0.7061 -0.2116
 3198TIP3    H131085   0.847   6.664  17.245  0.4561  0.4927 -0.2057
 3198TIP3    H231086   0.751   6.673  17.361 -0.1839  0.9468 -0.7549
 3199TIP3   OH231087   0.346   0.952  12.256 -0.1561 -0.1353 -0.1769
 3199TIP3    H131088   0.364   0.973  12.165 -2.2933 -0.0717 -0.6431
 3199TIP3    H231089   0.393   1.019  12.306  2.2764 -1.0664 -1.1020
 3200TIP3   OH231090   5.568   2.931  14.040 -0.5006  0.6347  0.5994
 3200TIP3    H131091   5.648   2.907  14.085 -0.7180 -2.8461 -0.5325
 3200TIP3    H231092   5.597   2.978  13.962  0.0805  3.0353  2.1503
 3201TIP3   OH231093   0.533   3.725  16.439  0.1822  0.0679  0.4109
 3201TIP3    H131094   0.458   3.696  16.389 -1.1137  1.2892  1.5481
 3201TIP3    H231095   0.508   3.710  16.530  0.1379  2.9584  0.9631
 3202TIP3   OH231096   4.360   1.797  12.211  0.2041 -0.3271  0.2656
 3202TIP3    H131097   4.372   1.723  12.271  1.1289 -0.6603 -0.3025
 3202TIP3    H231098   4.397   1.872  12.259 -0.8829 -0.1791  0.9089
 3203TIP3   OH231099   3.548   5.951  14.008 -0.1747  0.1569  0.2419
 3203TIP3    H131100   3.488   5.877  14.014 -0.0988  0.1392  0.9665
 3203TIP3    H231101   3.543   5.993  14.094 -0.7894  1.4545 -0.4040
 3204TIP3   OH231102   6.020   5.767  16.553  0.5482 -0.3253  0.0143
 3204TIP3    H131103   5.969   5.813  16.486  1.7642  0.0914 -0.6554
 3204TIP3    H231104   6.028   5.678  16.520 -2.0984 -1.2366  1.4715
 3205TIP3   OH231105   2.135   0.849   5.037  0.0690 -0.6298  0.1680
 3205TIP3    H131106   2.071   0.778   5.040 -0.7232  0.0008 -1.0909
 3205TIP3    H231107   2.179   0.838   4.953  1.6874 -1.0812  1.0359
 3206TIP3   OH231108   3.714   2.323  12.626  0.1445  0.1913 -0.5187
 3206TIP3    H131109   3.697   2.229  12.631 -1.7518  0.4792 -0.5693
 3206TIP3    H231110   3.801   2.330  12.588  0.6381 -1.5504  0.1966
 3207TIP3   OH231111   3.488   6.542   3.010  0.4388 -0.3299  0.0128
 3207TIP3    H131112   3.401   6.510   2.989 -0.6839  2.3198  0.2054
 3207TIP3    H231113   3.547   6.472   2.982 -1.5578 -1.0628 -2.7201
 3208TIP3   OH231114   2.816   1.036  15.947 -0.1693  0.1944  0.2046
 3208TIP3    H131115   2.896   1.006  15.989 -1.2842 -1.7161  1.0685
 3208TIP3    H231116   2.787   0.961  15.895 -1.7509  0.6148  0.4483
 3209TIP3   OH231117   0.394   4.987   4.784 -0.0035  0.4957  0.0726
 3209TIP3    H131118   0.462   4.971   4.849  1.1383 -1.3505 -1.4439
 3209TIP3    H231119   0.328   4.921   4.802  0.8569 -0.8058 -1.2310
 3210TIP3   OH231120   4.857   2.195   5.508  0.5643 -0.3400 -0.6515
 3210TIP3    H131121   4.876   2.142   5.585  0.3023 -0.1342 -0.4407
 3210TIP3    H231122   4.914   2.272   5.517 -1.6538  1.2621  1.0174
 3211TIP3   OH231123   6.790   4.024  11.054 -0.5828  0.2870 -0.0388
 3211TIP3    H131124   6.864   3.968  11.028 -1.1140 -0.2952 -0.3340
 3211TIP3    H231125   6.831   4.099  11.097  0.1676 -0.1709  0.0744
 3212TIP3   OH231126   3.422   5.919  10.659  0.1682  0.0640  0.1216
 3212TIP3    H131127   3.507   5.908  10.701  0.2453  1.3027  0.3431
 3212TIP3    H231128   3.363   5.861  10.707  1.0561 -1.5332 -0.6387
 3213TIP3   OH231129   4.542   4.923  17.372  0.0725  0.5301 -0.7843
 3213TIP3    H131130   4.614   4.985  17.384  0.2491  0.3458 -0.8827
 3213TIP3    H231131   4.464   4.971  17.400  0.2332  0.7308 -0.6771
 3214TIP3   OH231132   3.760   1.877  13.840  0.2204 -0.6460  0.1534
 3214TIP3    H131133   3.799   1.826  13.911  1.1081 -0.3492 -0.1066
 3214TIP3    H231134   3.832   1.893  13.779 -0.2766  0.0552 -0.2708
 3215TIP3   OH231135   6.361   6.394   6.556  0.5059 -0.8528 -0.1088
 3215TIP3    H131136   6.449   6.429   6.545  0.6242 -1.3599 -0.8568
 3215TIP3    H231137   6.309   6.434   6.487  0.3848 -1.2894 -0.2787
 3216TIP3   OH231138   5.411   0.252  10.862  0.1757  0.4509 -0.0430
 3216TIP3    H131139   5.433   0.338  10.827  0.6925  0.1353 -0.4961
 3216TIP3    H231140   5.452   0.250  10.949  1.2043  0.2068 -0.5203
 3217TIP3   OH231141   5.885   1.807  15.286  0.2908  0.1811 -0.1095
 3217TIP3    H131142   5.873   1.870  15.357  1.0599  1.0363 -0.7036
 3217TIP3    H231143   5.904   1.862  15.209 -0.3766 -0.7260 -0.9365
 3218TIP3   OH231144   3.875   0.206   5.047  0.4406  0.5205  0.1935
 3218TIP3    H131145   3.779   0.207   5.055  0.3985  0.6233 -0.3080
 3218TIP3    H231146   3.891   0.221   4.954  0.8757 -2.4906 -0.3070
 3219TIP3   OH231147   3.544   5.631  13.547  0.2595  0.2197 -0.3022
 3219TIP3    H131148   3.636   5.620  13.569 -0.1207 -1.1954  0.7599
 3219TIP3    H231149   3.540   5.618  13.452  1.1293  0.1055 -0.3313
 3220TIP3   OH231150   3.104   6.557   0.239 -0.2970  0.2378  0.6896
 3220TIP3    H131151   3.086   6.489   0.303  0.5051 -0.4447  0.2141
 3220TIP3    H231152   3.172   6.611   0.280  0.4736 -0.4069  0.2958
 3221TIP3   OH231153   6.548   0.390  11.090  0.2561  0.2523  0.2017
 3221TIP3    H131154   6.468   0.355  11.129  0.2620  1.1487  1.0761
 3221TIP3    H231155   6.558   0.476  11.130  1.3046  0.4277 -0.3970
 3222TIP3   OH231156   4.702   0.099   3.768  0.1005  0.3138  0.3483
 3222TIP3    H131157   4.711   0.004   3.775  0.2952 -0.0242 -3.0490
 3222TIP3    H231158   4.608   0.115   3.778  0.0197 -0.2619  0.5680
 3223TIP3   OH231159   6.701   1.675  10.808 -0.2021 -0.3184 -0.0145
 3223TIP3    H131160   6.749   1.714  10.881  0.0580  2.0504 -1.3288
 3223TIP3    H231161   6.615   1.719  10.810 -0.4076 -0.6737 -0.7506
 3224TIP3   OH231162   1.532   1.425   4.653 -0.4322  0.4205  0.0717
 3224TIP3    H131163   1.508   1.337   4.684  0.0164 -0.6200 -2.3617
 3224TIP3    H231164   1.453   1.478   4.667 -1.5035 -0.9611 -0.5614
 3225TIP3   OH231165   3.995   3.666  12.105 -0.0751 -0.4217  0.5276
 3225TIP3    H131166   3.908   3.705  12.102  0.4404  0.7608  0.3230
 3225TIP3    H231167   4.014   3.642  12.015 -0.2020 -0.7196  0.5787
 3226TIP3   OH231168   4.727   2.662   2.360 -0.0982  0.4480 -0.3739
 3226TIP3    H131169   4.651   2.668   2.418 -0.2981 -3.5939  0.0970
 3226TIP3    H231170   4.691   2.645   2.273  0.1838 -1.1114 -0.2175
 3227TIP3   OH231171   6.309   1.430   3.473 -0.5938  0.4683 -0.2570
 3227TIP3    H131172   6.317   1.507   3.418  1.6963 -0.0106 -0.6920
 3227TIP3    H231173   6.262   1.366   3.419  0.1631  0.5677 -1.0601
 3228TIP3   OH231174   5.851   4.820   5.705  0.0664 -0.3801  0.8329
 3228TIP3    H131175   5.765   4.861   5.711  0.5588  0.9755 -0.4807
 3228TIP3    H231176   5.888   4.829   5.792 -1.2352 -1.3129  1.5188
 3229TIP3   OH231177   1.200   3.583  13.311 -0.2910 -0.1510  0.5984
 3229TIP3    H131178   1.107   3.561  13.319 -0.6996  0.7767 -1.1122
 3229TIP3    H231179   1.226   3.608  13.399 -1.4076 -1.3365  1.3031
 3230TIP3   OH231180   2.344   1.911  14.496 -0.0143 -0.2997 -0.4476
 3230TIP3    H131181   2.272   1.882  14.439  0.3980 -1.3571 -0.4421
 3230TIP3    H231182   2.403   1.836  14.500  1.0196  0.5068 -0.3223
 3231TIP3   OH231183   2.035   1.974   2.788  0.2381 -0.2535  0.0840
 3231TIP3    H131184   2.107   1.911   2.783 -1.9971 -2.8990 -2.8510
 3231TIP3    H231185   2.048   2.032   2.714 -0.0727 -0.0531  0.1846
 3232TIP3   OH231186   5.590   5.893   6.823  0.3932 -0.0714  0.2859
 3232TIP3    H131187   5.616   5.841   6.899  1.8108 -0.0434 -0.1449
 3232TIP3    H231188   5.670   5.900   6.771 -0.3213  0.7052 -0.7421
 3233TIP3   OH231189   3.627   0.749  10.657  0.4438 -0.1931  0.8493
 3233TIP3    H131190   3.688   0.766  10.585  0.0172 -1.2748  0.2078
 3233TIP3    H231191   3.576   0.829  10.664 -0.0753 -0.3702 -0.6307
 3234TIP3   OH231192   2.493   4.410  10.927  0.1186  0.1149  0.6439
 3234TIP3    H131193   2.588   4.394  10.928  0.0298 -0.4217  0.4743
 3234TIP3    H231194   2.480   4.467  10.851  0.6763  2.6147  2.3006
 3235TIP3   OH231195   3.822   5.017  11.642  0.5630 -0.3279  0.8975
 3235TIP3    H131196   3.910   4.982  11.657  1.7354  1.5934 -0.9340
 3235TIP3    H231197   3.774   4.996  11.722  1.8737 -3.7194  0.9415
 3236TIP3   OH231198   2.920   5.526   5.534  0.2468 -0.1338 -0.2569
 3236TIP3    H131199   2.910   5.435   5.508  0.1020 -0.3334  0.4717
 3236TIP3    H231200   2.967   5.567   5.461  1.3998 -1.0695 -0.0662
 3237TIP3   OH231201   2.872   0.803   5.378 -0.0372  0.2158  0.1557
 3237TIP3    H131202   2.861   0.880   5.433 -0.7718  0.5048 -0.3842
 3237TIP3    H231203   2.948   0.822   5.324  0.9975 -0.2760  1.3959
 3238TIP3   OH231204   3.864   2.042   1.283  0.1799  0.7497 -0.2743
 3238TIP3    H131205   3.835   2.000   1.364  2.6568 -1.0390 -0.1840
 3238TIP3    H231206   3.873   2.134   1.305  0.8117  0.2915  1.5212
 3239TIP3   OH231207   3.702   2.760  11.352  0.3401  0.0292  0.2703
 3239TIP3    H131208   3.652   2.834  11.318  0.1244  0.2934  1.1386
 3239TIP3    H231209   3.752   2.796  11.425  2.5319 -0.0180 -1.1226
 3240TIP3   OH231210   5.788   6.514   4.981 -0.5326  0.6466 -0.1953
 3240TIP3    H131211   5.760   6.474   5.063 -1.9768  0.0113 -0.9760
 3240TIP3    H231212   5.878   6.544   4.999 -0.6514  0.1110  1.4539
 3241TIP3   OH231213   4.458   2.441   3.106 -0.1449  0.1111  0.0759
 3241TIP3    H131214   4.488   2.478   3.023 -0.3068 -1.3280 -0.6675
 3241TIP3    H231215   4.522   2.471   3.170  1.7581 -1.1483 -1.1044
 3242TIP3   OH231216   3.011   6.458  15.837 -0.2294  0.6426 -0.5941
 3242TIP3    H131217   2.930   6.453  15.786  0.5155  4.5761 -2.5775
 3242TIP3    H231218   3.066   6.389  15.802 -2.3733 -1.6893  0.3436
 3243TIP3   OH231219   5.847   3.978   2.755 -0.1924 -1.0564  0.3824
 3243TIP3    H131220   5.797   3.897   2.764  1.0089 -1.9550 -0.6575
 3243TIP3    H231221   5.938   3.951   2.768  0.1454  0.3170  0.9984
 3244TIP3   OH231222   3.643   2.726  16.294 -0.3454  0.3885  0.2144
 3244TIP3    H131223   3.560   2.725  16.341  0.2676 -1.0319  1.3748
 3244TIP3    H231224   3.637   2.654  16.231 -0.1262  0.4991  0.0626
 3245TIP3   OH231225   4.598   3.021  13.071 -0.7267 -0.5586 -0.3101
 3245TIP3    H131226   4.562   2.999  13.156 -1.1055 -0.4277 -0.4356
 3245TIP3    H231227   4.551   3.100  13.045  0.6829  0.4827  0.1838
 3246TIP3   OH231228   4.780   6.562  13.090  0.0712  0.0604  0.2012
 3246TIP3    H131229   4.749   6.621  13.159  0.7540 -0.7429  1.2280
 3246TIP3    H231230   4.874   6.557  13.103 -0.0875 -2.2437  0.9898
 3247TIP3   OH231231   4.838   6.144  12.001  0.2435 -0.3332 -0.3681
 3247TIP3    H131232   4.769   6.208  11.983  0.5309  0.3365  0.8097
 3247TIP3    H231233   4.794   6.074  12.050 -0.1948 -1.3676 -2.1466
 3248TIP3   OH231234   6.263   6.747   1.969 -0.5364 -0.6100 -0.5036
 3248TIP3    H131235   6.238   6.771   1.880 -0.8837  0.1350 -0.2158
 3248TIP3    H231236   6.295   6.829   2.007 -0.6226 -0.8696  0.1326
 3249TIP3   OH231237   4.317   2.980  14.255  0.3633  0.1267  0.2557
 3249TIP3    H131238   4.283   2.892  14.272 -0.5161  0.5684  0.8520
 3249TIP3    H231239   4.387   2.991  14.320  0.1012  0.0728  0.5498
 3250TIP3   OH231240   6.321   1.585   6.263  0.3379 -0.3705  0.0071
 3250TIP3    H131241   6.372   1.659   6.228  0.1736 -0.4521 -0.4174
 3250TIP3    H231242   6.363   1.565   6.346 -1.0592  1.7344  1.3303
 3251TIP3   OH231243   3.827   1.130   0.581 -0.7748  0.0863 -0.2880
 3251TIP3    H131244   3.849   1.160   0.493  0.3931 -0.9883 -0.3957
 3251TIP3    H231245   3.733   1.143   0.588 -0.6652  1.6592 -1.1066
 3252TIP3   OH231246   2.860   4.184   4.795  0.1314 -0.5011 -0.3064
 3252TIP3    H131247   2.834   4.094   4.775 -0.5938  0.0899 -2.3778
 3252TIP3    H231248   2.780   4.235   4.783  0.7728  0.5450 -0.2860
 3253TIP3   OH231249   5.975   6.383   0.006  0.2190  0.7388  0.6047
 3253TIP3    H131250   5.931   6.432   0.075  2.1381  1.3065  1.4900
 3253TIP3    H231251   5.955   6.431  -0.075 -1.6043  0.3682  0.7974
 3254TIP3   OH231252   0.209   1.587  17.372  0.5439  0.5613  0.3074
 3254TIP3    H131253   0.208   1.652  17.302  0.0340 -0.6770 -0.9095
 3254TIP3    H231254   0.137   1.612  17.429 -2.1258 -0.8648 -2.1408
 3255TIP3   OH231255   2.802   1.417  12.050 -0.4136 -0.0445 -0.0633
 3255TIP3    H131256   2.799   1.373  11.965 -2.1778 -0.5973  0.2495
 3255TIP3    H231257   2.896   1.428  12.068  0.0354 -1.8091 -1.1037
 3256TIP3   OH231258   1.012   2.752   1.272 -0.1422  0.0748 -0.0854
 3256TIP3    H131259   1.011   2.660   1.243  0.1211  0.0844 -0.1321
 3256TIP3    H231260   0.994   2.747   1.365 -2.0233  0.1204 -0.4147
 3257TIP3   OH231261   6.026   4.605  11.289  0.4562 -0.1991  0.6317
 3257TIP3    H131262   6.070   4.605  11.204 -1.7874  1.4210 -0.6205
 3257TIP3    H231263   6.026   4.697  11.316 -0.9496 -0.3571  1.2332
 3258TIP3   OH231264   3.484   6.585  13.322 -0.3139  0.7006  0.1146
 3258TIP3    H131265   3.515   6.666  13.281 -0.8376  0.4656 -0.7607
 3258TIP3    H231266   3.524   6.586  13.409  0.1489  1.6167 -0.0942
 3259TIP3   OH231267   6.428   1.237  15.763 -0.0655 -0.4792  0.0738
 3259TIP3    H131268   6.481   1.203  15.835  0.9451  1.0737  0.1085
 3259TIP3    H231269   6.339   1.242  15.799 -0.1141 -2.2441  0.3095
 3260TIP3   OH231270   6.213   4.595   6.634 -0.2556 -0.2524  0.3847
 3260TIP3    H131271   6.175   4.674   6.672  0.3871  0.5524 -0.5857
 3260TIP3    H231272   6.297   4.584   6.679  0.1942  0.3068 -0.3096
 3261TIP3   OH231273   3.518   5.991  16.151  0.0052  0.2544 -0.5127
 3261TIP3    H131274   3.553   6.061  16.206 -0.5626  0.6530 -0.6489
 3261TIP3    H231275   3.433   5.970  16.188  1.2227 -2.2195  1.1274
 3262TIP3   OH231276   6.252   1.326   4.656 -0.4597  0.7522 -0.0472
 3262TIP3    H131277   6.269   1.414   4.624  0.4124  1.3832  1.9601
 3262TIP3    H231278   6.332   1.277   4.636 -0.4855  0.7414 -0.1235
 3263TIP3   OH231279   6.742   4.104  13.366  0.1314 -0.5701  0.1971
 3263TIP3    H131280   6.657   4.064  13.346  0.8697 -0.9393 -2.6353
 3263TIP3    H231281   6.725   4.198  13.366 -0.3779 -0.6577  0.0951
 3264TIP3   OH231282   2.815   0.771  16.363 -0.1002 -0.3698 -0.7405
 3264TIP3    H131283   2.837   0.864  16.365  2.2149 -0.8734  0.8349
 3264TIP3    H231284   2.896   0.728  16.335 -1.0411 -1.9668 -1.1569
 3265TIP3   OH231285   3.490   6.557   2.395 -0.0204  0.2923 -0.4919
 3265TIP3    H131286   3.452   6.572   2.482  1.6539 -0.4752  0.4277
 3265TIP3    H231287   3.550   6.630   2.382  1.9414 -1.0723  0.3568
 3266TIP3   OH231288   5.929   4.603  13.296  0.5927  0.2020 -0.6561
 3266TIP3    H131289   5.838   4.635  13.291  1.2816  2.3236 -0.4599
 3266TIP3    H231290   5.923   4.523  13.348 -1.1259  0.4243 -0.4435
 3267TIP3   OH231291   1.070   0.604   4.143  0.2226 -0.0571 -0.1204
 3267TIP3    H131292   1.014   0.534   4.108  1.6134 -0.7024 -1.1632
 3267TIP3    H231293   1.144   0.608   4.082  0.8380  1.4260  0.6792
 3268TIP3   OH231294   1.964   4.027  13.266  0.7815  0.0789 -0.1904
 3268TIP3    H131295   2.051   4.069  13.267  0.4486  0.8118 -0.7463
 3268TIP3    H231296   1.912   4.082  13.207  0.0407 -0.5662 -0.1517
 3269TIP3   OH231297   6.107   0.638  15.234  0.6530  0.8278 -0.2947
 3269TIP3    H131298   6.015   0.618  15.218  0.0622  0.3519  3.0099
 3269TIP3    H231299   6.109   0.732  15.250  0.6682  0.7868 -0.0472
 3270TIP3   OH231300   4.397   0.353  13.506  0.0055 -0.5766  0.0824
 3270TIP3    H131301   4.375   0.277  13.452  1.4440 -0.1981 -1.1194
 3270TIP3    H231302   4.456   0.405  13.451 -0.1309  0.8985  1.2588
 3271TIP3   OH231303   3.958   4.066   2.387  0.0443  0.8413  0.0052
 3271TIP3    H131304   4.003   4.060   2.471 -0.4438  1.7623  0.3492
 3271TIP3    H231305   3.916   3.980   2.376  2.5030 -0.3421 -0.7314
 3272TIP3   OH231306   5.447   5.840  15.154  0.0762 -0.0904 -0.2744
 3272TIP3    H131307   5.470   5.848  15.061  1.7982 -0.4384  0.0788
 3272TIP3    H231308   5.466   5.749  15.175 -0.6147 -0.0924  0.3448
 3273TIP3   OH231309   4.644   6.443   6.294 -0.2788  0.1956 -0.4629
 3273TIP3    H131310   4.727   6.415   6.332 -1.2807  0.2043  1.8825
 3273TIP3    H231311   4.665   6.525   6.249  0.5626  1.6090  2.2942
 3274TIP3   OH231312   3.189   4.385   5.989  0.0607  0.4540 -0.1961
 3274TIP3    H131313   3.241   4.306   5.979 -0.1645  0.2035  0.5669
 3274TIP3    H231314   3.115   4.359   6.044 -0.1114  1.1479 -0.0845
 3275TIP3   OH231315   2.760   6.089   0.497 -0.1902  0.3870 -0.0479
 3275TIP3    H131316   2.749   6.069   0.404 -1.8961  3.2099 -0.5825
 3275TIP3    H231317   2.835   6.149   0.499  0.5998 -0.5985  0.5908
 3276TIP3   OH231318   3.656   4.049  16.455  0.0529  0.0212 -0.3492
 3276TIP3    H131319   3.577   4.011  16.494  0.8004  0.2010  1.4283
 3276TIP3    H231320   3.632   4.138  16.432 -0.5674 -0.2651 -0.8127
 3277TIP3   OH231321   2.409   1.125   2.021 -0.4019  0.2263  0.0728
 3277TIP3    H131322   2.415   1.219   2.002 -2.1281  0.3833  0.2164
 3277TIP3    H231323   2.442   1.082   1.941 -1.2268  0.9376 -0.6628
 3278TIP3   OH231324   4.499   3.479  17.326 -0.2278  0.7375  0.1677
 3278TIP3    H131325   4.504   3.574  17.321  1.1340  0.6333 -2.9904
 3278TIP3    H231326   4.584   3.453  17.362  0.5952  0.6945 -1.6978
 3279TIP3   OH231327   4.431   2.638   2.797 -0.1335 -0.0233 -0.6528
 3279TIP3    H131328   4.351   2.686   2.777  0.0764  0.3721 -0.5608
 3279TIP3    H231329   4.496   2.707   2.815 -0.1289 -0.3494  0.6568
 3280TIP3   OH231330   5.886   3.566  14.351  0.3773  0.3089 -0.3283
 3280TIP3    H131331   5.800   3.568  14.310  0.4476  0.5733 -0.4644
 3280TIP3    H231332   5.873   3.516  14.431  0.1303  0.2202 -0.4215
 3281TIP3   OH231333   3.787   5.688  13.714  0.4364 -0.0388 -0.2196
 3281TIP3    H131334   3.832   5.760  13.758  0.3478  0.2840 -0.6582
 3281TIP3    H231335   3.856   5.641  13.668  0.5907 -0.6060  0.5563
 3282TIP3   OH231336   2.746   0.830  16.777  0.7531  0.1448  0.6112
 3282TIP3    H131337   2.727   0.813  16.869  1.9291 -1.0084  0.6599
 3282TIP3    H231338   2.744   0.925  16.769  1.3164  0.2849  1.9832
 3283TIP3   OH231339   4.062   2.947  13.721  0.2923 -0.8524  0.5463
 3283TIP3    H131340   4.123   2.935  13.649 -1.8755 -0.6183 -1.4495
 3283TIP3    H231341   3.994   2.882  13.706 -1.6440  1.0044  0.7118
 3284TIP3   OH231342   2.933   5.158  13.843  0.6592 -0.1116  0.1597
 3284TIP3    H131343   2.912   5.088  13.905  0.3019  0.6185  0.8870
 3284TIP3    H231344   2.901   5.237  13.886  1.1990  0.5145 -0.5824
 3285TIP3   OH231345   6.030   4.857  14.074  1.0412  0.1639  0.0643
 3285TIP3    H131346   6.000   4.766  14.068 -1.4585  0.9254 -0.3215
 3285TIP3    H231347   5.976   4.896  14.142 -0.6158  2.2014 -2.2057
 3286TIP3   OH231348   4.960   6.354  14.032 -0.3258  0.5887 -0.5801
 3286TIP3    H131349   5.054   6.351  14.051 -0.2149 -0.1181 -1.1781
 3286TIP3    H231350   4.919   6.318  14.110 -0.2073  2.1717  0.2505
 3287TIP3   OH231351   5.554   1.109  12.147 -0.0546 -0.0981  0.1941
 3287TIP3    H131352   5.632   1.161  12.164  0.3240 -1.2874  2.4112
 3287TIP3    H231353   5.525   1.079  12.233 -3.1133  0.4681 -0.5137
 3288TIP3   OH231354   0.166   4.878  11.022 -0.6853  0.4958  0.8816
 3288TIP3    H131355   0.204   4.812  10.964  1.0357  1.4913  0.8153
 3288TIP3    H231356   0.111   4.828  11.082  0.0277 -0.9235  0.3961
 3289TIP3   OH231357   6.646   0.592  13.153 -0.4154 -0.6971 -0.6294
 3289TIP3    H131358   6.553   0.612  13.162  0.0800  1.2537  0.8064
 3289TIP3    H231359   6.668   0.540  13.230 -0.2886 -1.1450 -0.9595
 3290TIP3   OH231360   4.680   4.518   0.783 -0.2433 -0.2551 -0.1204
 3290TIP3    H131361   4.758   4.524   0.839 -0.6941 -0.3476  0.5233
 3290TIP3    H231362   4.698   4.443   0.725  0.1062 -0.3344  0.0882
 3291TIP3   OH231363   4.055   3.239   1.988  0.3115  0.0349 -0.1338
 3291TIP3    H131364   4.137   3.272   1.952  0.8222 -0.1485  0.8277
 3291TIP3    H231365   4.040   3.156   1.943  0.5931  0.1269 -0.3939
 3292TIP3   OH231366   5.166   1.634  11.749  0.3632 -0.4085 -0.4250
 3292TIP3    H131367   5.101   1.701  11.728 -1.0310 -1.0484  1.5978
 3292TIP3    H231368   5.117   1.552  11.744  1.7631 -1.2097 -1.7102
 3293TIP3   OH231369   5.825   4.324  16.981 -0.2248  0.1377 -0.0460
 3293TIP3    H131370   5.806   4.369  17.064 -0.7285 -1.2028  0.5937
 3293TIP3    H231371   5.824   4.231  17.004  1.9811 -0.2066 -1.0831
 3294TIP3   OH231372   0.821   5.798  13.465  0.1551  0.0885  0.9007
 3294TIP3    H131373   0.856   5.716  13.428 -0.9049 -0.2177  0.5363
 3294TIP3    H231374   0.793   5.848  13.389 -0.8556  0.0118  1.2125
 3295TIP3   OH231375   0.184   5.076  15.399 -0.1833 -0.5128  0.2831
 3295TIP3    H131376   0.092   5.047  15.400  0.0133 -1.1716  0.2045
 3295TIP3    H231377   0.193   5.123  15.316 -0.3673 -0.7636  0.1160
 3296TIP3   OH231378   0.839   4.482  17.100  0.1925 -0.0867 -0.0777
 3296TIP3    H131379   0.926   4.482  17.059  0.2394 -0.5456  0.0137
 3296TIP3    H231380   0.846   4.545  17.172 -0.0467  1.1353 -1.0805
 3297TIP3   OH231381   4.984   1.990   3.336 -0.2302  0.0830  0.1018
 3297TIP3    H131382   5.052   2.046   3.373 -0.2178 -0.8050  1.5363
 3297TIP3    H231383   4.915   2.050   3.308  1.6333  1.1211 -2.6205
 3298TIP3   OH231384   0.651   5.962   4.618 -0.3232  0.6019 -0.2244
 3298TIP3    H131385   0.671   5.889   4.560 -1.0771 -0.4150  0.7386
 3298TIP3    H231386   0.726   5.967   4.677 -0.8436 -0.2755  0.5388
 3299TIP3   OH231387   6.163   5.489  15.885 -0.2181  0.4986  0.1544
 3299TIP3    H131388   6.186   5.520  15.797 -1.0819  1.0995  0.1274
 3299TIP3    H231389   6.238   5.511  15.939  0.0341  0.7472 -0.2959
 3300TIP3   OH231390   5.895   4.719  15.570  0.1705  0.2559 -0.4197
 3300TIP3    H131391   5.946   4.640  15.588 -1.0617 -0.0280  2.4546
 3300TIP3    H231392   5.892   4.765  15.654  0.4988  3.1977 -1.9161
 3301TIP3   OH231393   1.584   6.507   5.352 -0.1816  0.0148  0.0177
 3301TIP3    H131394   1.594   6.597   5.385 -0.1973  0.3807 -0.9435
 3301TIP3    H231395   1.496   6.481   5.380 -0.0394  0.1486  0.6217
 3302TIP3   OH231396   5.597   5.767   2.404  0.4481  0.5754  0.0188
 3302TIP3    H131397   5.551   5.720   2.474  1.3044 -0.5269 -0.1140
 3302TIP3    H231398   5.550   5.743   2.324  2.7557 -2.9182 -0.5381
 3303TIP3   OH231399   2.632   5.494   2.430 -0.4122 -0.2714 -0.1094
 3303TIP3    H131400   2.656   5.558   2.498  0.9479 -0.2613 -0.5715
 3303TIP3    H231401   2.703   5.430   2.431  0.9462  1.0119 -3.1387
 3304TIP3   OH231402   0.345   4.741   5.223 -0.8945  0.5116  0.3334
 3304TIP3    H131403   0.398   4.798   5.278  0.0122  1.4786 -1.4292
 3304TIP3    H231404   0.407   4.676   5.189 -1.4644 -0.1559  0.5476
 3305TIP3   OH231405   6.023   2.938   5.541 -0.5250 -0.0820  0.4752
 3305TIP3    H131406   6.021   2.846   5.571  0.2652 -0.3618 -0.3051
 3305TIP3    H231407   5.975   2.937   5.458  1.0225 -0.1546 -0.4588
 3306TIP3   OH231408   1.106   5.124   4.108 -0.1868 -0.2718 -0.5033
 3306TIP3    H131409   1.040   5.183   4.071  0.3485  0.3164 -0.5396
 3306TIP3    H231410   1.157   5.179   4.167  0.4102 -0.6636 -0.6467
 3307TIP3   OH231411   5.900   5.817   3.560 -0.2040  0.1160 -0.6208
 3307TIP3    H131412   5.879   5.909   3.543 -1.9171  0.2403  1.6999
 3307TIP3    H231413   5.992   5.818   3.587  0.4711  0.7816 -2.8007
 3308TIP3   OH231414   4.927   5.947  12.837 -0.1032  0.5796 -0.4331
 3308TIP3    H131415   4.987   6.004  12.883  0.3957 -0.1798 -0.1218
 3308TIP3    H231416   4.850   6.002  12.819 -1.1045  0.4847  2.8371
 3309TIP3   OH231417   5.701   0.957  16.508 -0.0074  0.0695  0.2396
 3309TIP3    H131418   5.731   0.929  16.594 -0.6989 -0.3336  0.3555
 3309TIP3    H231419   5.746   0.899  16.447 -1.7914 -1.7099  0.5055
 3310TIP3   OH231420   3.054   1.325  16.281  0.3553 -0.1939  0.5644
 3310TIP3    H131421   3.077   1.307  16.190 -0.8198  0.9678  0.0004
 3310TIP3    H231422   2.968   1.285  16.293 -1.6960  3.4667 -0.3218
 3311TIP3   OH231423   0.592   0.270   4.540  0.1153  0.2431  0.1096
 3311TIP3    H131424   0.673   0.227   4.515  0.0104  0.2853 -0.3096
 3311TIP3    H231425   0.543   0.204   4.590 -1.2597 -1.1222 -2.7990
 3312TIP3   OH231426   4.737   6.150  11.425 -0.1559 -0.4950 -0.0215
 3312TIP3    H131427   4.826   6.134  11.455  0.0298  0.2244 -0.1694
 3312TIP3    H231428   4.683   6.149  11.504  0.4370  2.1962  0.5274
 3313TIP3   OH231429   6.110   4.950  15.687  0.1708 -0.0494 -0.1409
 3313TIP3    H131430   6.034   4.905  15.724 -0.2030  1.3812  0.9018
 3313TIP3    H231431   6.152   4.993  15.762  1.4244  0.0446 -0.8585
 3314TIP3   OH231432   1.765   4.538   2.018  0.6453 -0.4551 -0.2941
 3314TIP3    H131433   1.791   4.617   1.969 -1.1214  0.0798 -0.4329
 3314TIP3    H231434   1.774   4.563   2.110  1.3649 -0.5554 -0.3292
 3315TIP3   OH231435   6.405   5.736   3.933  0.2357  0.4992 -0.1186
 3315TIP3    H131436   6.442   5.823   3.920 -0.4531  0.3984 -4.3503
 3315TIP3    H231437   6.463   5.677   3.885 -0.6675 -0.9945  0.5280
 3316TIP3   OH231438   6.783   5.006   4.140 -0.2369 -0.1281 -0.4703
 3316TIP3    H131439   6.745   5.072   4.198 -0.2479  0.2714 -0.9270
 3316TIP3    H231440   6.865   4.981   4.183 -0.0090  0.5151 -0.5179
 3317TIP3   OH231441   3.866   4.804   2.446 -0.1546 -0.0419  0.5627
 3317TIP3    H131442   3.772   4.820   2.447 -0.0580  0.7304 -0.9070
 3317TIP3    H231443   3.895   4.828   2.534 -1.0851  1.3413  0.5237
 3318TIP3   OH231444   3.409   0.081  11.413  0.2587 -0.0654  0.0004
 3318TIP3    H131445   3.502   0.095  11.396  0.9136 -3.4695  0.0927
 3318TIP3    H231446   3.370   0.066  11.327  0.4433 -1.5625  0.1461
 3319TIP3   OH231447   3.455   6.034   0.309  0.2479  0.3061  0.1293
 3319TIP3    H131448   3.548   6.012   0.310  0.2623  0.3636  1.7093
 3319TIP3    H231449   3.417   5.981   0.379 -0.2895  2.8333  1.8642
 3320TIP3   OH231450   6.665   6.476   1.290  0.2068 -0.5800  0.4903
 3320TIP3    H131451   6.687   6.424   1.212 -0.7643  1.0217 -0.9202
 3320TIP3    H231452   6.727   6.548   1.289 -3.3447  2.8643 -2.3958
 3321TIP3   OH231453   3.228   1.307   1.485 -0.2335  0.3196 -0.0225
 3321TIP3    H131454   3.231   1.394   1.525 -0.5295 -1.1273  3.4951
 3321TIP3    H231455   3.154   1.264   1.527  0.9764 -2.2165 -0.3025
 3322TIP3   OH231456   5.713   3.565  12.801 -0.2263 -0.4121  0.5482
 3322TIP3    H131457   5.657   3.641  12.809 -2.7338 -2.1354  0.4672
 3322TIP3    H231458   5.740   3.564  12.709  0.7341  0.9028  0.7845
 3323TIP3   OH231459   6.792   2.440   0.808  0.2794 -0.0005 -0.2118
 3323TIP3    H131460   6.811   2.353   0.771 -0.5509  0.2636 -1.3080
 3323TIP3    H231461   6.856   2.450   0.878 -0.1211 -1.8426  0.4838
 3324TIP3   OH231462   2.105   6.608   3.540 -0.3771 -0.3281  0.3741
 3324TIP3    H131463   2.133   6.699   3.544 -1.2843 -0.0462  0.4556
 3324TIP3    H231464   2.171   6.560   3.589  0.8667  0.0899 -0.8297
 3325TIP3   OH231465   4.646   3.520   1.477 -0.0973 -0.5172  0.0195
 3325TIP3    H131466   4.622   3.429   1.493  1.8951 -0.8463  1.6830
 3325TIP3    H231467   4.736   3.515   1.444  0.5969  0.8575  1.5429
 3326TIP3   OH231468   5.192   4.524  12.284 -0.0177  0.5393 -0.7284
 3326TIP3    H131469   5.278   4.559  12.308 -1.0036  2.3054  0.4932
 3326TIP3    H231470   5.160   4.584  12.217 -0.5820  0.3407 -0.6377
 3327TIP3   OH231471   3.849   3.795   2.483 -0.4476 -0.1513 -0.1819
 3327TIP3    H131472   3.848   3.791   2.387 -0.7644 -1.2213 -0.1502
 3327TIP3    H231473   3.929   3.749   2.508 -0.1576  0.4723  0.0685
 3328TIP3   OH231474   5.848   3.870  16.679 -0.1616  0.4664  0.1253
 3328TIP3    H131475   5.824   3.835  16.594 -0.6527 -1.7614  1.1132
 3328TIP3    H231476   5.783   3.938  16.696 -0.6076  0.3072 -0.8654
 3329TIP3   OH231477   5.729   6.378  16.634  0.9137  0.3150  0.0648
 3329TIP3    H131478   5.717   6.411  16.545  3.4721  1.4693  0.0645
 3329TIP3    H231479   5.726   6.456  16.689 -0.0457 -0.3224  0.9438
 3330TIP3   OH231480   1.412   6.061   1.198  0.4109 -0.7131  0.1315
 3330TIP3    H131481   1.400   5.967   1.208 -0.1981 -0.5825  0.6753
 3330TIP3    H231482   1.500   6.070   1.160  1.0289 -1.4271  1.3341
 3331TIP3   OH231483   0.645   6.766  15.983 -0.0273  0.0177 -0.0668
 3331TIP3    H131484   0.660   6.690  15.927  1.4840 -0.2688  0.6679
 3331TIP3    H231485   0.565   6.806  15.949  0.9393 -0.0086 -2.5439
 3332TIP3   OH231486   1.698   0.372  15.107  0.0569  0.0894 -0.0163
 3332TIP3    H131487   1.773   0.384  15.048 -1.0700  0.1137 -1.4826
 3332TIP3    H231488   1.701   0.449  15.164  2.4461 -0.9977  1.5167
 3333TIP3   OH231489   5.153   3.046   3.615  0.6379  0.4855  0.1538
 3333TIP3    H131490   5.098   3.096   3.676  0.6209  1.1876 -0.4294
 3333TIP3    H231491   5.118   2.957   3.620 -1.5800  1.1871 -1.3085
 3334TIP3   OH231492   2.370   3.025   2.037  0.0071 -0.3871 -0.2576
 3334TIP3    H131493   2.443   3.060   1.985  0.4229 -0.5848  0.1789
 3334TIP3    H231494   2.304   3.000   1.973  1.1723 -2.1989 -0.8249
 3335TIP3   OH231495   3.767   0.710   2.072 -0.3411 -0.2564 -0.5037
 3335TIP3    H131496   3.830   0.651   2.031 -0.2645 -0.3922 -0.1917
 3335TIP3    H231497   3.686   0.660   2.075 -0.5834  0.0710 -1.2984
 3336TIP3   OH231498   4.525   2.107   1.004 -0.0731 -0.3503  0.5218
 3336TIP3    H131499   4.472   2.094   0.926  0.1368 -0.4854  0.3998
 3336TIP3    H231500   4.516   2.025   1.053 -1.2154  0.1911  1.2618
 3337TIP3   OH231501   0.908   4.624  11.585 -0.0122  0.1399  0.3850
 3337TIP3    H131502   1.000   4.629  11.557  0.0417  1.1225  0.7117
 3337TIP3    H231503   0.866   4.698  11.541 -0.8965 -0.9049 -0.5969
 3338TIP3   OH231504   5.537   0.128  10.387  0.2126 -0.0554 -0.1794
 3338TIP3    H131505   5.587   0.048  10.368  3.0681  1.1474  1.5882
 3338TIP3    H231506   5.508   0.116  10.478 -0.0171  0.5776 -0.1679
 3339TIP3   OH231507   4.789   0.939  12.199 -0.3162 -0.6152 -0.5520
 3339TIP3    H131508   4.786   0.917  12.292  0.2179  0.8007 -0.1714
 3339TIP3    H231509   4.863   0.889  12.165  0.0233 -0.4845 -0.0158
 3340TIP3   OH231510   5.683   1.843  15.987 -0.1371 -0.2234  0.1404
 3340TIP3    H131511   5.771   1.879  15.986  0.4545 -1.6165 -0.6386
 3340TIP3    H231512   5.694   1.752  15.961 -1.3302 -1.5369  3.6381
 3341TIP3   OH231513   6.243   4.645  14.791  1.0063 -0.1619 -0.7250
 3341TIP3    H131514   6.330   4.611  14.808  0.1187 -1.6354  1.1670
 3341TIP3    H231515   6.237   4.725  14.844  0.8183 -0.7068  0.0905
 3342TIP3   OH231516   2.569   6.193   1.946  0.5313 -0.0694  0.2801
 3342TIP3    H131517   2.606   6.109   1.921 -0.4421  0.3238 -2.8965
 3342TIP3    H231518   2.612   6.257   1.888 -1.3950  1.0818  0.0399
 3343TIP3   OH231519   3.404   6.178  17.274 -0.0755 -0.4244 -0.4260
 3343TIP3    H131520   3.363   6.211  17.354  0.5931 -0.0993 -0.2128
 3343TIP3    H231521   3.418   6.085  17.291 -0.4970 -0.4871 -0.4080
 3344TIP3   OH231522   2.686   0.599   1.302 -0.0309  0.3128 -0.3921
 3344TIP3    H131523   2.633   0.588   1.381  0.1821 -0.3821 -0.3359
 3344TIP3    H231524   2.639   0.549   1.235  0.1154  0.3849 -0.5479
 3345TIP3   OH231525   2.857   4.488  17.144 -0.3142 -0.3158  0.2719
 3345TIP3    H131526   2.895   4.565  17.103  1.3220 -1.3427 -0.2345
 3345TIP3    H231527   2.931   4.431  17.164 -1.5202 -2.1708 -0.1970
 3346TIP3   OH231528   3.237   2.010  17.344 -0.5509 -0.4116 -0.2808
 3346TIP3    H131529   3.236   2.061  17.425  1.1562 -0.6207 -0.1035
 3346TIP3    H231530   3.212   2.073  17.276  1.2276  0.6397 -0.0208
 3347TIP3   OH231531   4.076   1.087   2.315 -0.0980 -0.0148 -0.1288
 3347TIP3    H131532   4.028   1.015   2.275  1.0930 -0.8486 -0.0703
 3347TIP3    H231533   4.064   1.074   2.409 -1.9727  1.3225 -0.1184
 3348TIP3   OH231534   2.629   6.460  12.981  0.1453  0.3194 -0.1560
 3348TIP3    H131535   2.717   6.495  12.965 -0.3750  1.3205 -0.9396
 3348TIP3    H231536   2.617   6.467  13.075  1.1035 -0.3289  0.0266
 3349TIP3   OH231537   3.053   1.313  12.429  0.3961  0.0281 -0.0566
 3349TIP3    H131538   2.967   1.313  12.388  0.0213 -1.9120  0.6201
 3349TIP3    H231539   3.035   1.305  12.523  1.3050 -0.5195  0.0838
 3350TIP3   OH231540   6.194   1.924  12.783  0.6516  0.6404  0.0175
 3350TIP3    H131541   6.111   1.932  12.830 -0.0355 -1.0491 -0.8020
 3350TIP3    H231542   6.213   1.830  12.786  1.3601  0.7030 -1.7558
 3351TIP3   OH231543   4.327   1.061   1.392 -1.0677 -0.4943 -0.5193
 3351TIP3    H131544   4.291   1.114   1.321 -1.2565 -0.1124 -0.1388
 3351TIP3    H231545   4.255   1.006   1.421 -1.4253  0.4386  0.4019
 3352TIP3   OH231546   0.764   0.741   1.603  0.0079 -0.6000 -0.7117
 3352TIP3    H131547   0.697   0.754   1.670 -1.0149 -1.8800 -1.4144
 3352TIP3    H231548   0.811   0.663   1.631 -1.6612 -2.3074 -2.3291
 3353TIP3   OH231549   4.334   3.771   1.195  0.5085  0.0889  0.4792
 3353TIP3    H131550   4.275   3.710   1.151 -0.4450  0.7588  0.7886
 3353TIP3    H231551   4.422   3.744   1.167  0.1983 -1.9497  1.2527
 3354TIP3   OH231552   3.695   0.860   3.291 -0.9045  0.2394 -0.2437
 3354TIP3    H131553   3.753   0.867   3.367 -0.2513 -4.1761 -0.0645
 3354TIP3    H231554   3.615   0.905   3.318 -0.6052 -0.8676  3.0384
 3355TIP3   OH231555   1.134   4.218  10.403  0.0514  0.0789  0.4638
 3355TIP3    H131556   1.109   4.264  10.483 -1.5457 -0.5000  0.3353
 3355TIP3    H231557   1.228   4.234  10.395 -0.2741  2.6165  0.8541
 3356TIP3   OH231558   5.909   3.172  14.410 -0.2689 -0.2816  0.3726
 3356TIP3    H131559   5.853   3.106  14.449 -0.3251  0.5024  1.6773
 3356TIP3    H231560   5.916   3.240  14.477  2.2623 -0.3584  0.2736
 3357TIP3   OH231561   5.382   1.347   4.600  0.5554 -0.2607  0.0291
 3357TIP3    H131562   5.367   1.307   4.685 -0.0501  0.0311  0.0617
 3357TIP3    H231563   5.327   1.297   4.539  0.6780 -0.2102 -0.1258
 3358TIP3   OH231564   3.171   2.108  11.996  0.6171 -0.4971 -0.2786
 3358TIP3    H131565   3.111   2.132  11.925  1.1470  0.7709 -0.3265
 3358TIP3    H231566   3.174   2.012  11.993 -0.6618 -0.5471 -0.8780
 3359TIP3   OH231567   4.459   1.795   0.754  0.0692 -0.3342 -0.2746
 3359TIP3    H131568   4.423   1.708   0.737  1.6729 -0.8559 -1.1947
 3359TIP3    H231569   4.536   1.800   0.698  0.9655  1.0517  1.0179
 3360TIP3   OH231570   1.364   4.361  16.465  0.2100 -0.1282 -0.0561
 3360TIP3    H131571   1.358   4.425  16.393  1.4967 -1.3223 -1.2956
 3360TIP3    H231572   1.293   4.385  16.524 -0.4738  1.3316 -1.3853
 3361TIP3   OH231573   3.514   0.006   3.267 -0.5902  0.2250 -0.1060
 3361TIP3    H131574   3.607   0.004   3.245 -0.8419  1.1927 -1.3690
 3361TIP3    H231575   3.506   0.079   3.329  0.0564 -2.2641  3.2037
 3362TIP3   OH231576   5.322   3.991   5.892  0.3616 -0.1099  0.0891
 3362TIP3    H131577   5.315   4.079   5.929  1.0549 -0.7926  1.9540
 3362TIP3    H231578   5.415   3.968   5.902  0.0813 -1.2616  0.1741
 3363TIP3   OH231579   4.760   2.079   4.396 -0.0905  0.3379  0.0153
 3363TIP3    H131580   4.803   2.015   4.341  0.9551  0.7767  0.2856
 3363TIP3    H231581   4.745   2.034   4.479 -0.2875  0.1372 -0.1301
 3364TIP3   OH231582   1.130   2.877   0.971 -0.0716 -0.0810  0.5741
 3364TIP3    H131583   1.055   2.936   0.975 -1.1405 -1.2409 -0.8878
 3364TIP3    H231584   1.192   2.913   1.033 -1.5828  1.2862  1.3854
 3365TIP3   OH231585   4.322   2.055   4.179  0.0510  0.5707 -0.5001
 3365TIP3    H131586   4.398   2.109   4.201 -1.1970  2.3043 -0.2225
 3365TIP3    H231587   4.250   2.094   4.229 -1.2043 -0.4462 -1.4639
 3366TIP3   OH231588   5.420   3.485   1.830  0.2634 -0.1283  0.4241
 3366TIP3    H131589   5.401   3.455   1.741  1.4932  1.1100 -0.2778
 3366TIP3    H231590   5.447   3.406   1.876 -1.0506 -0.9138 -0.0784
 3367TIP3   OH231591   5.640   1.635   3.787  0.0547  0.9643 -0.2814
 3367TIP3    H131592   5.589   1.571   3.837 -0.2010  0.3751 -1.2815
 3367TIP3    H231593   5.713   1.658   3.845 -0.8819  1.2022  0.8376
 3368TIP3   OH231594   3.600   3.831   6.853  0.1639  0.6171 -0.8251
 3368TIP3    H131595   3.560   3.805   6.770 -0.5485 -0.6288 -0.1152
 3368TIP3    H231596   3.655   3.757   6.877  0.4697  1.0266 -0.2569
 3369TIP3   OH231597   1.717   2.050   5.947 -0.1746  0.1628 -0.1012
 3369TIP3    H131598   1.651   1.981   5.936 -1.8865  1.1572  2.7925
 3369TIP3    H231599   1.795   2.004   5.978  0.0335 -0.8606 -2.0254
 3370TIP3   OH231600   3.376   4.454   6.383  0.6529  0.1827  0.8718
 3370TIP3    H131601   3.365   4.468   6.477 -0.3724  0.1258  0.7697
 3370TIP3    H231602   3.293   4.482   6.345  1.0584  0.1994 -0.0208
 3371TIP3   OH231603   3.961   3.312  15.470 -0.3446 -0.6048  0.0026
 3371TIP3    H131604   3.932   3.375  15.404 -0.9026  0.6636  1.3994
 3371TIP3    H231605   3.938   3.227  15.433 -0.6780  0.0643 -1.4104
 3372TIP3   OH231606   5.868   4.363   0.436  0.3831  0.3351  0.2541
 3372TIP3    H131607   5.806   4.421   0.480  0.5787 -0.0417  1.0433
 3372TIP3    H231608   5.941   4.354   0.497  0.6765 -0.1710 -0.1568
 3373TIP3   OH231609   6.763   2.438  17.412  0.2124  0.2570  0.1825
 3373TIP3    H131610   6.837   2.401  17.460  0.6427 -0.7708 -1.2225
 3373TIP3    H231611   6.685   2.399  17.452  0.5076  0.1715  0.6749
 3374TIP3   OH231612   1.187   6.651   1.050 -0.6104 -0.2041 -1.0276
 3374TIP3    H131613   1.219   6.582   0.992  0.6555 -0.6589  0.1676
 3374TIP3    H231614   1.257   6.664   1.113 -1.7502  0.6162  0.1161
 3375TIP3   OH231615   4.266   3.853   4.590 -0.1516  0.3567  0.1278
 3375TIP3    H131616   4.321   3.775   4.584 -1.7197 -0.8010  0.0993
 3375TIP3    H231617   4.188   3.832   4.538 -1.1184  1.4799  1.0559
 3376TIP3   OH231618   3.003   5.613  15.413 -0.2560  0.2394 -0.0537
 3376TIP3    H131619   2.947   5.622  15.490  1.7270  1.6229  1.3519
 3376TIP3    H231620   2.976   5.683  15.354  0.3003  1.2483  0.8567
 3377TIP3   OH231621   6.188   3.815  14.122 -0.0285  0.6972 -0.1963
 3377TIP3    H131622   6.217   3.898  14.085  0.7903 -0.3564 -2.0881
 3377TIP3    H231623   6.270   3.769  14.145 -0.4791  1.2567  3.0400
 3378TIP3   OH231624   2.857   0.140   0.728  0.7551  0.0885  0.0937
 3378TIP3    H131625   2.931   0.146   0.667  0.1482 -1.6738 -0.8905
 3378TIP3    H231626   2.793   0.203   0.695 -0.2558 -1.9527 -2.2102
 3379TIP3   OH231627   2.599   4.014   1.546  0.2509 -0.3098 -0.2700
 3379TIP3    H131628   2.637   4.081   1.603  1.5455 -2.8027  2.0068
 3379TIP3    H231629   2.505   4.031   1.548  0.5033  1.1554  0.5659
 3380TIP3   OH231630   6.218   6.672   2.612 -0.0481 -0.2343  0.6890
 3380TIP3    H131631   6.226   6.628   2.527 -1.1472 -0.7348  0.8266
 3380TIP3    H231632   6.307   6.701   2.633  0.7057 -2.2454  0.4929
 3381TIP3   OH231633   5.402   3.243   6.738  0.0013  0.2517 -0.1389
 3381TIP3    H131634   5.352   3.164   6.717 -1.8784  1.8538 -2.1769
 3381TIP3    H231635   5.493   3.213   6.743 -0.5636 -1.9413 -1.5428
 3382TIP3   OH231636   6.478   3.512  13.814  0.0086  0.2061  0.4189
 3382TIP3    H131637   6.513   3.446  13.874  0.1550 -0.0591  0.0452
 3382TIP3    H231638   6.556   3.555  13.777  0.0171 -1.3696 -1.5182
 3383TIP3   OH231639   5.044   3.290  12.756 -0.3654  0.1216  0.2869
 3383TIP3    H131640   5.016   3.207  12.794  2.4525 -1.9642 -1.8149
 3383TIP3    H231641   5.042   3.276  12.662 -0.1323  2.6057 -0.1625
 3384TIP3   OH231642   1.916   3.487   3.033  0.0500 -0.3375  0.1375
 3384TIP3    H131643   2.007   3.480   3.007  0.3279  1.1363  0.6322
 3384TIP3    H231644   1.915   3.461   3.125 -0.6116 -3.5885 -0.6600
 3385TIP3   OH231645   4.419   1.748  16.616  0.5873  0.3612  0.0681
 3385TIP3    H131646   4.408   1.818  16.680  0.9229  2.0109 -1.5838
 3385TIP3    H231647   4.341   1.753  16.561  0.4930 -0.7431  0.0938
 3386TIP3   OH231648   4.991   0.483   1.043 -0.3251 -0.3632 -0.2195
 3386TIP3    H131649   5.039   0.564   1.063 -0.7494  0.2366 -1.4656
 3386TIP3    H231650   5.052   0.431   0.992 -0.5859 -0.0926 -0.8279
 3387TIP3   OH231651   1.895   2.375   0.858 -0.4444 -0.5671 -0.5225
 3387TIP3    H131652   1.901   2.414   0.945  0.1268  0.0922 -0.8524
 3387TIP3    H231653   1.930   2.287   0.869 -0.1837 -0.4152 -0.1251
 3388TIP3   OH231654   2.391   2.031  11.156 -0.1667 -0.1549  0.4160
 3388TIP3    H131655   2.447   1.958  11.184  0.4097  0.3504  0.5973
 3388TIP3    H231656   2.448   2.085  11.101 -0.4943  0.3291  0.5466
 3389TIP3   OH231657   0.620   4.340  11.910  0.5009  0.0254 -0.7813
 3389TIP3    H131658   0.679   4.275  11.874  1.5101  0.5736 -0.1489
 3389TIP3    H231659   0.590   4.390  11.834  2.3050  0.9254 -0.9491
 3390TIP3   OH231660   5.034   5.694   0.003  0.2400  0.1318  0.2093
 3390TIP3    H131661   5.091   5.735  -0.063 -2.0293  0.7439 -1.4958
 3390TIP3    H231662   5.092   5.635   0.051  2.5712  1.6397 -0.5472
 3391TIP3   OH231663   6.258   3.729   0.573  0.1977  0.1807  0.1424
 3391TIP3    H131664   6.182   3.782   0.600  0.7499  1.5464 -0.8502
 3391TIP3    H231665   6.271   3.752   0.481 -0.2834 -2.6679 -0.7352
 3392TIP3   OH231666   4.423   4.142  14.539  0.0229  0.5121  0.3906
 3392TIP3    H131667   4.430   4.146  14.444 -0.8767 -0.2348  0.2810
 3392TIP3    H231668   4.341   4.096  14.555  0.1636  0.6378  1.5288
 3393TIP3   OH231669   2.772   4.060   4.439 -0.7085  0.5907 -0.2520
 3393TIP3    H131670   2.752   4.120   4.368 -1.4579 -0.3166 -0.8346
 3393TIP3    H231671   2.737   4.103   4.517  0.9508  2.0303 -0.2419
 3394TIP3   OH231672   5.830   4.952  12.200  0.5405 -0.5559 -0.1864
 3394TIP3    H131673   5.851   5.046  12.194  0.6917 -0.6055 -0.4732
 3394TIP3    H231674   5.838   4.921  12.110 -2.0510 -0.3302 -0.5676
 3395TIP3   OH231675   1.092   3.519  14.813  0.2466 -0.1508  0.4228
 3395TIP3    H131676   1.117   3.564  14.894 -2.4470 -0.1874  1.3818
 3395TIP3    H231677   1.046   3.585  14.763  1.6624 -0.2101 -1.0432
 3396TIP3   OH231678   5.355   3.494  17.417 -0.1801 -0.0409  0.4041
 3396TIP3    H131679   5.388   3.454  17.497  0.3655  2.2364  1.4147
 3396TIP3    H231680   5.284   3.437  17.389  1.5530 -2.5612  0.7700
 3397TIP3   OH231681   6.095   1.950   4.443 -0.3737  0.2309  0.4910
 3397TIP3    H131682   6.083   2.012   4.515 -0.4186  1.5268 -0.5939
 3397TIP3    H231683   6.189   1.950   4.425 -0.0117 -1.8971  2.0567
 3398TIP3   OH231684   2.349   0.031  14.372 -0.3173  0.1033  0.0606
 3398TIP3    H131685   2.439  -0.002  14.369 -0.4192 -0.1194 -0.7542
 3398TIP3    H231686   2.355   0.120  14.336 -0.1371  0.7934  1.7158
 3399TIP3   OH231687   3.826   3.361   0.638  0.0118  0.3155 -0.1354
 3399TIP3    H131688   3.820   3.442   0.689 -0.0778  0.1742  0.0770
 3399TIP3    H231689   3.748   3.362   0.582  0.4479  0.7958 -0.7473
 3400TIP3   OH231690   4.971   1.378   0.839  0.5228 -0.5800 -0.0842
 3400TIP3    H131691   4.902   1.312   0.841  0.4310 -0.5144 -0.6867
 3400TIP3    H231692   4.933   1.450   0.788  0.6224 -0.0661  0.5527
 3401TIP3   OH231693   3.152   1.409   2.567 -0.5228 -0.9984 -0.3543
 3401TIP3    H131694   3.234   1.414   2.518 -0.0517 -2.1775  0.2620
 3401TIP3    H231695   3.172   1.451   2.651 -0.6713 -0.9040 -0.3665
 3402TIP3   OH231696   3.391   1.058  13.510  0.2873 -0.1451 -0.3300
 3402TIP3    H131697   3.427   1.019  13.431 -2.3476 -1.9493 -0.7673
 3402TIP3    H231698   3.431   1.010  13.582  1.7798  0.6947 -0.5520
 3403TIP3   OH231699   6.399   0.740   0.523  0.0191 -0.3760  0.1839
 3403TIP3    H131700   6.348   0.796   0.582  0.0009  1.0376 -1.1024
 3403TIP3    H231701   6.482   0.727   0.569 -0.5562 -0.6219  1.1990
 3404TIP3   OH231702   1.822   6.401  14.214  0.2840 -0.3202 -0.0585
 3404TIP3    H131703   1.790   6.439  14.296 -0.2485  1.4439 -1.0369
 3404TIP3    H231704   1.744   6.397  14.158  1.1620  1.4559 -1.5270
 3405TIP3   OH231705   3.102   4.615   4.175  0.3382  0.0685  0.0801
 3405TIP3    H131706   3.085   4.528   4.211  1.2120 -0.2772 -0.3285
 3405TIP3    H231707   3.135   4.598   4.087 -1.6993  0.8888 -0.9273
 3406TIP3   OH231708   4.753   2.836   4.269  0.2649 -0.2530 -0.3044
 3406TIP3    H131709   4.739   2.915   4.216  0.2937  0.3511  0.5687
 3406TIP3    H231710   4.847   2.819   4.264  0.5242  0.7101  0.7757
 3407TIP3   OH231711   2.954   5.700  12.430  0.1758 -0.0985 -0.4034
 3407TIP3    H131712   2.998   5.732  12.351  1.9277  0.0477  0.5799
 3407TIP3    H231713   2.959   5.774  12.492 -1.0294 -0.2609 -0.0821
 3408TIP3   OH231714   4.769   6.174  13.925  0.0474 -0.0215 -0.2980
 3408TIP3    H131715   4.840   6.233  13.950  0.6072 -0.7723 -0.0792
 3408TIP3    H231716   4.700   6.191  13.989  0.5997 -0.3277  0.3929
 3409TIP3   OH231717   3.858   1.596  12.591  0.5466 -1.0164  0.5006
 3409TIP3    H131718   3.884   1.546  12.668  0.9197 -0.0157  1.0392
 3409TIP3    H231719   3.913   1.674  12.593 -1.3784  0.4075  0.7933
 3410TIP3   OH231720   2.887   2.834   3.708 -0.0386  0.2059  0.8287
 3410TIP3    H131721   2.871   2.853   3.616 -1.6831 -1.6298  0.6569
 3410TIP3    H231722   2.964   2.776   3.708  0.4653  0.8639  0.7085
 3411TIP3   OH231723   6.604   1.620  11.933 -0.3015  0.1886  0.4575
 3411TIP3    H131724   6.562   1.548  11.980 -0.2382  0.4879  0.9896
 3411TIP3    H231725   6.646   1.579  11.858  1.3159 -0.6399  1.7449
 3412TIP3   OH231726   4.220   1.598  15.533  0.3450 -0.3664 -0.1228
 3412TIP3    H131727   4.218   1.506  15.505  2.7412 -1.1139  1.8246
 3412TIP3    H231728   4.176   1.598  15.618 -0.8562  0.6048 -0.7127
 3413TIP3   OH231729   6.094   3.928   5.150 -0.4937 -0.3040  0.3120
 3413TIP3    H131730   6.121   3.918   5.241 -0.0758 -0.4557  0.1768
 3413TIP3    H231731   6.052   4.014   5.146 -1.0513 -0.5553  0.7687
 3414TIP3   OH231732   6.061   6.608   2.104 -0.2409  0.5076  0.6408
 3414TIP3    H131733   6.132   6.644   2.052 -0.0224  0.6480  1.0309
 3414TIP3    H231734   5.993   6.586   2.040  0.5573 -0.6177  0.1484
 3415TIP3   OH231735   5.338   2.351   2.279  0.7485  0.7302  0.4326
 3415TIP3    H131736   5.271   2.361   2.211  0.0968 -0.1974  0.9177
 3415TIP3    H231737   5.328   2.261   2.310 -0.0310  1.5651  2.8390
 3416TIP3   OH231738   3.613   5.952   0.606  0.4329  0.1210  0.1761
 3416TIP3    H131739   3.588   5.860   0.594 -1.8533  0.8372 -1.2377
 3416TIP3    H231740   3.708   5.952   0.597  0.4248 -1.9905 -0.5865
 3417TIP3   OH231741   2.772   4.165  12.181 -0.8206 -0.2490 -0.0570
 3417TIP3    H131742   2.854   4.154  12.230 -0.9310 -0.9125 -0.0112
 3417TIP3    H231743   2.796   4.216  12.104 -0.3861 -0.3225  0.0284
 3418TIP3   OH231744   5.760   2.585   3.798  0.0837 -0.5449 -0.0405
 3418TIP3    H131745   5.677   2.559   3.837 -0.4509  0.1661 -0.6687
 3418TIP3    H231746   5.782   2.668   3.842  0.3493 -0.6217 -0.0284
 3419TIP3   OH231747   6.444   1.716  12.268  0.6858 -0.6931  0.4218
 3419TIP3    H131748   6.421   1.715  12.361 -1.1515  0.7433  0.0323
 3419TIP3    H231749   6.501   1.639  12.257 -1.0550 -2.3571  2.2276
 3420TIP3   OH231750   0.108   0.444   1.577  0.3996 -0.2000  0.3581
 3420TIP3    H131751   0.119   0.536   1.553 -0.9702 -0.3742 -1.1151
 3420TIP3    H231752   0.191   0.403   1.553  0.7477  0.5084  0.3291
 3421TIP3   OH231753   4.309   3.067   1.019  0.0892  0.2638 -0.0222
 3421TIP3    H131754   4.214   3.068   1.032 -0.0906  0.2952 -1.1923
 3421TIP3    H231755   4.320   3.048   0.926  1.2308  0.5113  0.0447
 3422TIP3   OH231756   3.121   0.360   4.859 -0.3588  0.6871  0.5478
 3422TIP3    H131757   3.037   0.324   4.829  0.7889 -1.1090 -0.6892
 3422TIP3    H231758   3.142   0.429   4.795 -0.8009  1.0439  0.7803
 3423TIP3   OH231759   1.997   5.462  14.655 -0.1958 -0.2616  0.2410
 3423TIP3    H131760   2.048   5.524  14.603 -0.0376  0.8924  1.6962
 3423TIP3    H231761   2.047   5.380  14.649  1.0904  0.4753  0.4786
 3424TIP3   OH231762   3.981   5.101   4.927  1.0065 -0.5540 -0.4337
 3424TIP3    H131763   3.917   5.135   4.989  1.0135 -1.2944 -0.0117
 3424TIP3    H231764   3.974   5.159   4.851  0.8847  0.2660  0.1865
 3425TIP3   OH231765   0.769   2.245  15.046  0.5067 -0.1952 -0.0411
 3425TIP3    H131766   0.733   2.174  15.099  1.4454 -1.3475 -0.8997
 3425TIP3    H231767   0.824   2.295  15.106 -0.4026  0.0020  0.6405
 3426TIP3   OH231768   1.679   0.142  16.873 -0.4790  0.0394 -0.3233
 3426TIP3    H131769   1.618   0.134  16.946  0.4975 -1.4196  0.3727
 3426TIP3    H231770   1.746   0.203  16.904 -0.7210  0.3810 -0.4709
 3427TIP3   OH231771   6.061   3.013  14.928 -0.2627 -0.1038 -0.5966
 3427TIP3    H131772   6.053   2.949  14.999 -1.7358 -1.1288 -1.6022
 3427TIP3    H231773   6.135   2.982  14.876  1.0889  0.8875  0.6700
 3428TIP3   OH231774   0.708   6.088   3.516  0.0768 -0.0163  0.2692
 3428TIP3    H131775   0.733   6.042   3.596 -2.1859  1.2056  1.7720
 3428TIP3    H231776   0.698   6.179   3.543 -1.5497  0.2800 -1.1889
 3429TIP3   OH231777   4.639   0.820  17.056 -0.1767 -0.0962  0.0713
 3429TIP3    H131778   4.701   0.806  17.128  1.1986  1.2165 -0.7937
 3429TIP3    H231779   4.554   0.829  17.098  0.4873 -0.1152  1.4525
 3430TIP3   OH231780   2.619   0.050   4.545  0.0628 -0.3393  0.4165
 3430TIP3    H131781   2.692   0.093   4.590 -0.0390 -0.8493  1.0849
 3430TIP3    H231782   2.661  -0.011   4.484  0.2732  1.9842 -1.9646
 3431TIP3   OH231783   2.279   1.821   4.220  0.1441  1.2200  0.3019
 3431TIP3    H131784   2.340   1.878   4.172  1.2617  0.1007  0.3400
 3431TIP3    H231785   2.244   1.762   4.153 -0.6764  1.6562  0.3365
 3432TIP3   OH231786   3.896   6.235  13.022 -0.0494  0.1057 -0.0598
 3432TIP3    H131787   3.852   6.266  12.942  0.4865 -1.0954 -0.8395
 3432TIP3    H231788   3.834   6.173  13.061  0.6607 -1.1434 -0.8501
 3433TIP3   OH231789   1.165   3.991  17.182 -0.6235  0.3580 -0.0388
 3433TIP3    H131790   1.203   4.026  17.263 -0.8197 -0.3676  0.3748
 3433TIP3    H231791   1.073   4.015  17.186 -0.4315  1.2198 -0.5470
 3434TIP3   OH231792   3.293   6.735   0.645 -0.2151 -0.0784  0.0439
 3434TIP3    H131793   3.270   6.809   0.702 -0.5924  1.3461 -1.8755
 3434TIP3    H231794   3.328   6.669   0.705 -1.7299  0.8526  2.0763
 3435TIP3   OH231795   1.262   3.341  13.636 -0.3152 -0.2660  0.1629
 3435TIP3    H131796   1.295   3.323  13.724 -1.6223 -1.9076  0.3771
 3435TIP3    H231797   1.188   3.281  13.625 -1.0994  0.9116 -1.5272
 3436TIP3   OH231798   3.070   2.330   5.775 -0.7483 -0.4439 -0.2067
 3436TIP3    H131799   3.001   2.293   5.830 -0.1024 -0.1558  0.8311
 3436TIP3    H231800   3.120   2.255   5.745 -1.0498 -0.5982 -0.3308
 3437TIP3   OH231801   1.431   3.552   2.609  0.1073  0.0634 -0.3998
 3437TIP3    H131802   1.383   3.503   2.542  0.2333  1.4741 -1.5665
 3437TIP3    H231803   1.517   3.510   2.612  0.7292  1.0648 -2.4624
 3438TIP3   OH231804   1.125   3.169   3.337  0.2556  0.3022 -0.2278
 3438TIP3    H131805   1.041   3.124   3.345 -0.5393  1.8020  0.2531
 3438TIP3    H231806   1.138   3.178   3.243  0.1992 -0.4806 -0.3207
 3439TIP3   OH231807   0.564   1.577   2.764  0.0973  0.7923  0.2510
 3439TIP3    H131808   0.499   1.638   2.728  0.1052  0.3372 -0.5513
 3439TIP3    H231809   0.648   1.612   2.736  0.2365  1.4732  1.4275
 3440TIP3   OH231810   6.216   6.605   3.182 -0.4785  0.0879  0.8349
 3440TIP3    H131811   6.264   6.560   3.112 -0.1264  1.5206  0.1075
 3440TIP3    H231812   6.268   6.589   3.261  0.5811  0.6372  0.2683
 3441TIP3   OH231813   5.433   4.064   3.753  0.3872 -0.6211  0.7590
 3441TIP3    H131814   5.339   4.064   3.733  0.4918  0.4658  0.1998
 3441TIP3    H231815   5.465   4.148   3.720  1.5950 -1.0428  0.7923
 3442TIP3   OH231816   0.019   3.509  15.887  0.5176  0.4795 -0.2609
 3442TIP3    H131817   0.074   3.570  15.838 -0.2273  1.9789  0.6632
 3442TIP3    H231818  -0.065   3.556  15.898 -0.3950 -1.0902 -0.2796
 3443TIP3   OH231819   0.169   3.103  13.060 -0.5730  0.6539 -0.0123
 3443TIP3    H131820   0.140   3.013  13.046  1.2238  0.2214 -1.2861
 3443TIP3    H231821   0.090   3.156  13.048 -2.5124 -0.8598  4.2316
 3444TIP3   OH231822   2.641   2.936  12.930 -0.1196 -0.5565 -0.1345
 3444TIP3    H131823   2.614   3.021  12.894 -0.2284 -0.9823 -1.0855
 3444TIP3    H231824   2.621   2.942  13.023 -3.7086 -0.8908 -0.7234
 3445TIP3   OH231825   2.740   4.883  15.059  0.0210 -0.2786  0.5131
 3445TIP3    H131826   2.662   4.930  15.031  1.4058  2.1883  0.5333
 3445TIP3    H231827   2.811   4.947  15.053  1.9289 -2.1832  1.2495
 3446TIP3   OH231828   6.597   1.535   0.239 -0.2498  0.0763  0.0114
 3446TIP3    H131829   6.585   1.445   0.208  1.2677 -0.1028 -0.1744
 3446TIP3    H231830   6.509   1.570   0.248 -0.8665 -1.4271  0.0707
 3447TIP3   OH231831   0.021   5.864  15.700 -0.4143 -0.0764  0.4421
 3447TIP3    H131832   0.041   5.917  15.623 -0.8053 -0.5202  0.0240
 3447TIP3    H231833  -0.071   5.840  15.690  0.3372 -2.9832 -0.7852
 3448TIP3   OH231834   4.673   5.696   6.248 -1.1294 -0.9218  0.1557
 3448TIP3    H131835   4.704   5.763   6.308 -1.5051  0.0405 -0.6984
 3448TIP3    H231836   4.603   5.738   6.198  0.5285 -0.9688 -2.4137
 3449TIP3   OH231837   0.545   3.434   0.033  0.2376  0.4605 -0.4293
 3449TIP3    H131838   0.527   3.513   0.085 -0.5741  1.2341 -1.8080
 3449TIP3    H231839   0.615   3.390   0.080 -0.5728  1.0090  1.4090
 3450TIP3   OH231840   4.709   5.885   4.301  0.0576  0.3801 -0.2649
 3450TIP3    H131841   4.801   5.862   4.315 -0.1107  0.2637  0.7214
 3450TIP3    H231842   4.660   5.818   4.348 -0.4895  1.3170  0.5425
 3451TIP3   OH231843   4.565   6.530   0.635  0.0292 -0.1801  0.0501
 3451TIP3    H131844   4.518   6.494   0.561 -0.6773  0.3528  0.2351
 3451TIP3    H231845   4.513   6.604   0.664  2.1973  2.0170 -1.2740
 3452TIP3   OH231846   5.272   2.413  14.136  0.1854  1.2798 -0.0675
 3452TIP3    H131847   5.366   2.405  14.121  0.0191  0.1556 -0.6281
 3452TIP3    H231848   5.233   2.414  14.049 -0.6297 -2.9341  0.0322
 3453TIP3   OH231849   2.528   4.753   4.267 -0.5653 -0.1476  0.4866
 3453TIP3    H131850   2.446   4.798   4.249 -0.1998 -0.1064 -1.1999
 3453TIP3    H231851   2.555   4.716   4.183  1.3356  0.1612  0.9072
 3454TIP3   OH231852   2.399   4.381  16.779  0.4239  0.7115 -0.5636
 3454TIP3    H131853   2.331   4.353  16.841  1.1958 -0.6366 -0.2727
 3454TIP3    H231854   2.400   4.312  16.712  1.5979  0.6165 -0.4681
 3455TIP3   OH231855   1.525   6.367   0.316  0.0215  0.0496 -0.2312
 3455TIP3    H131856   1.446   6.421   0.327  0.9062  1.3602 -0.1121
 3455TIP3    H231857   1.503   6.284   0.359 -1.5798  0.0728 -0.9283
 3456TIP3   OH231858   4.057   2.858   1.607 -0.0678  0.2772 -0.3185
 3456TIP3    H131859   4.119   2.915   1.561 -0.6745  0.1870 -1.2863
 3456TIP3    H231860   4.009   2.917   1.665 -0.5801  0.7543 -1.1911
 3457TIP3   OH231861   1.321   2.102   2.872 -0.4629 -0.2455  0.1221
 3457TIP3    H131862   1.238   2.102   2.919 -0.5678  0.7832 -0.0363
 3457TIP3    H231863   1.355   2.013   2.883 -1.0026 -0.3295  1.2075
 3458TIP3   OH231864   2.247   0.312  13.965  0.0711 -0.0172 -0.7813
 3458TIP3    H131865   2.168   0.362  13.985 -0.4402 -1.3056  0.6698
 3458TIP3    H231866   2.215   0.233  13.921 -0.0930 -2.5912  3.3706
 3459TIP3   OH231867   4.855   5.325   0.355 -0.6802 -0.4411 -0.0586
 3459TIP3    H131868   4.797   5.378   0.301 -0.1530  1.7432  1.3833
 3459TIP3    H231869   4.799   5.257   0.391 -1.6831 -0.1386 -0.9893
 3460TIP3   OH231870   4.876   4.102  11.786 -0.7213 -0.3591  0.4395
 3460TIP3    H131871   4.812   4.091  11.857  0.3679  0.5910  1.6344
 3460TIP3    H231872   4.824   4.127  11.710 -1.7973  0.2903  1.3469
 3461TIP3   OH231873   2.362   4.893  10.818  0.5788 -0.2552  0.6034
 3461TIP3    H131874   2.349   4.801  10.794  0.1604 -0.0547  0.0310
 3461TIP3    H231875   2.311   4.942  10.754 -0.1816  0.3286  1.6208
 3462TIP3   OH231876   2.556   4.820   3.226  0.2760  0.1218 -0.1157
 3462TIP3    H131877   2.623   4.855   3.167 -0.9228  0.0983 -1.5419
 3462TIP3    H231878   2.504   4.760   3.172  0.4083 -1.5507  1.5102
 3463TIP3   OH231879   5.899   6.131   5.343  0.5897 -0.2257 -0.0033
 3463TIP3    H131880   5.957   6.170   5.278  0.6071 -0.9683 -0.4480
 3463TIP3    H231881   5.900   6.192   5.417  1.1471  0.2585 -0.4074
 3464TIP3   OH231882   5.294   1.149  14.440  0.2157 -0.1769 -0.0235
 3464TIP3    H131883   5.385   1.173  14.460 -0.0056  0.5541  0.1336
 3464TIP3    H231884   5.244   1.181  14.516 -0.4243  1.2044 -0.9792
 3465TIP3   OH231885   0.876   6.088  15.186 -0.3450 -0.0557  0.1930
 3465TIP3    H131886   0.906   6.158  15.128  1.0269 -1.0336 -0.3018
 3465TIP3    H231887   0.935   6.015  15.169 -0.2890 -0.5848  2.3556
 3466TIP3   OH231888   1.108   3.185  16.082 -0.1022 -0.1254  0.2959
 3466TIP3    H131889   1.153   3.146  16.007 -0.3145  0.5767 -0.2027
 3466TIP3    H231890   1.122   3.280  16.072 -0.7921  0.0258  0.7172
 3467TIP3   OH231891   1.218   0.255  11.504  0.0850 -0.9402  0.0195
 3467TIP3    H131892   1.248   0.280  11.416 -1.6575 -0.9561 -0.6168
 3467TIP3    H231893   1.198   0.338  11.547 -0.9622 -1.0060 -0.3225
 3468TIP3   OH231894   4.876   2.687   2.749  0.4205  0.2931  0.0120
 3468TIP3    H131895   4.799   2.741   2.768 -0.2749 -0.6270 -0.1376
 3468TIP3    H231896   4.858   2.603   2.792 -0.4240 -1.2879 -3.1739
 3469TIP3   OH231897   1.611   1.764  12.784 -0.1600  0.2515  0.4619
 3469TIP3    H131898   1.569   1.679  12.800  0.6942 -0.5909 -1.4586
 3469TIP3    H231899   1.598   1.813  12.866 -0.4035 -1.8287  1.7430
 3470TIP3   OH231900   1.142   2.219   5.267 -0.1698 -0.0768 -0.0898
 3470TIP3    H131901   1.197   2.160   5.217 -0.0340  0.3020 -0.3956
 3470TIP3    H231902   1.189   2.302   5.267  0.4536 -0.3792  1.7444
 3471TIP3   OH231903   3.214   5.704  13.371  0.2994 -0.1897 -0.3255
 3471TIP3    H131904   3.209   5.798  13.384 -1.3576 -0.2557 -0.3213
 3471TIP3    H231905   3.209   5.667  13.459  0.6663 -0.3050 -0.3491
 3472TIP3   OH231906   0.644   5.099  11.555  0.2945  0.2719  0.1964
 3472TIP3    H131907   0.635   5.194  11.547  0.4587  0.1706 -1.7209
 3472TIP3    H231908   0.591   5.076  11.631 -0.1617  1.8441  0.3806
 3473TIP3   OH231909   1.295   2.136  10.579  0.1359  0.3757  0.1038
 3473TIP3    H131910   1.304   2.055  10.630  1.1871  0.2665 -0.2270
 3473TIP3    H231911   1.233   2.113  10.509  0.0604 -0.0034  0.2923
 3474TIP3   OH231912   5.244   2.284  15.340 -1.0637  0.0639  0.0696
 3474TIP3    H131913   5.207   2.287  15.251  0.0022 -0.5996 -0.4218
 3474TIP3    H231914   5.322   2.229  15.331 -2.3262 -2.2033  1.9313
 3475TIP3   OH231915   6.126   1.294   4.080  0.0148 -0.1103  0.4096
 3475TIP3    H131916   6.182   1.345   4.138 -2.8752  2.3494  1.3218
 3475TIP3    H231917   6.151   1.320   3.992  0.8255  0.2996  0.7582
 3476TIP3   OH231918   0.121   2.269  13.405 -0.5385  0.0817  0.2088
 3476TIP3    H131919   0.108   2.254  13.312  0.8364 -0.5415  0.0957
 3476TIP3    H231920   0.156   2.358  13.410 -0.4306  0.0458  0.1048
 3477TIP3   OH231921   0.072   5.128  13.641  0.1315  0.0922  0.0744
 3477TIP3    H131922   0.146   5.151  13.586  0.0095  1.0863  0.2935
 3477TIP3    H231923  -0.000   5.181  13.608 -0.7319 -1.5217 -0.7025
 3478TIP3   OH231924   3.001   3.900  12.464  0.3494  0.0371  0.4275
 3478TIP3    H131925   3.062   3.850  12.410  1.3423 -0.3740  1.8714
 3478TIP3    H231926   3.030   3.884  12.554 -1.8280 -0.0954  1.1770
 3479TIP3   OH231927   2.909   1.280   5.847 -0.2665 -0.5944  0.3520
 3479TIP3    H131928   2.880   1.208   5.904 -0.1033 -0.9686 -0.0304
 3479TIP3    H231929   2.987   1.246   5.804  2.0017  1.0703  2.8253
 3480TIP3   OH231930   5.092   6.554   2.065  0.3462  0.6443  0.2567
 3480TIP3    H131931   5.001   6.555   2.036  0.2136  1.9808  0.6568
 3480TIP3    H231932   5.135   6.622   2.014  1.3127 -0.4539 -0.4455
 3481TIP3   OH231933   1.540   5.673   4.192  0.7226  0.2827  0.4398
 3481TIP3    H131934   1.618   5.696   4.243  1.6147 -2.9253  0.7518
 3481TIP3    H231935   1.567   5.682   4.101  1.2051 -0.0177  0.5508
 3482TIP3   OH231936   2.229   0.740   2.214 -0.2578 -0.0245  0.0378
 3482TIP3    H131937   2.204   0.819   2.167 -3.8164 -0.5221  0.7814
 3482TIP3    H231938   2.164   0.675   2.188 -0.1861 -1.3614  2.8236
 3483TIP3   OH231939   4.889   0.094  12.454  0.2205  0.2701  0.2966
 3483TIP3    H131940   4.880   0.010  12.500 -0.3322 -0.1213 -0.5002
 3483TIP3    H231941   4.874   0.160  12.521 -0.9270 -0.2928  0.6162
 3484TIP3   OH231942   2.867   5.656   2.047 -0.4182  0.5627  0.2564
 3484TIP3    H131943   2.806   5.592   2.009 -0.3910 -0.1052  1.2829
 3484TIP3    H231944   2.951   5.635   2.007  0.2979 -2.1903  2.8042
 3485TIP3   OH231945   0.528   2.550  12.591  0.2142  0.2931  0.8868
 3485TIP3    H131946   0.548   2.638  12.560  0.6287  0.3367  1.2707
 3485TIP3    H231947   0.451   2.524  12.541 -0.6042  1.3071  1.5595
 3486TIP3   OH231948   4.011   4.751   4.710  0.0028 -0.8749  0.2056
 3486TIP3    H131949   3.921   4.725   4.730  0.4627 -1.2447  1.9535
 3486TIP3    H231950   4.010   4.770   4.616 -1.9145 -0.7775  0.2028
 3487TIP3   OH231951   3.708   1.212  13.486 -0.8359  0.6134 -0.5620
 3487TIP3    H131952   3.663   1.275  13.543 -3.8445 -1.5466 -0.3446
 3487TIP3    H231953   3.664   1.220  13.402 -2.3926 -2.1427 -0.1242
 3488TIP3   OH231954   6.111   5.208   0.551 -0.1037 -0.0246  0.4264
 3488TIP3    H131955   6.136   5.152   0.624 -1.2089  1.2762  1.8991
 3488TIP3    H231956   6.192   5.254   0.527  0.1297  0.0936  1.3809
 3489TIP3   OH231957   1.276   3.057  10.611  0.5721  0.2190  0.0254
 3489TIP3    H131958   1.297   3.132  10.556 -1.2421  0.7510  0.0114
 3489TIP3    H231959   1.307   2.981  10.562 -1.1024  0.6656 -1.8376
 3490TIP3   OH231960   5.978   6.146   4.515  0.4947 -0.0955 -0.1237
 3490TIP3    H131961   5.911   6.204   4.477  0.4471  0.4297  0.7459
 3490TIP3    H231962   6.033   6.204   4.567  0.9389 -0.7134  0.1069
 3491TIP3   OH231963   2.688   1.258  17.102 -0.3361  0.2450  0.1197
 3491TIP3    H131964   2.736   1.335  17.073 -0.8158  1.4042  2.2386
 3491TIP3    H231965   2.598   1.288  17.113 -0.5891 -0.6853  0.7156
 3492TIP3   OH231966   1.260   3.987  15.639 -0.6434  0.8560 -0.2152
 3492TIP3    H131967   1.196   3.916  15.646  0.5119 -0.1455  0.6534
 3492TIP3    H231968   1.220   4.049  15.578 -1.7493 -0.4818 -0.9166
 3493TIP3   OH231969   0.377   1.299  17.118  0.7180  0.3229  0.0964
 3493TIP3    H131970   0.296   1.317  17.070  1.3609 -1.9295 -2.0297
 3493TIP3    H231971   0.348   1.272  17.205 -0.7167  0.9877 -0.1551
 3494TIP3   OH231972   4.379   1.705  12.552 -0.4191 -0.3817  0.3279
 3494TIP3    H131973   4.419   1.690  12.466 -1.9210 -1.1296 -0.2954
 3494TIP3    H231974   4.434   1.771  12.593 -0.9178  1.7458 -2.1394
 3495TIP3   OH231975   2.568   1.585  16.110 -0.0384  0.6194  0.1561
 3495TIP3    H131976   2.513   1.600  16.034  0.1909 -0.1494 -0.1731
 3495TIP3    H231977   2.515   1.611  16.185 -0.6983  0.2714 -0.1880
 3496TIP3   OH231978   5.443   5.692  13.231 -0.4753 -0.6686 -0.3083
 3496TIP3    H131979   5.429   5.777  13.272  0.5324 -1.5296  1.9704
 3496TIP3    H231980   5.478   5.713  13.144  1.0104  1.2442  0.6731
 3497TIP3   OH231981   3.315   2.895  11.382 -0.1070  0.0617 -0.0713
 3497TIP3    H131982   3.400   2.907  11.338 -0.0613  3.6370  0.7171
 3497TIP3    H231983   3.261   2.852  11.317  1.6711 -0.2642 -1.4251
 3498TIP3   OH231984   3.244   1.783  10.819  0.1903 -0.3740 -0.3569
 3498TIP3    H131985   3.161   1.777  10.772  0.3912 -1.8940 -0.5987
 3498TIP3    H231986   3.239   1.712  10.883  0.5030  0.7786  0.9752
 3499TIP3   OH231987   4.469   4.473   5.670 -0.1371  0.1400  0.3742
 3499TIP3    H131988   4.523   4.552   5.666  1.4732 -0.9426 -3.4022
 3499TIP3    H231989   4.516   4.408   5.617 -3.8163 -1.7382 -0.9851
 3500TIP3   OH231990   6.652   1.174  15.937 -0.0330  0.3192  0.4937
 3500TIP3    H131991   6.685   1.116  16.005  0.8554 -0.0087 -0.1791
 3500TIP3    H231992   6.721   1.173  15.870 -0.7058  0.9246 -0.2319
 3501TIP3   OH231993   0.971   3.274   5.187 -0.2990  0.3113 -0.3434
 3501TIP3    H131994   0.902   3.311   5.131 -0.1554 -0.3086 -0.9380
 3501TIP3    H231995   0.969   3.329   5.266  0.2728  1.9579 -1.4055
 3502TIP3   OH231996   4.260   0.997  16.486  0.0514  0.1641 -0.3026
 3502TIP3    H131997   4.214   0.922  16.450  1.8791 -1.1676 -0.0226
 3502TIP3    H231998   4.252   1.065  16.419 -0.1737 -0.8628 -1.3454
 3503TIP3   OH231999   3.645   4.672  12.655 -0.5032 -0.2675 -0.2178
 3503TIP3    H132000   3.576   4.678  12.589 -0.9564 -0.2092  0.2573
 3503TIP3    H232001   3.661   4.762  12.681  0.9989 -0.0925 -1.5805
 3504TIP3   OH232002   3.255   2.101   4.279  0.2501 -0.3377  0.4801
 3504TIP3    H132003   3.195   2.167   4.312 -1.9417 -1.2831 -1.3917
 3504TIP3    H232004   3.250   2.030   4.344 -1.0013 -0.5727  0.1458
 3505TIP3   OH232005   0.015   3.226  13.391 -0.1955 -0.5371  0.4415
 3505TIP3    H132006  -0.028   3.303  13.430  1.2587  0.1975  0.6792
 3505TIP3    H232007   0.109   3.245  13.400  0.2615 -0.4777 -3.0694
 3506TIP3   OH232008   4.407   5.548   3.990  0.1070  1.0961  0.1960
 3506TIP3    H132009   4.381   5.637   4.011 -0.8535  0.3812  2.3098
 3506TIP3    H232010   4.501   5.545   4.012  0.2770  1.7002 -0.4018
 3507TIP3   OH232011   0.444   4.784   0.870 -0.3667 -0.1585 -0.3286
 3507TIP3    H132012   0.457   4.734   0.951  0.7997  1.1020  0.2935
 3507TIP3    H232013   0.357   4.824   0.881 -0.0554  0.3208  0.4982
 3508TIP3   OH232014   1.054   3.273   4.649 -0.4407  0.1436  0.3202
 3508TIP3    H132015   0.978   3.216   4.665 -0.8284  0.0341 -1.7329
 3508TIP3    H232016   1.129   3.213   4.652 -0.1842  0.4267  3.5884
 3509TIP3   OH232017   1.733   2.878  10.729  0.0783  0.2161  0.4127
 3509TIP3    H132018   1.820   2.917  10.738  1.7670 -3.3142  0.7694
 3509TIP3    H232019   1.698   2.877  10.818 -0.3003  1.4040  0.3049
 3510TIP3   OH232020   3.961   4.635  11.697  0.1343 -0.8710 -0.3802
 3510TIP3    H132021   3.938   4.630  11.604 -0.0760 -0.6223 -0.3448
 3510TIP3    H232022   4.018   4.711  11.704 -2.1381  0.9096  0.1211
 3511TIP3   OH232023   3.789   4.982  13.042  0.0433 -0.6822 -0.3102
 3511TIP3    H132024   3.836   5.000  13.123 -0.9876  1.5752 -0.1350
 3511TIP3    H232025   3.706   4.942  13.070 -0.5844  0.6727 -0.1565
 3512TIP3   OH232026   4.039   0.789  16.731 -0.3936 -0.1646 -0.2769
 3512TIP3    H132027   4.043   0.870  16.680  1.3481  0.7453  1.1762
 3512TIP3    H232028   3.945   0.773  16.743 -0.7856  1.3223 -1.0631
 3513TIP3   OH232029   6.058   5.239  12.377 -0.4289 -0.1248 -0.2830
 3513TIP3    H132030   6.118   5.310  12.398  0.0446 -0.8700  0.9322
 3513TIP3    H232031   6.100   5.193  12.304 -0.4322  0.4454 -0.6531
 3514TIP3   OH232032   6.086   1.580   0.345 -0.5137  0.0515  0.6047
 3514TIP3    H132033   6.029   1.526   0.290 -1.1850  1.1550  0.2001
 3514TIP3    H232034   6.106   1.524   0.420  0.3208 -1.4400 -0.6781
 3515TIP3   OH232035   6.209   5.710  15.391 -1.0988 -0.4709  0.2328
 3515TIP3    H132036   6.163   5.626  15.380 -2.3527  0.0649  1.0565
 3515TIP3    H232037   6.156   5.773  15.343 -0.5402 -0.0378  0.1768
 3516TIP3   OH232038   2.573   3.108  13.952 -0.2097  0.1227  0.3236
 3516TIP3    H132039   2.601   3.190  13.912 -0.6030  1.0184  1.8141
 3516TIP3    H232040   2.531   3.060  13.880  1.3591  0.5379 -0.9297
 3517TIP3   OH232041   4.124   1.018  17.296 -0.4161 -0.1216 -0.4279
 3517TIP3    H132042   4.043   0.998  17.249  0.1499  0.4375 -1.6920
 3517TIP3    H232043   4.160   1.095  17.250  0.8008 -0.3354  0.1275
 3518TIP3   OH232044   5.675   4.320  14.169  0.8035  0.0604  0.2367
 3518TIP3    H132045   5.642   4.401  14.208 -0.9922 -0.9876  1.0541
 3518TIP3    H232046   5.757   4.302  14.214 -0.3299 -0.1730  2.2978
 3519TIP3   OH232047   3.623   3.293  14.023  0.7157 -0.2350 -0.5050
 3519TIP3    H132048   3.665   3.231  13.963 -0.0985  1.4390 -3.0028
 3519TIP3    H232049   3.545   3.247  14.053  0.8980 -0.9775 -1.1230
 3520TIP3   OH232050   5.949   6.712  15.811  0.3449  0.4812 -0.3882
 3520TIP3    H132051   5.975   6.637  15.758 -0.0784 -0.4908  0.7614
 3520TIP3    H232052   6.030   6.740  15.854  0.2939  0.0157  0.0105
 3521TIP3   OH232053   1.802   0.944   1.560 -0.5069 -0.3101  0.4510
 3521TIP3    H132054   1.844   0.991   1.488  1.4104 -2.2091  0.2112
 3521TIP3    H232055   1.738   1.005   1.595  0.5322  1.7307 -1.0153
 3522TIP3   OH232056   0.157   6.664  10.826 -0.0477 -0.3078 -0.2879
 3522TIP3    H132057   0.070   6.624  10.828 -0.2228 -0.0791 -1.9565
 3522TIP3    H232058   0.212   6.598  10.784  0.2009  0.2162 -0.7947
 3523TIP3   OH232059   6.219   6.108  12.385  0.0576  0.1071  0.3557
 3523TIP3    H132060   6.190   6.177  12.325 -0.3812  0.9347  1.4938
 3523TIP3    H232061   6.202   6.143  12.472 -1.0082 -1.8032  0.9713
 3524TIP3   OH232062   2.543   1.585   2.316 -0.7196 -0.4704  1.1036
 3524TIP3    H132063   2.498   1.647   2.374 -1.3483 -0.3164  0.4675
 3524TIP3    H232064   2.635   1.589   2.344 -0.6508  1.1292  0.7593
 3525TIP3   OH232065   0.195   5.210  16.258  0.1619 -0.0825  0.0425
 3525TIP3    H132066   0.214   5.284  16.315  0.3016 -1.6935  2.2511
 3525TIP3    H232067   0.102   5.218  16.237  0.3555  1.1149 -0.4430
 3526TIP3   OH232068   0.821   1.592   5.025  0.1433 -0.1012 -0.8083
 3526TIP3    H132069   0.848   1.679   4.995 -1.2650  0.9858  0.8673
 3526TIP3    H232070   0.901   1.553   5.061  0.7384  0.5849 -1.3542
 3527TIP3   OH232071   2.002   4.922  13.483  0.0195 -0.1711  0.2900
 3527TIP3    H132072   1.997   4.969  13.566  0.0207 -0.2241  0.3206
 3527TIP3    H232073   1.955   4.977  13.421 -0.7487 -0.5593  0.5213
 3528TIP3   OH232074   5.811   2.365   1.395 -0.2708  0.4202  0.2068
 3528TIP3    H132075   5.901   2.382   1.423 -0.8687  1.8100  1.4223
 3528TIP3    H232076   5.818   2.348   1.301  1.1821  1.0978  0.1577
 3529TIP3   OH232077   6.051   1.590   3.292 -0.1823 -0.5992  0.5146
 3529TIP3    H132078   5.994   1.624   3.224 -1.7232 -0.8113  1.6562
 3529TIP3    H232079   6.044   1.495   3.285  1.5388 -0.6920 -0.5337
 3530TIP3   OH232080   0.877   5.825   4.203 -0.5492 -0.3727  0.6107
 3530TIP3    H132081   0.930   5.776   4.139  0.3245  0.7486  0.4349
 3530TIP3    H232082   0.820   5.760   4.242 -0.9909 -1.1297 -1.2044
 3531TIP3   OH232083   5.554   3.194  14.419 -0.0904  0.1324 -0.2695
 3531TIP3    H132084   5.574   3.223  14.330 -1.7629 -0.0300 -0.7319
 3531TIP3    H232085   5.536   3.275  14.467 -2.6061  0.1099 -1.0114
 3532TIP3   OH232086   4.333   2.346   4.370  0.2174 -0.3706 -0.5937
 3532TIP3    H132087   4.318   2.334   4.276  0.6921  0.4363 -0.7759
 3532TIP3    H232088   4.333   2.440   4.383  1.9498 -0.3891 -0.0977
 3533TIP3   OH232089   3.037   0.731  12.961  0.0736  0.0953  0.3759
 3533TIP3    H132090   3.036   0.815  12.914  0.7313 -0.9127 -1.5665
 3533TIP3    H232091   3.124   0.695  12.943  0.5632 -0.1198  2.9134
 3534TIP3   OH232092   1.882   5.442   2.208  0.6945  0.4528 -0.3692
 3534TIP3    H132093   1.967   5.455   2.166  1.0633 -1.8000 -0.4491
 3534TIP3    H232094   1.903   5.418   2.298  0.1397  0.2631 -0.2872
 3535TIP3   OH232095   0.404   5.519  10.944 -0.1819 -0.1162  0.6656
 3535TIP3    H132096   0.367   5.505  10.856 -1.4792 -1.1173  1.3343
 3535TIP3    H232097   0.357   5.594  10.979 -0.6863 -0.6033  1.0394
 3536TIP3   OH232098   4.673   0.703  14.251  0.2888  0.2122  0.2956
 3536TIP3    H132099   4.662   0.621  14.203 -0.2086  0.9424 -0.8711
 3536TIP3    H232100   4.611   0.695  14.324 -0.8832  0.1580 -0.6671
 3537TIP3   OH232101   1.180   2.475  15.552  0.1148 -0.6203 -0.0600
 3537TIP3    H132102   1.109   2.481  15.615  0.1876 -2.0084  0.1700
 3537TIP3    H232103   1.259   2.466  15.605  0.5933  1.6675 -0.2899
 3538TIP3   OH232104   4.474   1.619  15.645 -0.1272  0.3518  0.2573
 3538TIP3    H132105   4.388   1.607  15.603  0.3009 -1.5951 -0.1737
 3538TIP3    H232106   4.531   1.647  15.574 -0.4478  2.0037  0.6169
 3539TIP3   OH232107   3.159   2.563   0.532  0.3481 -0.0404 -0.4447
 3539TIP3    H132108   3.119   2.500   0.592 -0.4205  0.3937 -0.4892
 3539TIP3    H232109   3.213   2.618   0.588  0.4720 -0.3017 -0.3052
 3540TIP3   OH232110   1.274   5.772  13.898  0.0561  0.5741  0.3215
 3540TIP3    H132111   1.333   5.734  13.962  1.3667  0.6624 -0.7985
 3540TIP3    H232112   1.218   5.699  13.871 -0.5964  0.5614  1.6049
 3541TIP3   OH232113   0.420   0.001   1.384  0.3238 -0.2793  0.2776
 3541TIP3    H132114   0.400  -0.090   1.408  0.3591  0.1190  1.9114
 3541TIP3    H232115   0.340   0.034   1.344 -0.1440 -0.6289  0.9141
 3542TIP3   OH232116   3.869   3.800   0.149 -0.0519 -0.7758  0.9403
 3542TIP3    H132117   3.873   3.764   0.237  0.2582 -0.9050  0.8752
 3542TIP3    H232118   3.947   3.765   0.105 -0.1495 -0.6307  0.6484
 3543TIP3   OH232119   5.497   2.767  12.998  0.4927 -0.1863  0.6293
 3543TIP3    H132120   5.495   2.812  12.914  0.4162  1.1794  1.3291
 3543TIP3    H232121   5.480   2.675  12.977 -0.7798  0.3145 -0.7254
 3544TIP3   OH232122   2.893   2.860   4.407 -0.2995 -0.4411 -0.2052
 3544TIP3    H132123   2.934   2.832   4.489  1.1938  0.2531 -0.6768
 3544TIP3    H232124   2.937   2.809   4.339 -0.1800  0.3469 -0.7330
 3545TIP3   OH232125   4.426   0.567   1.858 -0.2221 -0.2382 -0.2237
 3545TIP3    H132126   4.369   0.633   1.818 -0.6705  0.0705  0.8915
 3545TIP3    H232127   4.493   0.550   1.792 -1.1168  0.0183 -1.2288
 3546TIP3   OH232128   1.083   4.071  15.982  0.4011  0.4679 -0.4020
 3546TIP3    H132129   1.036   4.080  15.899  0.7733  0.1938 -0.6476
 3546TIP3    H232130   1.049   4.142  16.037 -0.4049  0.1770 -0.5138
 3547TIP3   OH232131   6.700   5.035  15.491 -0.3232  0.3117 -0.0251
 3547TIP3    H132132   6.685   5.127  15.468  0.8287  0.2472 -1.1696
 3547TIP3    H232133   6.616   5.004  15.524 -1.0192  1.4882 -0.6332
 3548TIP3   OH232134   6.341   4.224   3.457 -0.1352 -0.4308  0.0190
 3548TIP3    H132135   6.383   4.226   3.543 -1.6234 -0.4236  0.7794
 3548TIP3    H232136   6.311   4.134   3.447 -1.0797 -0.1358  0.0875
 3549TIP3   OH232137   4.900   1.351  14.027  0.1285  0.4660  0.8573
 3549TIP3    H132138   4.960   1.289  14.070 -0.8239  0.7857  2.7510
 3549TIP3    H232139   4.958   1.409  13.978  1.0493 -2.1198 -1.4292
 3550TIP3   OH232140   3.740   6.340  11.887  0.0744 -0.0106 -0.3663
 3550TIP3    H132141   3.823   6.385  11.905 -0.2918  0.9507 -0.9912
 3550TIP3    H232142   3.717   6.299  11.970  0.7591  0.4027  0.0413
 3551TIP3   OH232143   0.747   1.304  14.109 -0.2275 -0.3744 -0.7560
 3551TIP3    H132144   0.718   1.391  14.137 -0.4598 -0.4193 -0.8515
 3551TIP3    H232145   0.728   1.302  14.015 -0.3869 -0.5937 -0.7197
 3552TIP3   OH232146   2.504   3.274  13.100  0.0317 -0.5078  0.6164
 3552TIP3    H132147   2.450   3.327  13.041 -0.8786  0.0504  1.9271
 3552TIP3    H232148   2.462   3.188  13.099  0.1232 -0.5517  0.3270
 3553TIP3   OH232149   6.685   6.516  11.344  0.1065 -0.1436  0.1589
 3553TIP3    H132150   6.619   6.468  11.296  0.1184 -0.3622  0.3599
 3553TIP3    H232151   6.745   6.549  11.277  0.0196 -0.2887  0.0099
 3554TIP3   OH232152   5.990   6.160  14.431  0.2631 -0.1186 -0.0257
 3554TIP3    H132153   6.042   6.170  14.351 -0.8899 -1.4236 -0.9823
 3554TIP3    H232154   5.939   6.241  14.436 -1.1345 -0.8093 -1.7763
 3555TIP3   OH232155   3.952   4.800  15.705  1.0489  0.1378  0.2673
 3555TIP3    H132156   3.870   4.848  15.691  1.2650  0.6123  0.6064
 3555TIP3    H232157   3.993   4.844  15.779  0.8675 -1.0755  1.1360
 3556TIP3   OH232158   5.413   6.137  16.285  0.1256  0.1546 -0.7041
 3556TIP3    H132159   5.393   6.200  16.216  1.1017 -0.3307 -1.4683
 3556TIP3    H232160   5.475   6.076  16.244  1.1143  0.1289  0.7521
 3557TIP3   OH232161   3.997   0.004  12.021  0.3823  0.0245  0.4826
 3557TIP3    H132162   3.971   0.079  11.967 -0.8167  0.3315  1.4430
 3557TIP3    H232163   3.925  -0.058  12.013  0.9138 -0.6015  0.4895
 3558TIP3   OH232164   0.289   3.160  12.415  0.1607  0.4895 -0.0223
 3558TIP3    H132165   0.348   3.128  12.484  0.1727 -2.3190 -1.1785
 3558TIP3    H232166   0.347   3.183  12.342  0.0394  1.6730  0.2434
 3559TIP3   OH232167   5.675   4.522   0.942  0.3506  0.3193 -0.5430
 3559TIP3    H132168   5.581   4.506   0.929  0.6010 -0.1448 -1.9170
 3559TIP3    H232169   5.718   4.455   0.888  1.4858  0.1721  0.4985
 3560TIP3   OH232170   6.315   2.952  13.311 -0.0115  0.0575 -0.0692
 3560TIP3    H132171   6.320   2.943  13.406  0.1401 -0.9556 -0.1568
 3560TIP3    H232172   6.406   2.942  13.281 -0.0365  0.5332 -0.3118
 3561TIP3   OH232173   5.136   5.102  15.798  0.2658  0.4367  0.2462
 3561TIP3    H132174   5.070   5.164  15.766 -1.9253 -2.9721 -2.7540
 3561TIP3    H232175   5.202   5.099  15.728  1.3236  0.6868  1.2121
 3562TIP3   OH232176   2.843   1.782   0.455 -0.0447 -0.2212  0.1361
 3562TIP3    H132177   2.808   1.870   0.469  1.4345  0.7165 -1.5143
 3562TIP3    H232178   2.935   1.797   0.431  1.0651 -2.4150  2.5152
 3563TIP3   OH232179   1.703   5.628  15.821  0.2442  0.6262  0.3185
 3563TIP3    H132180   1.693   5.550  15.766 -0.7422  0.8500  0.1594
 3563TIP3    H232181   1.774   5.677  15.780  1.6885 -0.7263  1.0851
 3564TIP3   OH232182   2.284   4.506   4.845 -0.6324 -0.1273  0.1679
 3564TIP3    H132183   2.317   4.416   4.844  0.6727  0.3231  0.5409
 3564TIP3    H232184   2.362   4.560   4.836 -1.5612  0.9634 -1.8834
 3565TIP3   OH232185   0.719   5.145  13.628 -0.2756  0.3608  0.1662
 3565TIP3    H132186   0.715   5.056  13.594 -1.4528  0.2273  0.6188
 3565TIP3    H232187   0.658   5.195  13.574 -0.1607  0.7300  0.3718
 3566TIP3   OH232188   4.750   6.461   1.277  0.3025 -0.4939  0.2067
 3566TIP3    H132189   4.731   6.386   1.221  2.0883 -1.0290  0.2517
 3566TIP3    H232190   4.718   6.436   1.363 -1.2623 -0.2065 -0.2653
 3567TIP3   OH232191   2.462   0.827  10.762  0.3046 -0.4362  0.1866
 3567TIP3    H132192   2.521   0.878  10.818  0.2466 -1.3548  1.1120
 3567TIP3    H232193   2.414   0.892  10.712  1.5156  0.3587  0.0157
 3568TIP3   OH232194   0.614   5.470   3.982  0.2097 -0.3433  0.8283
 3568TIP3    H132195   0.645   5.467   4.072 -0.6143 -0.3507  1.1241
 3568TIP3    H232196   0.692   5.485   3.929  0.4893  1.3313  1.6769
 3569TIP3   OH232197   0.190   6.583   3.156  0.0931  0.0768  0.0541
 3569TIP3    H132198   0.139   6.522   3.104  0.8058  0.3757 -1.0170
 3569TIP3    H232199   0.233   6.640   3.093 -1.1946  2.2569  1.0291
 3570TIP3   OH232200   5.050   6.359  12.756 -0.0125  0.0182 -0.2816
 3570TIP3    H132201   5.058   6.454  12.748  1.5273 -0.2418 -2.4007
 3570TIP3    H232202   5.066   6.342  12.849 -1.0323  1.8435  0.2962
 3571TIP3   OH232203   1.100   6.268  14.562  0.1453 -0.2256 -0.5420
 3571TIP3    H132204   1.145   6.226  14.489 -1.6262 -2.8191 -0.2807
 3571TIP3    H232205   1.083   6.197  14.624 -1.5986  1.1863  0.7201
 3572TIP3   OH232206   6.148   1.548  13.079  0.6734  0.1135  0.1884
 3572TIP3    H132207   6.137   1.491  13.003  3.7899  3.3997 -3.0939
 3572TIP3    H232208   6.067   1.599  13.083  1.0361  1.0134 -2.1359
 3573TIP3   OH232209   5.126   0.811  11.406  0.9009 -0.3057  0.3106
 3573TIP3    H132210   5.219   0.799  11.385  0.7454 -0.7754 -0.1326
 3573TIP3    H232211   5.122   0.808  11.502  0.9996 -3.1250  0.3162
 3574TIP3   OH232212   2.472   3.494   5.356  0.3114 -0.2165  0.0987
 3574TIP3    H132213   2.540   3.518   5.293  0.6851 -1.8510 -0.1640
 3574TIP3    H232214   2.520   3.451   5.428 -0.2320  0.5525  0.9421
 3575TIP3   OH232215   2.128   3.920  14.545  0.7043 -0.4983  0.0671
 3575TIP3    H132216   2.145   3.958  14.458 -1.8255  2.9513  0.8674
 3575TIP3    H232217   2.204   3.945  14.597  0.1772  1.5526 -0.0723
 3576TIP3   OH232218   1.684   3.967   4.890  0.6133 -0.0448 -0.0416
 3576TIP3    H132219   1.776   3.940   4.892  0.8650  0.7019 -0.9682
 3576TIP3    H232220   1.679   4.042   4.948  0.0106 -1.6745  2.1483
 3577TIP3   OH232221   4.493   0.721   5.276 -0.0977  0.3725 -0.1642
 3577TIP3    H132222   4.538   0.759   5.200  0.1276 -1.1351 -0.8121
 3577TIP3    H232223   4.557   0.661   5.314 -0.7913 -0.1365  0.2135
 3578TIP3   OH232224   3.998   4.340   5.467  0.2389 -0.0538 -0.6301
 3578TIP3    H132225   3.959   4.271   5.521 -0.6085  0.0964 -1.0290
 3578TIP3    H232226   4.006   4.301   5.380  1.4919 -0.2558 -0.4500
 3579TIP3   OH232227   2.037   2.609   4.838 -0.0698  0.5028  0.8778
 3579TIP3    H132228   2.088   2.630   4.760 -0.1755  0.9848  0.9358
 3579TIP3    H232229   2.101   2.578   4.902 -0.3018 -3.2148 -0.4705
 3580TIP3   OH232230   1.035   0.543  15.443 -0.2241  0.0741 -0.3063
 3580TIP3    H132231   1.087   0.563  15.520  0.3707 -0.9917 -0.4047
 3580TIP3    H232232   0.963   0.490  15.476 -0.0844 -0.2053 -0.4429
 3581TIP3   OH232233   3.004   4.204   0.294  0.3678 -0.6365  0.3800
 3581TIP3    H132234   3.094   4.236   0.287  0.4336 -0.7238  0.7647
 3581TIP3    H232235   2.993   4.145   0.219  0.7792 -0.9679  0.5739
 3582TIP3   OH232236   4.561   4.971  15.950 -0.0905  0.0017 -0.4057
 3582TIP3    H132237   4.607   5.049  15.982  1.4859 -0.6246 -1.0232
 3582TIP3    H232238   4.579   4.904  16.015 -1.7414  0.2132  0.3035
 3583TIP3   OH232239   5.148   4.161   4.650 -0.1081 -0.1374 -0.3393
 3583TIP3    H132240   5.085   4.214   4.600 -1.0506 -0.9458 -0.0350
 3583TIP3    H232241   5.096   4.122   4.720  0.7551 -0.7606 -0.0340
 3584TIP3   OH232242   3.381   6.776  16.611  0.3035 -0.3277  0.3380
 3584TIP3    H132243   3.420   6.691  16.628 -1.9788 -1.4301  0.4104
 3584TIP3    H232244   3.361   6.776  16.517 -0.1277 -0.0771  0.4231
 3585TIP3   OH232245   2.633   4.756   0.172 -0.0307 -0.3395  0.7460
 3585TIP3    H132246   2.577   4.802   0.110  1.2061 -1.7980 -1.5783
 3585TIP3    H232247   2.573   4.705   0.226 -1.0638 -0.4818 -0.5023
 3586TIP3   OH232248   3.030   5.010   1.974  0.0568  0.4054  0.0208
 3586TIP3    H132249   2.966   4.944   1.949 -1.0728  1.2760  0.5690
 3586TIP3    H232250   3.038   5.065   1.896 -2.4492  2.3035  0.9637
 3587TIP3   OH232251   5.692   5.604  15.595 -0.2059 -0.3767 -0.1904
 3587TIP3    H132252   5.616   5.658  15.620 -0.7204 -0.1096 -2.2080
 3587TIP3    H232253   5.665   5.514  15.616 -0.7973 -0.2145 -0.2335
 3588TIP3   OH232254   1.321   0.424  12.881  0.0341 -0.4950  0.6152
 3588TIP3    H132255   1.259   0.413  12.808  0.2146  1.7673  0.0218
 3588TIP3    H232256   1.392   0.363  12.862  0.1863  0.2057 -1.2854
 3589TIP3   OH232257   0.256   6.606  16.927 -0.5787  0.6564 -0.0439
 3589TIP3    H132258   0.332   6.638  16.878 -0.7792  0.1034 -0.7244
 3589TIP3    H232259   0.223   6.683  16.973 -0.1848  1.1073 -0.5081
 3590TIP3   OH232260   0.075   2.422   3.222  0.5070  0.1923  0.4796
 3590TIP3    H132261   0.111   2.414   3.134  1.0720 -0.7357  0.7900
 3590TIP3    H232262  -0.008   2.374   3.219  1.2255 -1.1212  0.8294
 3591TIP3   OH232263   6.219   6.110  16.628  0.1132 -0.4847  0.1652
 3591TIP3    H132264   6.129   6.143  16.637  0.6270  1.0642 -0.0631
 3591TIP3    H232265   6.225   6.085  16.535 -0.7030 -2.6680  0.6248
 3592TIP3   OH232266   6.535   0.012  13.936 -0.1616 -0.1481 -0.6128
 3592TIP3    H132267   6.490  -0.064  13.897  0.9853 -1.7959  1.0700
 3592TIP3    H232268   6.506   0.011  14.027  1.6599  0.0002 -0.0082
 3593TIP3   OH232269   4.984   0.081  16.666  0.0652  0.5832 -0.4169
 3593TIP3    H132270   4.891   0.101  16.674  0.5138  2.4043  0.9448
 3593TIP3    H232271   5.000   0.013  16.732 -0.1068  1.0233  0.0834
 3594TIP3   OH232272   5.248   0.397   2.390 -0.3764 -0.1658  0.2628
 3594TIP3    H132273   5.242   0.492   2.385 -0.0935 -0.0121  2.0986
 3594TIP3    H232274   5.159   0.368   2.412 -0.7701 -0.4700 -1.5997
 3595TIP3   OH232275   3.410   5.480   2.132 -0.3918  0.5513  0.0345
 3595TIP3    H132276   3.434   5.438   2.049 -0.1504  0.2212  0.2702
 3595TIP3    H232277   3.493   5.500   2.174 -0.4444  2.4890 -0.6521
 3596TIP3   OH232278   5.639   1.669  15.335 -0.0048 -0.3401 -0.1870
 3596TIP3    H132279   5.726   1.699  15.308  0.5166 -0.3050  1.4296
 3596TIP3    H232280   5.643   1.668  15.430 -0.9201 -2.8888 -0.1232
 3597TIP3   OH232281   6.528   1.824  11.198  0.0956  0.2807  0.4077
 3597TIP3    H132282   6.619   1.854  11.196  0.7323 -1.4703  0.9603
 3597TIP3    H232283   6.515   1.792  11.287 -0.4452 -1.1849 -0.1598
 3598TIP3   OH232284   2.994   4.381  11.593  0.1809 -0.4478  0.3965
 3598TIP3    H132285   3.032   4.297  11.568 -2.2446 -0.9424 -2.0259
 3598TIP3    H232286   2.900   4.370  11.581 -0.2044  2.7144 -0.4723
 3599TIP3   OH232287   6.119   0.022  11.778 -0.1614 -0.4080  0.5050
 3599TIP3    H132288   6.188   0.088  11.773  0.6702 -1.3326 -0.7806
 3599TIP3    H232289   6.075   0.040  11.861 -0.3997  2.1746 -0.0901
 3600TIP3   OH232290   1.814   0.158  14.256  0.2901  0.3786  0.4911
 3600TIP3    H132291   1.773   0.150  14.342  1.2910 -1.2782  0.8536
 3600TIP3    H232292   1.830   0.068  14.228 -0.8516  0.8334 -1.8715
 3601TIP3   OH232293   4.298   3.279   1.888 -0.3323 -0.8266 -0.0560
 3601TIP3    H132294   4.304   3.185   1.904 -1.0982 -0.8770 -0.0275
 3601TIP3    H232295   4.351   3.318   1.957 -0.7560 -1.2052  0.5010
 3602TIP3   OH232296   3.390   4.263   4.131 -0.5690 -0.0519 -0.4037
 3602TIP3    H132297   3.440   4.202   4.077 -0.8648  0.5493 -1.3763
 3602TIP3    H232298   3.422   4.349   4.105 -1.3863  0.2889 -0.2980
 3603TIP3   OH232299   1.447   1.324  17.165 -0.5115 -0.0509  0.6550
 3603TIP3    H132300   1.542   1.318  17.152 -0.4703 -0.0178  0.9317
 3603TIP3    H232301   1.431   1.273  17.245 -0.9784 -1.6478 -0.4028
 3604TIP3   OH232302   1.378   5.524  11.815 -0.1080  0.5676 -0.5569
 3604TIP3    H132303   1.376   5.594  11.750  0.3879  0.5401 -0.6091
 3604TIP3    H232304   1.359   5.566  11.898 -0.4468  0.6553 -0.6793
 3605TIP3   OH232305   4.857   4.772  17.256  0.6251  0.2691  0.0563
 3605TIP3    H132306   4.942   4.748  17.218  0.5269  0.1363 -0.0788
 3605TIP3    H232307   4.821   4.836  17.196  1.3733  1.6055  0.9723
 3606TIP3   OH232308   5.029   2.155  13.869 -0.1554  0.5798 -0.2773
 3606TIP3    H132309   5.054   2.244  13.892  0.5428  0.5039 -0.7182
 3606TIP3    H232310   5.076   2.100  13.932 -0.1024  0.4870 -0.3990
 3607TIP3   OH232311   3.159   2.353   0.961  0.0177 -0.2453  0.1004
 3607TIP3    H132312   3.190   2.355   0.870  0.9902 -0.9870  0.3968
 3607TIP3    H232313   3.126   2.264   0.973 -3.0041  0.6877 -0.4079
 3608TIP3   OH232314   1.189   0.976  16.017 -0.2601 -0.6752  0.1075
 3608TIP3    H132315   1.200   1.021  16.101 -0.1599  0.1695 -0.3467
 3608TIP3    H232316   1.278   0.956  15.988 -0.1971  0.3940 -0.5022
 3609TIP3   OH232317   3.416   5.566  16.056 -0.9289 -0.1169 -0.4161
 3609TIP3    H132318   3.363   5.508  16.112  1.9290 -2.4121  0.1942
 3609TIP3    H232319   3.458   5.626  16.117 -0.4837 -0.3365 -0.5019
 3610TIP3   OH232320   6.286   1.946   4.835 -0.2791  0.3719 -0.0721
 3610TIP3    H132321   6.360   1.993   4.872 -1.1656 -0.4191  2.9925
 3610TIP3    H232322   6.214   1.963   4.895 -1.4482 -2.3253 -0.5565
 3611TIP3   OH232323   2.842   6.120   1.541 -0.2065 -0.0315 -0.7092
 3611TIP3    H132324   2.915   6.102   1.601 -1.1994 -0.2522  0.4655
 3611TIP3    H232325   2.881   6.175   1.472  1.1304 -0.3961 -0.2855
 3612TIP3   OH232326   3.665   4.992   0.781 -0.0270 -0.2107  0.2021
 3612TIP3    H132327   3.586   4.939   0.789  1.7307 -2.8869  1.2871
 3612TIP3    H232328   3.646   5.054   0.711 -2.1817 -2.4201 -1.2953
 3613TIP3   OH232329   3.458   2.700  12.875 -0.0483 -0.0221 -0.1385
 3613TIP3    H132330   3.382   2.655  12.840 -1.0121 -0.3600  2.2047
 3613TIP3    H232331   3.533   2.647  12.848 -0.9238 -1.4869  0.2385
 3614TIP3   OH232332   3.449   4.815  14.472  0.0427  0.0170  0.4686
 3614TIP3    H132333   3.472   4.765  14.393 -0.7752 -0.1993  0.3619
 3614TIP3    H232334   3.465   4.754  14.544 -0.0479 -0.0812  0.4063
 3615TIP3   OH232335   1.662   6.243  13.161 -0.1727  0.2567 -0.2684
 3615TIP3    H132336   1.697   6.281  13.242 -0.7568  1.1343 -0.4238
 3615TIP3    H232337   1.739   6.205  13.118  0.3178  0.7075  0.1898
 3616TIP3   OH232338   5.676   2.629  15.687  0.2565 -0.1344 -0.1740
 3616TIP3    H132339   5.741   2.669  15.629  0.3145 -1.5736 -1.1429
 3616TIP3    H232340   5.727   2.570  15.743  0.2186  1.3259  1.4773
 3617TIP3   OH232341   1.078   1.760  17.211 -0.0949  0.1164  0.3461
 3617TIP3    H132342   1.009   1.713  17.258 -1.7472  0.2782 -1.7506
 3617TIP3    H232343   1.056   1.853  17.224 -0.6597  0.1588 -0.8224
 3618TIP3   OH232344   1.146   3.593  16.888  0.2999 -0.5269 -0.1696
 3618TIP3    H132345   1.195   3.629  16.961  0.9668 -0.6483 -0.5433
 3618TIP3    H232346   1.061   3.637  16.892  0.3141 -0.5618  0.6906
 3619TIP3   OH232347   3.753   3.294   1.516  0.3023 -0.6069 -0.4903
 3619TIP3    H132348   3.659   3.292   1.537  0.8392  1.9720  2.9253
 3619TIP3    H232349   3.757   3.327   1.426 -2.0725  2.7561  0.4649
 3620TIP3   OH232350   5.107   1.736   0.122 -0.2143 -0.1112  0.0066
 3620TIP3    H132351   5.022   1.756   0.082 -1.3417 -0.9413  1.8757
 3620TIP3    H232352   5.117   1.641   0.110  0.7108  0.0473 -0.6185
 3621TIP3   OH232353   4.952   1.776  11.649  0.1760  0.5283 -0.4492
 3621TIP3    H132354   4.924   1.866  11.666 -1.2447  0.1664 -0.7293
 3621TIP3    H232355   4.883   1.721  11.686  1.0360 -0.4580 -0.2495
 3622TIP3   OH232356   4.173   5.583   4.993 -0.3333  0.1259 -0.3179
 3622TIP3    H132357   4.126   5.593   5.076 -0.3207  1.8236 -0.4782
 3622TIP3    H232358   4.126   5.638   4.932  0.3475 -0.1939 -1.1515
 3623TIP3   OH232359   2.984   2.882   1.174  0.0119 -0.3078 -0.3566
 3623TIP3    H132360   3.017   2.884   1.264  0.0761 -1.8847 -0.3268
 3623TIP3    H232361   3.061   2.902   1.121 -0.2393  1.6629 -0.0547
 3624TIP3   OH232362   4.972   0.686  16.025  0.0145 -0.8408 -0.1445
 3624TIP3    H132363   4.905   0.669  16.092  0.4910 -1.6324  0.1438
 3624TIP3    H232364   5.036   0.741  16.070  0.6476 -1.8723  0.2736
 3625TIP3   OH232365   4.818   1.273  15.597  0.5312 -0.0744 -0.1785
 3625TIP3    H132366   4.875   1.197  15.582  0.0491 -0.8854  1.8282
 3625TIP3    H232367   4.875   1.339  15.636  0.3322 -0.4928  0.8272
 3626TIP3   OH232368   6.121   6.025  15.351 -0.1044 -0.4177 -0.1908
 3626TIP3    H132369   6.214   6.047  15.352  0.2953 -2.0004  0.5536
 3626TIP3    H232370   6.100   6.003  15.442 -1.8252  2.1597  0.1370
 3627TIP3   OH232371   2.651   5.494   5.648 -0.7642 -0.1900 -0.2004
 3627TIP3    H132372   2.641   5.586   5.671 -0.4113 -0.1015 -0.3854
 3627TIP3    H232373   2.725   5.493   5.587 -0.1543 -0.7108  0.5253
 3628TIP3   OH232374   6.618   5.615  16.215  0.0677 -0.4881  0.1611
 3628TIP3    H132375   6.653   5.671  16.284  0.7781 -1.1763  0.3718
 3628TIP3    H232376   6.551   5.562  16.258 -0.3059 -0.1082  0.0567
 3629TIP3   OH232377   1.616   6.768   5.449 -0.6347 -0.0247  0.5322
 3629TIP3    H132378   1.656   6.855   5.444 -0.4543 -0.1672 -0.8094
 3629TIP3    H232379   1.649   6.732   5.531  1.0483  0.3342  0.0648
 3630TIP3   OH232380   0.878   6.295  13.551  0.1371  0.2036 -0.3594
 3630TIP3    H132381   0.832   6.360  13.604 -0.5300 -1.3094  1.0519
 3630TIP3    H232382   0.948   6.263  13.608 -0.5180 -1.3837 -0.3866
 3631TIP3   OH232383   0.540   6.428  11.567 -0.5546 -0.5492 -0.0215
 3631TIP3    H132384   0.473   6.483  11.608  1.0029  0.4744  1.2456
 3631TIP3    H232385   0.623   6.467  11.593  0.5658 -1.3750 -2.1264
 3632TIP3   OH232386   1.777   1.222  14.408 -0.0968  0.4570 -0.3718
 3632TIP3    H132387   1.835   1.295  14.385  1.6678 -0.5547  0.5985
 3632TIP3    H232388   1.836   1.156  14.446 -1.7404 -1.1395 -0.4552
 3633TIP3   OH232389   6.543   1.218   3.051 -0.3638  0.1777  0.4309
 3633TIP3    H132390   6.587   1.211   2.966  0.0928  0.4950  0.6415
 3633TIP3    H232391   6.464   1.164   3.041  0.7524 -1.5461  0.5145
 3634TIP3   OH232392   4.467   1.809  17.138  0.0204 -0.0159  0.1138
 3634TIP3    H132393   4.419   1.727  17.150  0.1663 -0.1211 -0.0181
 3634TIP3    H232394   4.554   1.790  17.171  0.5121 -0.3913 -1.3184
 3635TIP3   OH232395   3.080   6.702  15.878 -0.6817 -0.4598  0.0820
 3635TIP3    H132396   3.018   6.712  15.950  1.7459 -1.3781  2.5151
 3635TIP3    H232397   3.062   6.615  15.843 -1.8009 -0.0620 -0.3614
 3636TIP3   OH232398   0.585   1.042  15.599  0.4811 -0.3587  0.1194
 3636TIP3    H132399   0.539   1.106  15.653 -1.9409 -1.1719 -0.8505
 3636TIP3    H232400   0.615   0.975  15.660  0.3714  0.1906  0.7836
 3637TIP3   OH232401   5.812   5.344  15.274  0.5329 -0.4410 -0.6339
 3637TIP3    H132402   5.768   5.361  15.357  0.2748 -0.6529 -0.7281
 3637TIP3    H232403   5.746   5.302  15.220 -0.4640  2.7812 -2.2103
 3638TIP3   OH232404   5.659   6.313   3.676 -0.5842  0.0577  0.8947
 3638TIP3    H132405   5.707   6.375   3.622  1.0555 -2.2401 -0.5009
 3638TIP3    H232406   5.567   6.336   3.663 -0.1268  0.9973 -1.1290
 3639TIP3   OH232407   1.157   1.319   0.646  0.5042  0.0899  0.0824
 3639TIP3    H132408   1.154   1.349   0.737 -0.6792 -2.2429  0.9034
 3639TIP3    H232409   1.213   1.241   0.649 -0.9419 -1.0362 -0.8011
 3640TIP3   OH232410   2.081   5.725  13.722  0.3628  0.1917  0.3088
 3640TIP3    H132411   2.143   5.787  13.685  0.3070 -0.0350 -0.1695
 3640TIP3    H232412   2.113   5.639  13.696 -0.2470  0.0798 -0.1048
 3641TIP3   OH232413   5.765   1.278   1.524 -0.5872 -0.4916  0.0701
 3641TIP3    H132414   5.724   1.194   1.502 -1.2541 -0.8985  2.5628
 3641TIP3    H232415   5.709   1.343   1.482 -1.3202 -1.2193 -0.1288
 3642TIP3   OH232416   0.170   3.043   6.024  0.5573 -0.5427  0.0550
 3642TIP3    H132417   0.262   3.038   6.051  0.6925 -0.6666 -0.4108
 3642TIP3    H232418   0.169   3.002   5.938  0.2401  0.3733 -0.3822
 3643TIP3   OH232419   4.582   3.638   3.280  0.1616 -0.5534  0.7774
 3643TIP3    H132420   4.631   3.602   3.354 -0.7339 -0.8425  1.2479
 3643TIP3    H232421   4.638   3.622   3.204  0.8852 -0.6832  1.3290
 3644TIP3   OH232422   3.979   0.807   3.141  0.2359 -0.4166  0.0199
 3644TIP3    H132423   3.972   0.818   3.046  2.3779  0.5308 -0.0738
 3644TIP3    H232424   3.914   0.739   3.162 -3.5158  2.3568 -1.4513
 3645TIP3   OH232425   6.080   2.127  14.097 -0.1917 -0.0307 -0.2874
 3645TIP3    H132426   6.063   2.045  14.144 -0.5006 -0.4759 -1.1507
 3645TIP3    H232427   6.175   2.128  14.084 -0.0970  0.1373  0.4218
 3646TIP3   OH232428   0.194   5.036   5.927  0.3677  0.6119  0.1865
 3646TIP3    H132429   0.261   5.068   5.987  1.1469  1.0538 -0.8915
 3646TIP3    H232430   0.138   4.980   5.981  0.5264  1.6804  1.5139
 3647TIP3   OH232431   5.977   0.191  16.001  0.0635 -0.3154  0.2922
 3647TIP3    H132432   5.891   0.233  15.991  0.1717  0.1030  1.0891
 3647TIP3    H232433   5.968   0.136  16.079 -0.0811 -1.8208 -0.7362
 3648TIP3   OH232434   2.243   4.896   4.839 -0.1904  0.5189  0.5059
 3648TIP3    H132435   2.304   4.904   4.913 -2.2369 -0.9442  2.4763
 3648TIP3    H232436   2.206   4.984   4.829  0.7470  0.9381  0.6062
 3649TIP3   OH232437   1.807   2.342  15.638  0.0680  0.0713 -0.1083
 3649TIP3    H132438   1.802   2.283  15.563 -0.0211  2.4773 -2.1342
 3649TIP3    H232439   1.749   2.415  15.614  0.6605  1.2907  1.9606
 3650TIP3   OH232440   1.054   0.826  15.019  0.2811  0.2960 -0.2498
 3650TIP3    H132441   1.048   0.810  15.113  1.2878  0.9745 -0.0552
 3650TIP3    H232442   1.026   0.917  15.008  2.7962  1.1711 -0.2042
 3651TIP3   OH232443   0.308   4.160   1.325  0.1086  0.0111 -0.1365
 3651TIP3    H132444   0.240   4.227   1.327 -0.5301 -0.6106  1.8578
 3651TIP3    H232445   0.277   4.097   1.260 -0.9489  0.0448  0.3115
 3652TIP3   OH232446   0.231   2.873   0.153  0.3124 -0.1113 -1.4924
 3652TIP3    H132447   0.282   2.927   0.092  0.7406 -1.4111 -2.3301
 3652TIP3    H232448   0.153   2.924   0.171  1.7504  1.8222 -0.3953
 3653TIP3   OH232449   5.849   2.241   1.924 -0.0917 -0.6280 -0.2705
 3653TIP3    H132450   5.875   2.310   1.863 -0.7184 -0.2593 -0.1254
 3653TIP3    H232451   5.780   2.280   1.978  1.9778 -0.1762  2.2435
 3654TIP3   OH232452   5.947   5.954   3.282 -0.7516  0.2580  0.2194
 3654TIP3    H132453   5.982   5.916   3.362  4.2989  2.2299 -0.6712
 3654TIP3    H232454   5.946   6.048   3.298 -1.3264  0.5822 -1.4835
 3655TIP3   OH232455   3.328   1.651   4.297 -0.0793  0.1087 -0.7076
 3655TIP3    H132456   3.283   1.620   4.376  0.3797  1.1256 -0.0159
 3655TIP3    H232457   3.421   1.644   4.319  0.0451  1.7882 -0.5564
 3656TIP3   OH232458   4.479   3.428   3.595 -0.0515 -0.0799 -0.3689
 3656TIP3    H132459   4.509   3.461   3.679  0.5501  0.2288 -0.7047
 3656TIP3    H232460   4.549   3.369   3.565  1.3692  2.3555 -2.2095
 3657TIP3   OH232461   2.895   6.701   1.732 -0.4061  0.1654  0.2203
 3657TIP3    H132462   2.802   6.679   1.724 -0.2914 -1.2019  2.0672
 3657TIP3    H232463   2.940   6.617   1.726  0.6912  0.7511 -0.0567
 3658TIP3   OH232464   1.676   2.124   0.343 -0.2749  0.0678 -0.2878
 3658TIP3    H132465   1.737   2.052   0.359  1.3542  1.4861  0.2361
 3658TIP3    H232466   1.704   2.161   0.260 -0.1802  0.9650  0.1367
 3659TIP3   OH232467   6.575   6.323   4.406  0.3688 -0.1763 -0.0781
 3659TIP3    H132468   6.536   6.389   4.464  0.2195  1.5724 -2.0497
 3659TIP3    H232469   6.631   6.373   4.346  0.3358 -1.8480 -1.6050
 3660TIP3   OH232470   1.779   0.381   0.247 -0.1365  0.4191  0.1560
 3660TIP3    H132471   1.842   0.309   0.250  0.3537  0.8852  1.7150
 3660TIP3    H232472   1.802   0.437   0.321 -3.1996 -0.1143  1.6821
 3661TIP3   OH232473   0.382   2.106  11.160  0.1809  0.2070 -0.4257
 3661TIP3    H132474   0.380   2.156  11.078  0.0638 -0.7516 -1.0338
 3661TIP3    H232475   0.354   2.168  11.227  1.7222  1.4468 -0.8690
 3662TIP3   OH232476   1.433   0.279  14.361 -0.4694 -0.1091  0.2674
 3662TIP3    H132477   1.394   0.364  14.382 -2.2316 -1.2392  1.9540
 3662TIP3    H232478   1.473   0.291  14.275 -1.4159  2.1771  0.0816
 3663TIP3   OH232479   3.198   5.289  14.400  0.3896  0.3852  0.6681
 3663TIP3    H132480   3.238   5.374  14.381  0.2747  0.3246  0.1389
 3663TIP3    H232481   3.268   5.238  14.440  0.3880  0.8117  1.2207
 3664TIP3   OH232482   2.910   5.425   3.739 -0.2019 -0.4418  0.1174
 3664TIP3    H132483   2.947   5.376   3.666 -0.1034 -0.4194  0.1524
 3664TIP3    H232484   2.977   5.490   3.761  0.0412 -0.8657  0.6471
 3665TIP3   OH232485   5.787   2.311   4.499 -0.0893 -0.3188 -0.2813
 3665TIP3    H132486   5.718   2.365   4.538  0.1001  1.2061 -1.9331
 3665TIP3    H232487   5.865   2.367   4.500  1.1330 -1.9244  1.3465
 3666TIP3   OH232488   3.507   1.769  16.168 -0.0258  0.6325 -0.5496
 3666TIP3    H132489   3.504   1.859  16.200 -0.0670  0.9049 -1.3069
 3666TIP3    H232490   3.582   1.730  16.213 -1.7195  0.1318  2.0714
 3667TIP3   OH232491   0.935   4.009  14.214  0.3773 -0.2289  0.2242
 3667TIP3    H132492   0.939   3.940  14.280 -0.6660 -1.3066 -0.8112
 3667TIP3    H232493   0.915   3.964  14.133  1.4016  1.1045 -0.8119
 3668TIP3   OH232494   0.574   5.027  14.350  0.7414 -0.0210 -0.4654
 3668TIP3    H132495   0.517   5.098  14.321 -0.3166 -0.5556  0.2509
 3668TIP3    H232496   0.663   5.060  14.334  0.2479  0.6310 -2.0578
 3669TIP3   OH232497   0.139   0.371  11.598  0.0442  0.2797  0.8637
 3669TIP3    H132498   0.087   0.295  11.570 -0.9018  1.2491 -0.1579
 3669TIP3    H232499   0.222   0.361  11.552  0.2082 -0.5199  1.3254
 3670TIP3   OH232500   1.057   5.985   1.338 -0.3424  0.0878  0.0770
 3670TIP3    H132501   1.109   6.023   1.408  1.0138  1.4136 -1.5706
 3670TIP3    H232502   0.974   6.032   1.341 -0.5830 -0.3907  1.2373
 3671TIP3   OH232503   3.881   0.323   4.063 -0.6012  0.0784 -0.1998
 3671TIP3    H132504   3.815   0.330   4.133  0.6939  2.1869  0.8964
 3671TIP3    H232505   3.964   0.344   4.106  0.7123 -1.6297 -1.7400
 3672TIP3   OH232506   1.191   3.626   6.236 -0.1547  0.2380 -0.2788
 3672TIP3    H132507   1.164   3.680   6.311  0.1353  0.3986 -0.2865
 3672TIP3    H232508   1.237   3.688   6.178  1.6972 -0.3301  0.4975
 3673TIP3   OH232509   5.601   2.765   5.924  0.2204 -0.4405  0.0067
 3673TIP3    H132510   5.639   2.690   5.877  2.8892  1.2364 -0.7201
 3673TIP3    H232511   5.641   2.762   6.010  0.1085 -0.0000  0.0750
 3674TIP3   OH232512   0.236   4.235  15.347  0.2147  0.0854  0.3737
 3674TIP3    H132513   0.276   4.298  15.287 -0.2833 -1.1715 -1.3558
 3674TIP3    H232514   0.263   4.265  15.434 -1.4776  3.6956 -0.1828
 3675TIP3   OH232515   6.091   3.129   4.948 -0.0379  0.6536  0.2306
 3675TIP3    H132516   6.094   3.034   4.938 -2.0949  0.4451  1.1643
 3675TIP3    H232517   6.174   3.150   4.991  1.4678 -0.3842 -1.9635
 3676TIP3   OH232518   5.245   0.462  13.692 -0.4753  0.2860  0.0818
 3676TIP3    H132519   5.273   0.501  13.609  0.4916 -0.7248 -0.0832
 3676TIP3    H232520   5.149   0.457  13.684 -0.3267 -1.0424 -1.5644
 3677TIP3   OH232521   1.342   3.516   0.925  0.2335 -0.1840  0.1543
 3677TIP3    H132522   1.332   3.611   0.930 -0.3059 -0.2627  0.7104
 3677TIP3    H232523   1.345   3.487   1.016  1.0820 -0.6399 -0.0099
 3678TIP3   OH232524   2.993   1.308   0.128 -0.4644  0.0609 -0.0633
 3678TIP3    H132525   2.958   1.311   0.217 -0.1105  2.7870  0.0924
 3678TIP3    H232526   2.923   1.268   0.076 -2.2301  1.6828  0.9005
 3679TIP3   OH232527   2.104   1.527  13.925 -0.1879 -0.6290 -0.3420
 3679TIP3    H132528   2.185   1.553  13.880  0.1331 -1.1307 -0.0546
 3679TIP3    H232529   2.035   1.546  13.862  0.0448  0.7574 -0.2217
 3680TIP3   OH232530   5.225   6.543   6.337 -0.2330  0.0765  0.2176
 3680TIP3    H132531   5.261   6.518   6.252 -0.0739 -0.9521  0.5704
 3680TIP3    H232532   5.163   6.613   6.317  0.1833  0.2045 -0.6825
 3681TIP3   OH232533   1.516   0.327   0.190 -0.6082  0.6586  0.3594
 3681TIP3    H132534   1.596   0.378   0.201  0.4743 -0.2251 -2.5959
 3681TIP3    H232535   1.454   0.388   0.150 -0.6036  0.6954  0.4083
 3682TIP3   OH232536   1.809   3.413   3.958  0.8343 -0.0105  0.1028
 3682TIP3    H132537   1.833   3.322   3.976  1.5961  0.1782  0.0788
 3682TIP3    H232538   1.860   3.436   3.880 -0.6296 -0.0825 -0.9279
 3683TIP3   OH232539   5.044   5.956  14.449  0.0057 -0.3234 -0.3669
 3683TIP3    H132540   5.068   6.031  14.504  1.1804  0.0084 -1.3071
 3683TIP3    H232541   5.022   5.887  14.512  2.4079 -0.3244  0.5783
 3684TIP3   OH232542   2.491   6.022  16.125 -0.0559  0.5521 -0.1657
 3684TIP3    H132543   2.498   5.944  16.070  1.6906  0.2776  0.3792
 3684TIP3    H232544   2.533   5.998  16.207  1.9237  2.4710 -0.5003
 3685TIP3   OH232545   4.570   5.991  12.369  0.0146 -0.3327  0.1269
 3685TIP3    H132546   4.501   6.007  12.434  0.1242 -0.4421  0.2702
 3685TIP3    H232547   4.626   5.925  12.409  0.1879 -0.2656 -0.0023
 3686TIP3   OH232548   4.978   0.277  11.181 -0.2259 -0.3354 -0.4236
 3686TIP3    H132549   5.016   0.347  11.127 -1.0063 -0.3103 -0.9465
 3686TIP3    H232550   4.923   0.323  11.244 -2.7332 -0.5463 -2.3202
 3687TIP3   OH232551   6.443   4.711  15.635  0.1919 -0.7787 -0.0745
 3687TIP3    H132552   6.438   4.806  15.622  0.2009 -0.9337 -1.2843
 3687TIP3    H232553   6.439   4.700  15.730  2.0725  0.5325  0.2099
 3688TIP3   OH232554   0.663   5.170   3.183  0.1593  0.2404  0.3269
 3688TIP3    H132555   0.697   5.109   3.249 -2.3372 -2.4504 -0.6291
 3688TIP3    H232556   0.729   5.169   3.114  1.4730  0.8836  1.5263
 3689TIP3   OH232557   4.734   6.742  13.283 -0.6646 -0.3292  0.1369
 3689TIP3    H132558   4.806   6.752  13.346 -1.3867  1.2480  0.7658
 3689TIP3    H232559   4.739   6.819  13.228 -0.8117 -1.0910 -0.9653
 3690TIP3   OH232560   2.703   3.874   2.647 -0.1594  0.0783  0.3449
 3690TIP3    H132561   2.772   3.874   2.580 -0.1984 -0.5594  0.2990
 3690TIP3    H232562   2.750   3.871   2.730 -0.1225 -0.7460  0.3073
 3691TIP3   OH232563   2.213   3.333   3.412  0.5206 -0.3952  0.0775
 3691TIP3    H132564   2.237   3.280   3.336 -0.1937 -0.8546  0.1643
 3691TIP3    H232565   2.128   3.370   3.390  1.6065  1.9028 -0.5728
 3692TIP3   OH232566   1.647   2.824   4.147  0.2601 -0.6419  0.0183
 3692TIP3    H132567   1.581   2.761   4.174  0.7226 -1.5540 -0.8961
 3692TIP3    H232568   1.729   2.791   4.183  0.3311  0.1300  0.5993
 3693TIP3   OH232569   3.291   4.386   5.211 -0.6116 -0.2882  0.5969
 3693TIP3    H132570   3.340   4.331   5.273 -0.1734  0.2430  0.7331
 3693TIP3    H232571   3.319   4.355   5.125 -0.4042 -0.3158  0.6732
 3694TIP3   OH232572   5.930   3.901   6.490  0.5871 -0.0289 -0.6882
 3694TIP3    H132573   5.987   3.952   6.433  0.3795 -0.4319 -1.2630
 3694TIP3    H232574   5.894   3.966   6.551  0.6399  0.4480 -1.1512
 3695TIP3   OH232575   2.572   4.592  16.190  0.4202 -0.3300  0.8860
 3695TIP3    H132576   2.536   4.676  16.164  2.0336 -0.2469 -1.3906
 3695TIP3    H232577   2.665   4.609  16.203  0.3747 -1.3021  2.8605
 3696TIP3   OH232578   2.002   0.424  16.203 -0.2948 -0.1205 -0.1826
 3696TIP3    H132579   2.091   0.441  16.173 -0.2902 -0.1059 -0.1607
 3696TIP3    H232580   1.969   0.357  16.143 -0.5531  0.4539 -0.6956
 3697TIP3   OH232581   3.553   6.597  15.499  0.5937  0.1132  0.3972
 3697TIP3    H132582   3.553   6.630  15.409 -1.2056 -0.7373  0.0554
 3697TIP3    H232583   3.585   6.670  15.552  0.9306  0.8748 -0.8357
 3698TIP3   OH232584   5.667   5.092   0.704  0.6738 -0.3419  0.1121
 3698TIP3    H132585   5.760   5.104   0.722  0.6451  1.2377 -0.6011
 3698TIP3    H232586   5.648   5.002   0.731  2.3237 -0.5766  0.5693
 3699TIP3   OH232587   4.705   4.062  12.013 -0.6812 -0.3475 -0.6703
 3699TIP3    H132588   4.685   3.979  12.056 -1.8769  0.0111 -0.5214
 3699TIP3    H232589   4.621   4.106  12.002  0.1268  2.2098  1.9718
 3700TIP3   OH232590   1.488   4.003   4.675 -0.6109  0.1607 -0.1928
 3700TIP3    H132591   1.543   4.025   4.751  0.2351 -2.0818 -0.0799
 3700TIP3    H232592   1.407   4.051   4.690 -0.3597  0.0221  2.0207
 3701TIP3   OH232593   4.174   6.520   5.214  0.0370 -0.4578  0.5074
 3701TIP3    H132594   4.192   6.569   5.295  1.5260 -0.0733 -0.0330
 3701TIP3    H232595   4.137   6.585   5.155  3.0656  0.4421 -0.6103
 3702TIP3   OH232596   0.377   1.586  15.330  0.0264  0.6166 -0.0407
 3702TIP3    H132597   0.422   1.502  15.334 -1.0393  0.0329 -0.0386
 3702TIP3    H232598   0.394   1.626  15.415 -0.5848 -0.1953  0.4704
 3703TIP3   OH232599   4.418   5.236   1.306  0.0395 -0.4078  0.0573
 3703TIP3    H132600   4.479   5.290   1.355  1.1382  0.0913 -1.7445
 3703TIP3    H232601   4.470   5.200   1.234 -1.9949  1.2187 -2.4503
 3704TIP3   OH232602   2.260   0.983   6.315  0.0501  0.1759  0.2137
 3704TIP3    H132603   2.171   0.973   6.347 -0.8262  2.2433 -1.3779
 3704TIP3    H232604   2.308   1.024   6.387 -0.0593 -1.4753  1.2894
 3705TIP3   OH232605   2.105   2.498  12.569  0.3883 -0.2014 -0.5433
 3705TIP3    H132606   2.194   2.487  12.537  0.1865 -0.3368 -1.0653
 3705TIP3    H232607   2.050   2.485  12.492 -0.0554  0.5141 -0.3523
 3706TIP3   OH232608   0.152   6.660  14.998 -0.5391  0.0707 -0.4979
 3706TIP3    H132609   0.225   6.607  15.032  0.3600  1.2073 -0.6140
 3706TIP3    H232610   0.162   6.656  14.903  0.0959  1.2099 -0.4864
 3707TIP3   OH232611   1.104   3.849   2.992  0.0698  0.3408  0.7589
 3707TIP3    H132612   1.061   3.874   2.910 -0.4344 -0.3181  0.8087
 3707TIP3    H232613   1.197   3.867   2.977 -0.0317  0.3392  0.0778
 3708TIP3   OH232614   2.152   6.446  10.829  0.6097  0.9849 -0.0650
 3708TIP3    H132615   2.097   6.368  10.825 -0.1544  1.2207  3.1549
 3708TIP3    H232616   2.240   6.412  10.842  0.2770  0.5900  1.3565
 3709TIP3   OH232617   0.143   1.118   3.392 -0.0498  0.4005 -0.2165
 3709TIP3    H132618   0.119   1.114   3.299  0.2690  1.0856 -0.3338
 3709TIP3    H232619   0.060   1.124   3.438 -0.3774 -2.5597 -0.2718
 3710TIP3   OH232620   3.041   2.641  11.418  0.5185  0.1263  0.6074
 3710TIP3    H132621   2.982   2.672  11.487  1.5941  0.5168  1.3674
 3710TIP3    H232622   2.991   2.654  11.337  0.0358  1.6262  1.1119
 3711TIP3   OH232623   6.267   4.942  12.658 -0.2055  0.4213 -0.5493
 3711TIP3    H132624   6.302   4.856  12.677  0.6850  0.7929 -0.4670
 3711TIP3    H232625   6.233   4.974  12.742  0.6828  0.6923 -0.2869
 3712TIP3   OH232626   3.090   0.723  17.127  0.6409  0.1543 -0.1847
 3712TIP3    H132627   3.143   0.744  17.050 -1.3961 -1.1560 -2.0486
 3712TIP3    H232628   3.020   0.788  17.127  0.2998 -0.2082  0.2549
 3713TIP3   OH232629   0.498   0.300  11.798  0.7486  0.3276 -0.1194
 3713TIP3    H132630   0.435   0.372  11.805 -0.6032 -0.6256 -1.8015
 3713TIP3    H232631   0.459   0.229  11.851  2.4220  0.9677  2.1344
 3714TIP3   OH232632   1.299   0.220   4.277  0.3493  0.0136  0.4806
 3714TIP3    H132633   1.304   0.241   4.184  2.4438  0.3010  0.6015
 3714TIP3    H232634   1.390   0.221   4.307 -0.3332  1.0514  2.7951
 3715TIP3   OH232635   4.219   2.349   0.669  0.3827 -0.5510  0.2589
 3715TIP3    H132636   4.310   2.322   0.655  0.7415 -0.4801  2.1534
 3715TIP3    H232637   4.200   2.319   0.758 -1.7355 -1.3129 -0.4045
 3716TIP3   OH232638   4.121   6.045   5.538  0.1972  0.1341  0.4940
 3716TIP3    H132639   4.156   6.112   5.478  0.6953 -0.8727 -0.3756
 3716TIP3    H232640   4.190   6.033   5.603  0.7487 -0.5987 -0.2147
 3717TIP3   OH232641   3.211   4.263   0.875  0.1890  0.1639  0.9423
 3717TIP3    H132642   3.280   4.231   0.934  2.1814  1.8787 -0.3193
 3717TIP3    H232643   3.235   4.354   0.858 -1.5831  0.3614 -0.7505
 3718TIP3   OH232644   4.833   5.012  13.228 -0.5704  0.0403  0.0482
 3718TIP3    H132645   4.923   5.029  13.258 -1.1430  0.0917  1.8372
 3718TIP3    H232646   4.799   4.949  13.291 -0.9231 -2.1962 -2.2091
 3719TIP3   OH232647   2.105   4.891   2.362  0.1681  0.5349 -0.2643
 3719TIP3    H132648   2.056   4.969   2.387 -1.8265 -0.3237 -1.2326
 3719TIP3    H232649   2.113   4.841   2.444 -1.7066  0.1413 -0.2703
 3720TIP3   OH232650   1.676   2.692  15.795  0.3592 -0.1281  0.1306
 3720TIP3    H132651   1.664   2.744  15.874  0.3535  0.2485 -0.1174
 3720TIP3    H232652   1.592   2.649  15.781  0.0578  0.5579 -0.2062
 3721TIP3   OH232653   5.997   6.220   2.147  0.6242 -0.1045 -0.1407
 3721TIP3    H132654   6.085   6.203   2.179  1.0666 -0.9298 -1.7039
 3721TIP3    H232655   5.958   6.133   2.138 -0.2942  0.2410  0.3377
 3722TIP3   OH232656   0.608   0.579   2.339 -0.2049 -0.4981  0.1973
 3722TIP3    H132657   0.686   0.525   2.345  0.6273  0.7194  0.8161
 3722TIP3    H232658   0.631   0.659   2.386 -2.2906 -0.6448  1.6241
 3723TIP3   OH232659   5.482   3.844  15.591  0.5242  0.0323  0.8782
 3723TIP3    H132660   5.492   3.772  15.653  0.6598 -1.2247 -0.5456
 3723TIP3    H232661   5.571   3.859  15.558  0.4879  0.8351  1.1352
 3724TIP3   OH232662   5.822   0.608   4.308  0.0325 -0.5781  0.7183
 3724TIP3    H132663   5.896   0.644   4.358  0.6086 -1.0297  0.2109
 3724TIP3    H232664   5.751   0.670   4.322  0.8267  0.4362  0.3598
 3725TIP3   OH232665   2.791   2.086  16.387 -0.1489  0.2099  0.0248
 3725TIP3    H132666   2.818   2.078  16.295  1.7892 -0.6016  0.6178
 3725TIP3    H232667   2.802   2.179  16.407  0.8583  0.1343 -0.1556
 3726TIP3   OH232668   1.427   4.565  14.053 -0.3759 -0.1072  0.3812
 3726TIP3    H132669   1.473   4.630  14.107  1.0084 -0.0429 -0.8136
 3726TIP3    H232670   1.365   4.618  14.001 -1.1533 -0.0802  1.3127
 3727TIP3   OH232671   1.580   0.722  12.013 -0.0735 -0.0127  0.2152
 3727TIP3    H132672   1.597   0.734  11.919 -0.9249  1.0929  0.1846
 3727TIP3    H232673   1.662   0.686  12.047  0.1926 -0.6019 -0.9755
 3728TIP3   OH232674   1.642   3.152   4.505 -0.1107 -0.6103  0.2729
 3728TIP3    H132675   1.726   3.139   4.548 -0.1684 -1.7154  0.0711
 3728TIP3    H232676   1.623   3.245   4.519  1.9448  0.1047 -1.1357
 3729TIP3   OH232677   0.173   4.324   2.592 -0.3165 -0.2574  0.0891
 3729TIP3    H132678   0.141   4.275   2.516 -2.6332  0.4450  0.5291
 3729TIP3    H232679   0.187   4.258   2.659 -3.9329 -0.4663  0.8554
 3730TIP3   OH232680   0.514   3.959   5.043 -0.6754 -0.6344  0.2293
 3730TIP3    H132681   0.460   3.912   4.979 -0.2818 -0.1106 -0.4957
 3730TIP3    H232682   0.548   3.891   5.101 -1.9945 -0.9954  0.6162
 3731TIP3   OH232683   2.439   4.410  11.423 -0.7376 -0.0656  0.2359
 3731TIP3    H132684   2.498   4.430  11.350  0.8458 -2.1476  0.8268
 3731TIP3    H232685   2.414   4.495  11.458  1.4941  0.9356 -0.4352
 3732TIP3   OH232686   1.933   6.133  13.393  0.5942 -0.0383 -0.1836
 3732TIP3    H132687   1.993   6.180  13.336  0.1478  0.5646 -0.1619
 3732TIP3    H232688   1.895   6.200  13.450 -0.9655 -0.2125 -0.9542
 3733TIP3   OH232689   4.387   4.816  12.801  0.4312 -0.1897 -0.5847
 3733TIP3    H132690   4.424   4.901  12.778  0.1099  0.6556  1.6919
 3733TIP3    H232691   4.312   4.805  12.744 -1.2813  2.4819  0.9235
 3734TIP3   OH232692   2.855   1.653   0.700 -0.0157  0.7778  0.1631
 3734TIP3    H132693   2.776   1.661   0.646 -0.7163 -1.3595  0.7975
 3734TIP3    H232694   2.895   1.740   0.696 -0.4977  0.9665 -3.0434
 3735TIP3   OH232695   3.512   6.214  11.298  0.3763  0.7179  0.0059
 3735TIP3    H132696   3.549   6.139  11.251  0.9159  0.5894  0.6226
 3735TIP3    H232697   3.484   6.178  11.382  0.6558  1.2057  0.3137
 3736TIP3   OH232698   4.934   6.795   1.912 -0.8797 -0.3202 -0.4169
 3736TIP3    H132699   4.974   6.772   1.996 -0.4412 -0.9838 -0.7947
 3736TIP3    H232700   4.993   6.859   1.874 -0.1287 -1.3187 -0.9859
 3737TIP3   OH232701   3.553   5.917   1.796  0.0870  0.0319  0.2039
 3737TIP3    H132702   3.477   5.949   1.844 -0.2282 -0.2270 -0.1150
 3737TIP3    H232703   3.532   5.935   1.704  0.6275  0.4109  0.1504
 3738TIP3   OH232704   2.093   3.832   0.692  0.5904  0.6717 -0.3742
 3738TIP3    H132705   2.087   3.737   0.692  1.2961  0.6096  0.6363
 3738TIP3    H232706   2.002   3.862   0.690  0.3627 -0.0199 -0.5979
 3739TIP3   OH232707   6.352   3.835  15.164 -0.0879 -0.0003 -0.5056
 3739TIP3    H132708   6.411   3.879  15.224  0.6225 -1.1277 -0.3589
 3739TIP3    H232709   6.402   3.762  15.129 -1.6832 -1.5883  0.3585
 3740TIP3   OH232710   5.084   5.527   1.609  0.4954 -0.0388  0.2081
 3740TIP3    H132711   5.156   5.489   1.558 -0.8622 -1.1199 -0.9843
 3740TIP3    H232712   5.029   5.571   1.545  0.2678  1.1063  1.1587
 3741TIP3   OH232713   3.868   5.440   0.286 -0.3897 -0.1244 -0.8551
 3741TIP3    H132714   3.878   5.366   0.226  1.4379 -0.6834  0.0893
 3741TIP3    H232715   3.845   5.401   0.370  1.3551  0.2846 -0.1552
 3742TIP3   OH232716   5.261   1.124  11.120 -0.6780  0.0119 -0.7520
 3742TIP3    H132717   5.292   1.105  11.208 -0.8156  3.0026  0.0389
 3742TIP3    H232718   5.175   1.081  11.115 -0.7977  0.0356  0.6601
 3743TIP3   OH232719   5.193   4.873   2.375 -0.6302  0.3755 -0.0110
 3743TIP3    H132720   5.119   4.929   2.351  0.6274  2.9332  1.5431
 3743TIP3    H232721   5.202   4.885   2.470  0.2826 -1.8221  0.2441
 3744TIP3   OH232722   1.554   6.478  10.808 -0.2777 -0.2056 -0.1576
 3744TIP3    H132723   1.599   6.560  10.829  0.3609 -0.3512 -0.9367
 3744TIP3    H232724   1.593   6.449  10.726 -0.8869 -1.0122 -0.1753
 3745TIP3   OH232725   0.457   4.183  15.747  0.0229 -0.0129 -0.2325
 3745TIP3    H132726   0.451   4.095  15.710  1.0594 -0.1422 -0.1323
 3745TIP3    H232727   0.371   4.221  15.733 -0.2588 -0.8357 -0.8104
 3746TIP3   OH232728   0.431   4.465   1.461 -0.0950  0.1923  0.4601
 3746TIP3    H132729   0.418   4.543   1.515 -0.1323  0.1435  0.5217
 3746TIP3    H232730   0.402   4.491   1.374  1.3315  0.7283  0.1229
 3747TIP3   OH232731   1.420   3.378  12.210  0.5975  0.0649 -0.2994
 3747TIP3    H132732   1.402   3.310  12.275  0.7055  0.6014  0.3023
 3747TIP3    H232733   1.478   3.336  12.147  1.5398 -0.1060  0.6469
 3748TIP3   OH232734   3.086   5.775   5.049  0.2782 -0.0461 -0.8578
 3748TIP3    H132735   3.140   5.744   4.976 -0.4552  0.0436 -1.4500
 3748TIP3    H232736   3.083   5.870   5.038  0.1128 -0.0389 -0.7542
 3749TIP3   OH232737   1.068   5.010   5.308 -0.2265 -0.0034  0.3076
 3749TIP3    H132738   1.072   4.918   5.282  1.8634 -1.0448  3.7108
 3749TIP3    H232739   0.979   5.020   5.344 -0.0293 -1.1074  1.1520
 3750TIP3   OH232740   4.214   2.336   6.167  0.4525 -0.3673  0.2510
 3750TIP3    H132741   4.267   2.410   6.139  2.3269 -1.2505  1.3166
 3750TIP3    H232742   4.229   2.328   6.261 -0.1265 -1.7483  0.2613
 3751TIP3   OH232743   3.587   0.583   3.448 -0.1948 -0.3484 -0.1731
 3751TIP3    H132744   3.597   0.488   3.443 -0.3472 -0.3150 -2.1809
 3751TIP3    H232745   3.568   0.609   3.358  0.4149  1.6514  0.2260
 3752TIP3   OH232746   2.540   5.126   1.796  0.0564  0.0309  0.0986
 3752TIP3    H132747   2.552   5.033   1.816 -0.2656  0.1662  0.9577
 3752TIP3    H232748   2.524   5.167   1.881 -0.7905  0.7253 -0.3847
 3753TIP3   OH232749   5.411   1.465  12.600  0.2090 -0.2165  0.5055
 3753TIP3    H132750   5.450   1.433  12.519 -0.2952  0.7469 -0.1348
 3753TIP3    H232751   5.414   1.561  12.592  1.3280 -0.0654  2.1927
 3754TIP3   OH232752   3.836   2.054   0.563  0.3291  0.3209  0.9890
 3754TIP3    H132753   3.827   1.989   0.634 -4.8952 -0.5456 -0.0362
 3754TIP3    H232754   3.803   2.135   0.601 -0.9793  0.2378  0.0954
 3755TIP3   OH232755   0.272   1.318   2.046 -0.0327 -0.4644  0.4823
 3755TIP3    H132756   0.198   1.295   1.990  0.8817 -0.7555 -0.6707
 3755TIP3    H232757   0.317   1.235   2.062  0.1331 -0.2744  1.0425
 3756TIP3   OH232758   5.667   4.623   2.810 -0.0294 -0.3226 -0.2199
 3756TIP3    H132759   5.702   4.606   2.722 -1.2001 -0.7563 -0.6309
 3756TIP3    H232760   5.697   4.550   2.863  0.1474 -0.4007 -0.4265
 3757TIP3   OH232761   0.971   4.275  12.533 -0.1273 -0.2171 -0.1450
 3757TIP3    H132762   0.880   4.267  12.504 -0.2326 -1.1778  0.3734
 3757TIP3    H232763   0.966   4.260  12.628  0.5473 -0.0416 -0.0801
 3758TIP3   OH232764   1.452   4.287   1.824  0.3221 -0.7441 -0.5469
 3758TIP3    H132765   1.390   4.303   1.895  0.9353  1.4897 -0.4541
 3758TIP3    H232766   1.406   4.226   1.766 -1.0140 -0.9689  0.6920
 3759TIP3   OH232767   5.956   4.730   2.632 -0.1444  0.2367 -0.5220
 3759TIP3    H132768   6.025   4.722   2.698 -0.4261  1.9895  0.0399
 3759TIP3    H232769   5.930   4.640   2.613  1.3839 -0.3903  0.2190
 3760TIP3   OH232770   3.667   1.601   4.677 -0.0809  0.1323  0.3254
 3760TIP3    H132771   3.707   1.592   4.591 -0.1423  1.7031  0.1076
 3760TIP3    H232772   3.672   1.513   4.716 -0.7198 -0.7828 -1.5519
 3761TIP3   OH232773   5.469   2.567  11.317  0.0731  0.3757 -0.1405
 3761TIP3    H132774   5.398   2.553  11.253  0.1649  1.0733 -0.4049
 3761TIP3    H232775   5.546   2.528  11.276 -0.1103 -0.2056  0.0573
 3762TIP3   OH232776   2.258   3.095  13.858  0.3761  0.1454  0.0628
 3762TIP3    H132777   2.193   3.154  13.895 -2.1695 -1.8384 -0.9320
 3762TIP3    H232778   2.280   3.036  13.929 -0.2743 -0.2565 -0.0646
 3763TIP3   OH232779   2.538   1.813  15.185 -0.1774 -0.4270 -0.1302
 3763TIP3    H132780   2.523   1.743  15.248  0.5998 -0.0436  0.4950
 3763TIP3    H232781   2.496   1.782  15.105 -2.2229 -0.4213  0.8660
 3764TIP3   OH232782   6.509   1.334  11.973  0.0177 -0.3255 -0.4423
 3764TIP3    H132783   6.599   1.316  11.948  0.3964 -2.1794  1.9213
 3764TIP3    H232784   6.464   1.250  11.962 -1.5559  0.6208 -1.8333
 3765TIP3   OH232785   5.622   6.666   3.376 -0.7903  0.7992  0.3396
 3765TIP3    H132786   5.589   6.581   3.345  0.8721 -0.0693  0.7991
 3765TIP3    H232787   5.656   6.709   3.297 -1.3744  0.9209  0.1508
 3766TIP3   OH232788   0.889   3.484  15.421 -0.6668  0.1447  0.3170
 3766TIP3    H132789   0.963   3.545  15.421 -0.6976  0.1781 -0.0260
 3766TIP3    H232790   0.897   3.439  15.506  2.4914 -3.1185 -1.3990
 3767TIP3   OH232791   5.066   3.090  16.821 -0.2810  0.4846  0.2118
 3767TIP3    H132792   5.026   3.108  16.735 -0.6685 -0.0167  0.2776
 3767TIP3    H232793   5.008   3.024  16.860 -0.7191  1.4974  1.3211
 3768TIP3   OH232794   2.069   3.032   6.446 -0.3110  0.2261  0.2661
 3768TIP3    H132795   2.097   3.065   6.360  0.9356  0.0398  0.5902
 3768TIP3    H232796   2.018   3.103   6.484 -0.7339  0.3756 -0.5443
 3769TIP3   OH232797   4.973   6.641   4.694  0.0303  0.2725  0.2836
 3769TIP3    H132798   4.989   6.546   4.694 -1.9748 -0.1153 -0.7491
 3769TIP3    H232799   4.981   6.666   4.786  1.0353 -0.7966  0.5138
 3770TIP3   OH232800   3.576   3.704   0.564  0.3728  0.3365  0.3147
 3770TIP3    H132801   3.529   3.626   0.594 -1.9899  1.4696 -0.1846
 3770TIP3    H232802   3.607   3.680   0.476  2.5598 -1.0992  1.3923
 3771TIP3   OH232803   2.135   2.718  17.101 -0.6407  0.3495  0.5807
 3771TIP3    H132804   2.193   2.785  17.063 -0.9392 -0.0292 -0.5553
 3771TIP3    H232805   2.169   2.635  17.068 -0.6054 -0.0443  1.5541
 3772TIP3   OH232806   5.721   0.007   3.141  0.2111  0.5107  0.2361
 3772TIP3    H132807   5.797  -0.041   3.108  0.3588  0.3131  0.8504
 3772TIP3    H232808   5.740   0.099   3.119  0.6514  0.4684  0.4189
 3773TIP3   OH232809   0.589   1.889   4.589  0.4149  0.1041 -0.2667
 3773TIP3    H132810   0.674   1.904   4.547  0.7954 -3.0144 -0.8537
 3773TIP3    H232811   0.580   1.794   4.592 -2.9098  0.3091  0.1494
 3774TIP3   OH232812   6.631   2.651  16.169  0.8663 -0.1505  0.1350
 3774TIP3    H132813   6.649   2.745  16.165  1.6193  0.0013  3.7737
 3774TIP3    H232814   6.699   2.611  16.115  2.0699  1.3014  0.5167
 3775TIP3   OH232815   3.891   1.277   2.966 -0.7352 -0.1757  0.4014
 3775TIP3    H132816   3.937   1.218   3.025 -0.6675 -1.3343 -0.7555
 3775TIP3    H232817   3.847   1.340   3.023 -0.7421 -1.3098  1.6793
 3776TIP3   OH232818   4.107   3.096   4.672  0.3581 -0.2874 -0.3996
 3776TIP3    H132819   4.037   3.048   4.716 -0.7772  1.8139  0.2587
 3776TIP3    H232820   4.064   3.174   4.637  1.8831 -0.2608 -2.4241
 3777TIP3   OH232821   6.599   6.257  17.333  0.3425 -0.7090 -1.3605
 3777TIP3    H132822   6.519   6.296  17.297 -0.8418 -1.3171  0.4716
 3777TIP3    H232823   6.658   6.332  17.345 -1.3447  0.4091  0.6832
 3778TIP3   OH232824   1.852   4.899  12.084  0.2485  0.1616 -0.3980
 3778TIP3    H132825   1.912   4.974  12.096  0.5245  0.2223 -2.0022
 3778TIP3    H232826   1.910   4.824  12.071  0.0626  0.4220 -3.2538
 3779TIP3   OH232827   6.283   3.893   3.723  0.1669  0.4060 -0.0870
 3779TIP3    H132828   6.243   3.969   3.765  0.0934 -0.6754  1.9563
 3779TIP3    H232829   6.298   3.920   3.633 -1.3490  2.2711  0.1502
 3780TIP3   OH232830   1.698   2.719   3.036 -0.7487 -0.2020  0.1846
 3780TIP3    H132831   1.693   2.726   3.132 -0.4116 -1.2042  0.2901
 3780TIP3    H232832   1.709   2.625   3.020 -0.5404 -0.0129 -0.8276
 3781TIP3   OH232833   2.139   1.528   1.254 -0.0282  0.1643 -0.3820
 3781TIP3    H132834   2.044   1.542   1.261 -0.1136 -0.4037 -0.3224
 3781TIP3    H232835   2.159   1.540   1.162 -0.6660 -2.5665 -0.9797
 3782TIP3   OH232836   0.653   0.953  13.224 -0.0419  0.4277 -0.3346
 3782TIP3    H132837   0.718   0.946  13.154 -1.5757  0.4900 -1.8272
 3782TIP3    H232838   0.692   1.014  13.287  1.1811  0.7460 -1.3634
 3783TIP3   OH232839   6.749   5.176   3.534  0.5414  0.2225 -0.2864
 3783TIP3    H132840   6.746   5.099   3.478 -0.3742 -1.1493  1.5658
 3783TIP3    H232841   6.713   5.147   3.618  1.8689  2.1895  1.0493
 3784TIP3   OH232842   3.268   0.763  15.074 -0.1361  0.3431  0.0653
 3784TIP3    H132843   3.322   0.751  15.152  1.1734  1.4363 -0.6139
 3784TIP3    H232844   3.241   0.855  15.077 -2.3702 -0.2764  0.5973
 3785TIP3   OH232845   3.483   4.483   2.564  0.3787  0.3624  0.3955
 3785TIP3    H132846   3.516   4.546   2.500  1.1811 -0.6227 -0.1775
 3785TIP3    H232847   3.398   4.455   2.529  1.2991 -1.0064 -0.8642
 3786TIP3   OH232848   6.051   3.949  16.491  0.3183  0.0048  0.3442
 3786TIP3    H132849   6.003   3.911  16.417  0.9774 -0.2264  0.0310
 3786TIP3    H232850   5.996   3.930  16.567 -0.5926  0.6435 -0.1317
 3787TIP3   OH232851   2.353   6.158   2.957 -1.0420 -0.5700  0.4772
 3787TIP3    H132852   2.440   6.179   2.922 -0.1330 -1.5069  2.0579
 3787TIP3    H232853   2.305   6.240   2.953 -0.1852 -0.1012 -0.6818
 3788TIP3   OH232854   2.563   6.751   5.057 -0.2300  0.4805 -0.5335
 3788TIP3    H132855   2.539   6.732   5.147 -0.9008 -0.2891 -0.8731
 3788TIP3    H232856   2.639   6.809   5.065 -2.2784  3.2167  0.5660
 3789TIP3   OH232857   4.413   0.990  13.287 -0.1969  0.1674 -0.0977
 3789TIP3    H132858   4.319   1.003  13.295 -0.2764  0.0595 -0.8713
 3789TIP3    H232859   4.438   1.036  13.207  0.5342  0.8392  0.4913
 3790TIP3   OH232860   5.971   1.556  11.061 -0.6119 -0.5848 -0.7396
 3790TIP3    H132861   6.026   1.484  11.030  0.7248 -0.4210  1.0784
 3790TIP3    H232862   5.947   1.531  11.150 -2.6652 -0.1419 -1.1158
 3791TIP3   OH232863   6.421   5.192   0.430  0.2871  0.0047  0.4798
 3791TIP3    H132864   6.402   5.169   0.339 -1.6209  0.1340  0.7876
 3791TIP3    H232865   6.433   5.287   0.430  3.5451 -0.3068 -0.0786
 3792TIP3   OH232866   5.334   6.362   0.298 -0.6498 -0.0350  0.0012
 3792TIP3    H132867   5.280   6.291   0.264  0.6379 -1.8409  1.5241
 3792TIP3    H232868   5.273   6.436   0.309 -2.5379 -1.5958  0.5182
 3793TIP3   OH232869   6.600   1.795  12.705 -0.4450 -0.1579  0.4145
 3793TIP3    H132870   6.593   1.755  12.792  0.2924  0.4636  0.7703
 3793TIP3    H232871   6.530   1.754  12.654  0.3296 -1.9947  0.7328
 3794TIP3   OH232872   2.414   2.994  11.345  0.3250 -0.2356 -0.0293
 3794TIP3    H132873   2.362   3.061  11.389  1.8947  1.8246 -1.1531
 3794TIP3    H232874   2.406   2.917  11.401 -0.0164  1.4221  2.3379
 3795TIP3   OH232875   6.600   2.256  14.096  0.0948  0.4932 -0.0316
 3795TIP3    H132876   6.523   2.253  14.153  0.9811  0.2916  1.1868
 3795TIP3    H232877   6.571   2.306  14.020 -1.4043 -0.0514  0.1488
 3796TIP3   OH232878   2.025   3.509  15.070  0.7040  0.0890 -0.3025
 3796TIP3    H132879   1.945   3.477  15.112  0.0828 -2.0187 -2.8408
 3796TIP3    H232880   2.000   3.593  15.031  0.7987  1.1792  1.8255
 3797TIP3   OH232881   4.804   6.487   1.925  0.0790  0.1468  0.2389
 3797TIP3    H132882   4.782   6.396   1.906 -1.0513 -0.0157  2.0808
 3797TIP3    H232883   4.881   6.505   1.871 -0.9955 -1.1786 -1.8994
 3798TIP3   OH232884   2.443   4.430   3.861 -0.1377 -0.7931  0.0754
 3798TIP3    H132885   2.501   4.358   3.835  0.4513 -0.9501  1.7324
 3798TIP3    H232886   2.357   4.389   3.870 -0.4770 -0.6440 -1.9748
 3799TIP3   OH232887   3.300   4.943  14.066  0.0385 -0.1342 -0.4397
 3799TIP3    H132888   3.340   4.875  14.011  0.7667 -1.1231  1.2361
 3799TIP3    H232889   3.373   5.003  14.085 -0.8187  1.8164 -2.7827
 3800TIP3   OH232890   3.563   2.967  16.177  0.2514 -0.0573 -0.2930
 3800TIP3    H132891   3.579   3.061  16.183  2.7092 -0.2788 -2.0338
 3800TIP3    H232892   3.600   2.931  16.258  1.2973  0.2740 -0.6139
 3801TIP3   OH232893   4.205   6.286  10.837  0.3589  0.1790  0.1492
 3801TIP3    H132894   4.166   6.374  10.840 -2.5784 -0.9919 -0.2222
 3801TIP3    H232895   4.223   6.265  10.928 -1.0011  0.3504  0.4791
 3802TIP3   OH232896   5.647   5.678   6.963  0.3206  0.3697 -0.3426
 3802TIP3    H132897   5.650   5.605   7.026  2.4271 -0.7215 -1.6113
 3802TIP3    H232898   5.616   5.637   6.882 -2.2629  1.7434 -0.1721
 3803TIP3   OH232899   4.589   2.244   5.411 -0.0645 -0.2571  0.5269
 3803TIP3    H132900   4.571   2.297   5.488 -1.2635  0.2642 -0.0716
 3803TIP3    H232901   4.682   2.224   5.416 -0.1152 -0.2361  2.0934
 3804TIP3   OH232902   5.064   3.717  13.014 -0.5396  0.2775 -0.2689
 3804TIP3    H132903   5.148   3.750  13.045 -0.3248  0.2941 -0.8611
 3804TIP3    H232904   5.004   3.732  13.087  0.1957 -0.7213  0.5607
 3805TIP3   OH232905   5.051   3.324   5.613  0.2950  0.1646  0.0303
 3805TIP3    H132906   5.113   3.312   5.685 -0.5365  1.4368  1.0054
 3805TIP3    H232907   5.001   3.242   5.611  0.8703 -0.2015  0.3419
 3806TIP3   OH232908   3.402   0.733   3.246 -0.2682 -0.2178 -0.4621
 3806TIP3    H132909   3.399   0.717   3.152 -0.7944 -0.4354 -0.4116
 3806TIP3    H232910   3.394   0.828   3.255  1.2803 -0.0340 -0.6961
 3807TIP3   OH232911   5.432   4.896   2.867  0.3990 -0.8969 -0.3368
 3807TIP3    H132912   5.436   4.814   2.916 -0.2722 -0.5119  0.3748
 3807TIP3    H232913   5.523   4.914   2.843  0.5500 -1.8550 -0.5319
 3808TIP3   OH232914   5.488   0.727  13.036  0.3923 -0.1545  0.1378
 3808TIP3    H132915   5.442   0.780  13.101 -1.6000  0.3684 -1.5571
 3808TIP3    H232916   5.470   0.637  13.061  2.2307 -0.0750  1.9802
 3809TIP3   OH232917   3.884   4.604   3.667  0.3379  0.2631  0.0305
 3809TIP3    H132918   3.817   4.618   3.734 -1.1424  1.6147 -1.6455
 3809TIP3    H232919   3.858   4.523   3.623  0.2874  0.3285 -0.0608
 3810TIP3   OH232920   0.749   1.853  17.284  0.4489  0.1168 -0.3714
 3810TIP3    H132921   0.665   1.810  17.266  0.3706  0.8974 -2.0363
 3810TIP3    H232922   0.798   1.789  17.336 -0.8110 -0.7252 -0.1626
 3811TIP3   OH232923   3.319   4.473   1.376 -0.2700 -0.4958  0.5305
 3811TIP3    H132924   3.324   4.381   1.405 -0.0598 -0.4904  0.5151
 3811TIP3    H232925   3.397   4.485   1.322 -2.1970 -1.4144 -2.7101
 3812TIP3   OH232926   6.500   3.904   3.914 -0.0556 -0.0000 -0.1091
 3812TIP3    H132927   6.438   3.882   3.844 -0.5016 -1.8692  0.8131
 3812TIP3    H232928   6.449   3.955   3.977 -0.1503  0.0342 -0.2134
 3813TIP3   OH232929   3.862   3.288  16.164 -0.0143  0.0555  0.4327
 3813TIP3    H132930   3.921   3.319  16.094  0.6612 -0.1613  0.8960
 3813TIP3    H232931   3.825   3.369  16.201  1.5596  0.3453  1.4758
 3814TIP3   OH232932   0.961   2.747  11.431 -0.3758  0.0993 -0.7224
 3814TIP3    H132933   1.027   2.813  11.450  0.3414 -0.5046 -1.0765
 3814TIP3    H232934   0.959   2.740  11.336  1.0440 -1.8245 -0.6736
 3815TIP3   OH232935   5.360   1.419  15.054 -0.1229 -0.0091  0.3525
 3815TIP3    H132936   5.328   1.336  15.019 -2.4293  0.5976  0.9011
 3815TIP3    H232937   5.408   1.458  14.981 -0.5868 -0.9917 -0.5121
 3816TIP3   OH232938   0.904   5.400   3.527  0.5018 -0.5591 -0.0240
 3816TIP3    H132939   0.835   5.340   3.554 -2.1941  2.2060 -0.3042
 3816TIP3    H232940   0.890   5.479   3.580  1.8632  1.0163 -1.8590
 3817TIP3   OH232941   0.256   5.374   2.232 -0.1339  0.1600  0.1973
 3817TIP3    H132942   0.238   5.424   2.152 -0.8452  0.8219  0.7558
 3817TIP3    H232943   0.192   5.303   2.231  0.1924 -0.1362 -0.0683
 3818TIP3   OH232944   6.023   3.673   1.806  0.0972 -0.7844  0.9736
 3818TIP3    H132945   6.072   3.719   1.875 -0.7503  0.2465  0.9166
 3818TIP3    H232946   6.088   3.653   1.739  0.2411  2.0334  0.1268
 3819TIP3   OH232947   4.425   4.147  14.264  0.2703  0.5017  0.1701
 3819TIP3    H132948   4.424   4.241  14.250 -0.7450  0.2545 -1.6587
 3819TIP3    H232949   4.452   4.110  14.180 -1.6516 -0.9215  0.0998
 3820TIP3   OH232950   3.649   0.518   0.211  0.0123  0.1983 -0.1418
 3820TIP3    H132951   3.677   0.426   0.211 -1.5053 -0.3027 -1.0681
 3820TIP3    H232952   3.705   0.560   0.146 -0.3887 -0.4511 -0.9209
 3821TIP3   OH232953   4.461   5.096   6.258  0.3557 -0.3478  0.2334
 3821TIP3    H132954   4.409   5.067   6.333  0.3283 -1.4693 -0.1929
 3821TIP3    H232955   4.544   5.125   6.296 -0.1797  0.4884  0.8202
 3822TIP3   OH232956   4.228   2.639  16.560  0.1804 -0.1758  0.3945
 3822TIP3    H132957   4.281   2.571  16.600  0.2751 -0.2519  0.1444
 3822TIP3    H232958   4.176   2.594  16.494  0.9163  0.1244 -0.4152
 3823TIP3   OH232959   3.024   0.580   5.837 -0.7675 -0.4830  0.1986
 3823TIP3    H132960   2.939   0.604   5.801  0.1349  0.9935 -1.0539
 3823TIP3    H232961   3.003   0.522   5.910 -2.9602  1.7385  1.4719
 3824TIP3   OH232962   4.801   0.213   4.511  0.0734 -0.2257  0.0242
 3824TIP3    H132963   4.742   0.256   4.573  1.3193  0.6059  0.6797
 3824TIP3    H232964   4.859   0.283   4.480  0.7590 -1.0191 -0.5504
 3825TIP3   OH232965   1.205   3.033   5.465 -0.1068 -0.4676 -0.4536
 3825TIP3    H132966   1.229   2.963   5.525  0.3179 -1.1283 -1.3707
 3825TIP3    H232967   1.118   3.009   5.433 -1.7085  1.4420  2.1514
 3826TIP3   OH232968   6.623   1.871  14.272 -0.2835  0.2328  0.1751
 3826TIP3    H132969   6.686   1.810  14.311  0.9036  0.9283 -0.5708
 3826TIP3    H232970   6.653   1.881  14.181 -1.9216  0.0236 -0.4072
 3827TIP3   OH232971   3.444   4.401  11.823  0.3159  0.3222 -0.2560
 3827TIP3    H132972   3.377   4.410  11.755  0.3511  4.0845  0.0140
 3827TIP3    H232973   3.527   4.408  11.775  0.5942 -2.5448 -0.3653
 3828TIP3   OH232974   1.343   4.582  14.829  0.2279  0.3008  0.4577
 3828TIP3    H132975   1.419   4.540  14.789  0.1605 -0.9866  1.6078
 3828TIP3    H232976   1.285   4.603  14.756  1.3313  0.5515 -0.3544
 3829TIP3   OH232977   6.556   4.090   1.952 -0.1152 -0.5774  0.1116
 3829TIP3    H132978   6.580   4.000   1.972 -1.1576 -0.8141  0.3482
 3829TIP3    H232979   6.630   4.142   1.981  0.3229 -1.3194  0.3432
 3830TIP3   OH232980   0.549   4.088   3.075  0.5171 -0.5389  0.6574
 3830TIP3    H132981   0.588   4.023   3.016  0.2334 -0.7278  0.6746
 3830TIP3    H232982   0.618   4.107   3.139  0.0385 -2.1760  1.7386
 3831TIP3   OH232983   5.546   5.882  14.450  0.2872  0.2288 -0.0451
 3831TIP3    H132984   5.558   5.798  14.407 -1.0561  0.7699 -1.5837
 3831TIP3    H232985   5.634   5.912  14.472  1.0474 -0.0707 -2.4934
 3832TIP3   OH232986   5.523   0.103  14.397  0.6772  0.0883 -0.1433
 3832TIP3    H132987   5.482   0.163  14.334  0.7929  0.0206 -0.2834
 3832TIP3    H232988   5.467   0.107  14.474  1.0792  0.9527  0.1306
 3833TIP3   OH232989   2.433   4.581  15.403 -0.6790 -0.2538 -0.5112
 3833TIP3    H132990   2.475   4.506  15.444 -0.7861 -0.9248 -1.6147
 3833TIP3    H232991   2.448   4.570  15.309 -0.9590  0.9392 -0.7166
 3834TIP3   OH232992   4.303   3.716   4.246  0.3409 -0.1512  0.5201
 3834TIP3    H132993   4.312   3.797   4.196  1.4222 -0.9019 -0.5420
 3834TIP3    H232994   4.215   3.720   4.283 -0.4635  0.4477 -1.3837
 3835TIP3   OH232995   3.125   1.111   1.785  0.3876  0.7653 -0.0792
 3835TIP3    H132996   3.080   1.194   1.772 -0.7705  0.2861  0.7064
 3835TIP3    H232997   3.059   1.053   1.822  1.7920  0.1649  1.6230
 3836TIP3   OH232998   0.026   5.945   3.165 -0.0485  0.2917  0.1077
 3836TIP3    H132999   0.039   5.850   3.173 -0.0298  0.3045  0.2425
 3836TIP3    H233000   0.098   5.983   3.216 -0.2999  0.3720  0.4040
 3837TIP3   OH233001   2.515   3.553  13.493  0.0937 -0.2154 -0.5297
 3837TIP3    H133002   2.518   3.487  13.563 -0.1025 -0.6142 -0.8958
 3837TIP3    H233003   2.598   3.542  13.447 -0.8217 -1.7158 -1.9500
 3838TIP3   OH233004   6.514   0.191   0.546 -0.3112 -0.6612  0.5646
 3838TIP3    H133005   6.444   0.250   0.519 -0.6596 -1.7329 -0.9930
 3838TIP3    H233006   6.569   0.244   0.604 -0.6329  1.1713 -0.7245
 3839TIP3   OH233007   6.541   3.907  13.976 -0.0930  0.2094 -0.4671
 3839TIP3    H133008   6.610   3.973  13.967  1.1324 -1.1230 -1.2455
 3839TIP3    H233009   6.518   3.910  14.069 -0.3928  2.0078 -0.5516
 3840TIP3   OH233010   5.493   1.619  13.383  0.2306  0.4050 -0.1060
 3840TIP3    H133011   5.455   1.587  13.301  1.1599  0.9965 -0.8069
 3840TIP3    H233012   5.585   1.591  13.378  0.6693  1.7167  0.0057
 3841TIP3   OH233013   5.129   4.955  13.154 -0.2785 -0.3107 -0.2121
 3841TIP3    H133014   5.200   4.992  13.206 -0.4955  1.5606 -1.1881
 3841TIP3    H233015   5.171   4.926  13.073 -0.2391 -1.5420  0.2319
 3842TIP3   OH233016   6.459   2.363  11.449  0.2737  0.1895  0.1008
 3842TIP3    H133017   6.499   2.450  11.446 -0.1747  0.3901 -0.2087
 3842TIP3    H233018   6.425   2.356  11.539  1.1524 -0.0568  0.4215
 3843TIP3   OH233019   0.244   0.149   5.263 -0.3617 -0.5083  0.3857
 3843TIP3    H133020   0.253   0.104   5.347 -0.8853 -2.4647 -0.5525
 3843TIP3    H233021   0.161   0.119   5.228 -0.4725  0.7981 -0.5698
 3844TIP3   OH233022   6.080   3.831  15.574 -0.3960  0.4292  0.1859
 3844TIP3    H133023   6.153   3.775  15.548 -1.3262 -0.4853 -0.5615
 3844TIP3    H233024   6.089   3.910  15.521 -0.4781 -0.0924 -0.6231
 3845TIP3   OH233025   4.708   4.312  12.179  0.6542 -0.6104  0.2236
 3845TIP3    H133026   4.765   4.314  12.256  0.5360  0.2230  0.2938
 3845TIP3    H233027   4.709   4.220  12.151  1.3899 -0.7527  0.6977
 3846TIP3   OH233028   0.278   1.456   2.650 -0.6255 -0.1721 -0.0798
 3846TIP3    H133029   0.340   1.426   2.584  2.7091  0.4308  2.4800
 3846TIP3    H233030   0.262   1.379   2.704  0.0237  0.2729  0.7699
 3847TIP3   OH233031   1.079   6.165  12.296  0.3716  0.1520 -0.4665
 3847TIP3    H133032   1.052   6.168  12.204  2.2808 -0.0668 -1.0654
 3847TIP3    H233033   1.151   6.102  12.298  2.2973  2.2484  0.6170
 3848TIP3   OH233034   0.655   2.464   0.926 -0.2428 -0.3525  0.2946
 3848TIP3    H133035   0.731   2.494   0.875  0.0392  0.9666  1.4345
 3848TIP3    H233036   0.659   2.369   0.921  2.0562 -0.3653  1.0758
 3849TIP3   OH233037   6.015   6.758   0.168 -0.4631 -0.2199  0.2539
 3849TIP3    H133038   5.953   6.821   0.130  0.9364  0.3298 -1.2476
 3849TIP3    H233039   5.967   6.675   0.169 -0.7731 -0.1591 -2.3142
 3850TIP3   OH233040   0.091   3.048  11.831 -0.0532  0.7457  0.2392
 3850TIP3    H133041   0.076   3.138  11.803  1.5875  1.3588  1.2159
 3850TIP3    H233042   0.169   3.052  11.886  0.6696 -1.4467 -0.5361
 3851TIP3   OH233043   3.037   5.181  11.906  0.0970 -0.0658 -0.5217
 3851TIP3    H133044   3.092   5.201  11.830  1.1424 -0.6525  0.0478
 3851TIP3    H233045   2.962   5.134  11.870 -0.1844  0.9734 -1.3462
 3852TIP3   OH233046   0.526   5.294  13.455 -0.2351  0.0562 -0.2870
 3852TIP3    H133047   0.442   5.258  13.485  0.3897 -1.8449 -0.7061
 3852TIP3    H233048   0.524   5.283  13.360  0.5041 -0.0523 -0.2948
 3853TIP3   OH233049   4.389   3.691  12.470 -0.0138 -0.1892 -0.2771
 3853TIP3    H133050   4.418   3.661  12.384  1.4918  0.1667  0.0915
 3853TIP3    H233051   4.419   3.782  12.475  0.0588 -0.2574  0.6884
 3854TIP3   OH233052   0.162   5.334   3.226 -0.2168  0.3322  0.5962
 3854TIP3    H133053   0.181   5.413   3.276  0.6912 -0.2924  1.2587
 3854TIP3    H233054   0.248   5.302   3.198 -0.5836 -0.3548  0.2268
 3855TIP3   OH233055   1.621   4.323  14.411 -0.1412 -0.6764  0.0945
 3855TIP3    H133056   1.618   4.229  14.390  1.1552 -0.5589 -0.7444
 3855TIP3    H233057   1.610   4.367  14.327 -0.4704 -0.0705  0.4463
 3856TIP3   OH233058   2.766   5.323   1.641  0.0878 -0.6149  0.5835
 3856TIP3    H133059   2.732   5.255   1.699  1.0895 -0.2867  1.5892
 3856TIP3    H233060   2.764   5.284   1.554 -2.5321 -0.7272  0.6041
 3857TIP3   OH233061   0.095   1.376  15.221  0.0029 -0.2404  1.3399
 3857TIP3    H133062   0.153   1.449  15.200  0.0249 -0.8992 -1.2689
 3857TIP3    H233063   0.007   1.408  15.202  0.1119 -1.2067 -1.0729
 3858TIP3   OH233064   3.564   2.764  14.153  0.3192  0.2883 -0.0583
 3858TIP3    H133065   3.580   2.670  14.146  1.2535  0.5244 -1.4525
 3858TIP3    H233066   3.581   2.785  14.245  0.2448 -0.8719  0.2343
 3859TIP3   OH233067   3.761   4.862  14.264 -0.2693  0.6018 -0.7499
 3859TIP3    H133068   3.844   4.831  14.228 -0.1451 -0.3907  0.3257
 3859TIP3    H233069   3.766   4.842  14.358 -1.8376  0.2198 -0.7109
 3860TIP3   OH233070   1.573   1.419  16.342 -0.6600  0.4018  0.1425
 3860TIP3    H133071   1.557   1.325  16.329  0.3422  0.2771 -0.2413
 3860TIP3    H233072   1.539   1.460  16.263  1.0160  0.1148 -0.7660
 3861TIP3   OH233073   2.214   2.113  15.217 -0.1988  0.6833  0.5933
 3861TIP3    H133074   2.213   2.204  15.248 -0.0274  0.5910  0.8708
 3861TIP3    H233075   2.162   2.115  15.137 -0.9905  0.8532  1.0970
 3862TIP3   OH233076   5.288   4.223   3.256  0.4376  0.3013  0.6926
 3862TIP3    H133077   5.241   4.206   3.175 -1.0739  2.2051  1.1079
 3862TIP3    H233078   5.367   4.271   3.229  0.9678 -0.7935  0.2164
 3863TIP3   OH233079   6.166   4.373  11.398  0.0026  0.0707  0.2966
 3863TIP3    H133080   6.124   4.451  11.362  0.2323  0.1041  0.1059
 3863TIP3    H233081   6.132   4.301  11.344  0.7270  0.1770 -0.3038
 3864TIP3   OH233082   0.931   0.380   3.986  0.8236  0.0986 -0.2882
 3864TIP3    H133083   0.957   0.288   3.990 -0.6798 -0.3300  0.1091
 3864TIP3    H233084   0.867   0.391   4.055  1.1288  1.5198 -0.1820
 3865TIP3   OH233085   1.556   6.516  16.410  0.0462  0.1294 -0.4176
 3865TIP3    H133086   1.547   6.484  16.499 -0.8166 -0.2240 -0.6268
 3865TIP3    H233087   1.493   6.465  16.359 -0.0546  0.8974 -1.0825
 3866TIP3   OH233088   5.022   3.966   1.906 -0.1447 -0.0773  0.1009
 3866TIP3    H133089   5.032   4.055   1.940  0.6018  0.0005 -0.3004
 3866TIP3    H233090   5.037   3.975   1.812  1.2506 -0.8240  0.2373
 3867TIP3   OH233091   2.640   5.672  14.074  0.0371 -0.0943 -0.3958
 3867TIP3    H133092   2.592   5.694  13.994  0.3380  2.1391 -0.0288
 3867TIP3    H233093   2.607   5.585  14.098 -0.9411 -0.3050 -2.2538
 3868TIP3   OH233094   6.407   3.222   0.061 -0.1225 -0.1197  0.2703
 3868TIP3    H133095   6.422   3.307   0.102  0.8081 -0.6666  1.0763
 3868TIP3    H233096   6.480   3.167   0.089 -0.2323 -0.9455 -0.9461
 3869TIP3   OH233097   3.042   5.186  16.519 -0.1532  0.4046 -0.2197
 3869TIP3    H133098   3.121   5.234  16.494  0.3977 -0.5880 -0.4188
 3869TIP3    H233099   2.970   5.245  16.498  0.4048  0.4378 -2.1780
 3870TIP3   OH233100   5.175   5.277  10.755 -0.0354  0.1947 -0.2076
 3870TIP3    H133101   5.106   5.336  10.725 -1.0934 -0.9896 -0.2018
 3870TIP3    H233102   5.137   5.190  10.747  0.3416 -0.3342  2.6825
 3871TIP3   OH233103   5.203   6.314  14.131 -0.0643 -0.4948 -0.3840
 3871TIP3    H133104   5.220   6.251  14.201 -2.6255 -1.2478 -0.3493
 3871TIP3    H233105   5.257   6.284  14.059  3.0435  0.5844  1.3225
 3872TIP3   OH233106   2.914   1.534   5.456  0.1567 -0.5335 -0.1751
 3872TIP3    H133107   2.954   1.610   5.413  0.6892 -1.0777 -0.6535
 3872TIP3    H233108   2.820   1.554   5.457  0.3508  0.4183  0.2923
 3873TIP3   OH233109   0.329   3.552   5.701 -0.2579  0.2078  0.1729
 3873TIP3    H133110   0.276   3.627   5.728 -1.2852  0.8310 -3.1621
 3873TIP3    H233111   0.266   3.479   5.698  0.0629 -0.0829  0.4192
 3874TIP3   OH233112   2.691   3.491  15.089 -0.1088 -0.1093  0.2253
 3874TIP3    H133113   2.633   3.417  15.071 -0.4389  0.4026 -0.8833
 3874TIP3    H233114   2.718   3.479  15.180 -0.9307 -1.0565  0.3546
 3875TIP3   OH233115   5.198   0.144  16.499  0.2464 -0.1439 -0.2735
 3875TIP3    H133116   5.119   0.142  16.553 -0.4880 -0.1250 -1.3184
 3875TIP3    H233117   5.256   0.205  16.544  0.5126 -1.6878  1.6291
 3876TIP3   OH233118   2.603   2.371   0.135  0.1505 -0.2652  0.3190
 3876TIP3    H133119   2.555   2.294   0.103  1.2877 -1.4513  1.3724
 3876TIP3    H233120   2.559   2.445   0.093 -2.8289 -1.2375  1.4730
 3877TIP3   OH233121   3.478   2.814   6.310 -0.0513 -0.7577  0.1664
 3877TIP3    H133122   3.546   2.881   6.318  0.2382 -0.8491 -1.3088
 3877TIP3    H233123   3.398   2.858   6.342  0.1950  0.2047 -0.4850
 3878TIP3   OH233124   2.739   1.074  11.685  1.3162  0.2100  0.0636
 3878TIP3    H133125   2.819   1.126  11.697 -0.5506  2.8105  2.6471
 3878TIP3    H233126   2.682   1.101  11.757 -1.9557 -1.4767 -1.6774
 3879TIP3   OH233127   4.313   6.213   2.544 -0.2575 -0.4876  0.8980
 3879TIP3    H133128   4.363   6.284   2.585  0.0529  0.0302 -0.3490
 3879TIP3    H233129   4.327   6.138   2.602  0.7588  0.0383  1.3669
 3880TIP3   OH233130   5.397   2.197  12.999 -0.1282 -0.0362  0.2013
 3880TIP3    H133131   5.465   2.130  12.992  1.0674  1.1740 -0.1295
 3880TIP3    H233132   5.355   2.197  12.913  0.6324  0.4146 -0.1792
 3881TIP3   OH233133   3.079   5.728  14.109  0.1590 -0.0007  0.1413
 3881TIP3    H133134   3.052   5.818  14.127  1.7916  0.5438  0.0552
 3881TIP3    H233135   3.022   5.674  14.164  0.6913  1.2315  2.0168
 3882TIP3   OH233136   1.712   5.899   0.131  0.0491  0.2195  0.1737
 3882TIP3    H133137   1.678   5.988   0.137  1.2755  0.7565 -0.3653
 3882TIP3    H233138   1.729   5.873   0.221  1.9200  1.4811  0.2455
 3883TIP3   OH233139   2.788   5.435   1.168  0.0100  0.2079  0.2530
 3883TIP3    H133140   2.796   5.451   1.074 -0.5814 -0.4708  0.0790
 3883TIP3    H233141   2.702   5.472   1.191 -0.3544 -0.6365  0.2917
 3884TIP3   OH233142   6.595   2.298  15.169  0.0990 -0.0079  0.3965
 3884TIP3    H133143   6.682   2.270  15.197  0.8451  1.0452 -0.7815
 3884TIP3    H233144   6.593   2.392  15.189 -0.2706  0.2463 -0.7664
 3885TIP3   OH233145   4.900   4.356   0.325 -0.0808  0.0021 -0.2367
 3885TIP3    H133146   4.842   4.370   0.401 -0.3273  2.7353 -0.8233
 3885TIP3    H233147   4.841   4.326   0.256 -0.7058  1.7608 -0.5302
 3886TIP3   OH233148   2.777   3.589  11.450  0.1358  0.4015  0.6153
 3886TIP3    H133149   2.850   3.556  11.503  0.3860  0.9827  0.6453
 3886TIP3    H233150   2.818   3.620  11.369  0.0025  1.2915  0.8818
 3887TIP3   OH233151   0.752   3.671   0.793  0.2428  0.1032 -0.3445
 3887TIP3    H133152   0.667   3.629   0.796  0.3033 -0.0091 -0.2193
 3887TIP3    H233153   0.733   3.765   0.792  0.1155  0.0759 -0.4250
 3888TIP3   OH233154   1.978   3.419   3.317 -0.1673  0.6540 -0.1224
 3888TIP3    H133155   1.931   3.445   3.396 -0.5567  1.2272 -0.5379
 3888TIP3    H233156   1.956   3.326   3.306  0.2584  0.4489  0.6890
 3889TIP3   OH233157   2.610   2.429  14.137 -0.2778 -0.0927  0.6621
 3889TIP3    H133158   2.682   2.392  14.189 -0.1749  1.2393  1.5271
 3889TIP3    H233159   2.653   2.469  14.062 -0.1110  0.5695  1.1000
 3890TIP3   OH233160   5.228   4.113  15.415  0.4252  0.0725  0.1319
 3890TIP3    H133161   5.284   4.175  15.369  0.7245 -0.5738 -0.3868
 3890TIP3    H233162   5.223   4.037  15.357 -0.6181 -0.0628  0.3782
 3891TIP3   OH233163   4.232   5.154   1.882  0.2974  0.2436 -0.2939
 3891TIP3    H133164   4.327   5.157   1.891  0.2196 -0.1582  0.8900
 3891TIP3    H233165   4.215   5.181   1.792  1.5789 -0.4440 -0.7620
 3892TIP3   OH233166   0.055   3.849  13.800 -0.3170 -0.5301  0.2145
 3892TIP3    H133167   0.004   3.929  13.789 -0.4369 -0.6586 -0.1783
 3892TIP3    H233168   0.066   3.815  13.711  1.4042  0.0796  0.1653
 3893TIP3   OH233169   4.293   5.707  16.860  0.6047  0.2282  0.0830
 3893TIP3    H133170   4.267   5.628  16.907  1.8907 -1.0149 -1.1756
 3893TIP3    H233171   4.217   5.764  16.865 -1.4637 -2.2014 -1.2809
 3894TIP3   OH233172   2.986   1.622  14.392 -0.7152  0.3178 -0.3002
 3894TIP3    H133173   2.998   1.595  14.301 -2.9009  1.9313 -1.1577
 3894TIP3    H233174   3.026   1.709  14.397 -0.6006  0.2393  0.3035
 3895TIP3   OH233175   1.336   1.296  12.986  0.4852  0.4946  0.4078
 3895TIP3    H133176   1.354   1.279  12.894  1.8741  0.0770  0.7458
 3895TIP3    H233177   1.351   1.213  13.030 -2.3243  0.0792  0.7612
 3896TIP3   OH233178   2.628   1.662   0.942  0.1591  0.1802  0.1639
 3896TIP3    H133179   2.616   1.571   0.969 -4.1214  0.4083 -0.1642
 3896TIP3    H233180   2.599   1.713   1.018  0.4944  1.1843 -0.3705
 3897TIP3   OH233181   0.911   4.177  11.104 -0.3130  0.3269 -0.3352
 3897TIP3    H133182   0.830   4.127  11.115  1.0026 -1.8443  0.1402
 3897TIP3    H233183   0.938   4.200  11.193 -1.2034  2.5099 -0.5741
 3898TIP3   OH233184   0.095   3.975  13.158 -0.0555  0.0894  0.0545
 3898TIP3    H133185   0.161   3.936  13.215 -0.2091  1.7107  1.4520
 3898TIP3    H233186   0.042   4.029  13.217 -1.7701 -0.0746 -1.2507
 3899TIP3   OH233187   2.880   0.218   2.865  0.2844 -0.4843  0.2209
 3899TIP3    H133188   2.854   0.171   2.786  0.8986 -0.6542  0.1134
 3899TIP3    H233189   2.832   0.301   2.861  0.4074 -0.4357 -0.3988
 3900TIP3   OH233190   4.150   4.667  16.284  0.2278  0.6319 -0.5589
 3900TIP3    H133191   4.071   4.612  16.285 -0.2245  1.2782  0.6819
 3900TIP3    H233192   4.145   4.719  16.364  0.4642  2.7386 -1.8163
 3901TIP3   OH233193   1.485   1.651   0.839  0.3131 -0.2309  0.2813
 3901TIP3    H133194   1.431   1.730   0.845 -1.6166 -1.4543 -0.1036
 3901TIP3    H233195   1.436   1.585   0.887  1.7842 -1.2736  0.4190
 3902TIP3   OH233196   5.901   6.288  16.134 -0.2624  0.3979  1.0521
 3902TIP3    H133197   5.961   6.354  16.100 -1.2362  0.0737 -1.5128
 3902TIP3    H233198   5.814   6.319  16.109 -0.7233 -2.0044 -0.6325
 3903TIP3   OH233199   3.221   2.825   6.012 -0.2923  0.7400 -0.1160
 3903TIP3    H133200   3.229   2.730   6.021 -1.3729  0.7379  1.0345
 3903TIP3    H233201   3.219   2.858   6.102 -3.2101  1.5341 -0.3822
 3904TIP3   OH233202   2.184   4.069   1.462  0.1067 -0.6210 -0.0579
 3904TIP3    H133203   2.169   4.153   1.418  2.0660 -1.2553 -2.0893
 3904TIP3    H233204   2.254   4.086   1.525 -1.3013 -0.1871  1.4576
 3905TIP3   OH233205   0.769   1.959   5.524 -0.4952 -0.5062 -0.1795
 3905TIP3    H133206   0.773   2.053   5.540  0.8449 -0.3681 -1.1304
 3905TIP3    H233207   0.713   1.950   5.447 -1.7390 -0.6295  0.7088
 3906TIP3   OH233208   4.888   3.116  14.702  0.4768 -0.3632  0.1196
 3906TIP3    H133209   4.839   3.045  14.662  0.8103  0.4346 -1.8194
 3906TIP3    H233210   4.929   3.077  14.779 -0.8616 -1.7601  0.1690
 3907TIP3   OH233211   0.482   4.606  13.509  0.1041 -0.2644  0.2639
 3907TIP3    H133212   0.559   4.593  13.453 -0.0126 -1.0868  0.2868
 3907TIP3    H233213   0.511   4.578  13.596  0.0790  0.3741  0.4814
 3908TIP3   OH233214   6.796   5.418  10.594 -0.1258 -0.0370 -0.0920
 3908TIP3    H133215   6.749   5.340  10.564  0.7425 -0.5776 -0.0854
 3908TIP3    H233216   6.760   5.490  10.542 -1.1986 -0.3753  0.1664
 3909TIP3   OH233217   1.794   6.628   6.128  0.0464  0.6507 -0.1179
 3909TIP3    H133218   1.849   6.599   6.055  0.2984 -3.1454  1.3693
 3909TIP3    H233219   1.706   6.596   6.106  0.3181 -1.4785  1.5839
 3910TIP3   OH233220   1.685   3.717  14.077 -0.1371 -0.1921  0.2018
 3910TIP3    H133221   1.717   3.674  14.156 -1.3306  0.3251  1.0023
 3910TIP3    H233222   1.608   3.766  14.106  0.1582  1.0687 -1.0257
 3911TIP3   OH233223   6.498   6.482  12.745  0.6647 -0.0075 -0.0448
 3911TIP3    H133224   6.478   6.526  12.662  0.4788  0.3812  0.2057
 3911TIP3    H233225   6.531   6.551  12.802 -1.2643  0.1611  0.9218
 3912TIP3   OH233226   3.512   6.168   3.776  0.1740 -0.0867  0.0004
 3912TIP3    H133227   3.547   6.194   3.861 -1.6670  3.0102 -0.0737
 3912TIP3    H233228   3.420   6.148   3.792 -0.0516 -0.0642 -1.1588
 3913TIP3   OH233229   4.531   1.735  11.385 -0.1809 -0.0055 -0.5206
 3913TIP3    H133230   4.453   1.746  11.330 -0.2600 -0.4101 -0.4885
 3913TIP3    H233231   4.502   1.682  11.459 -0.2949  1.2795  0.3977
 3914TIP3   OH233232   1.582   2.351   3.443  0.3255  0.0211 -0.2792
 3914TIP3    H133233   1.510   2.414   3.439  0.6462  0.3706 -0.5879
 3914TIP3    H233234   1.540   2.269   3.469 -0.4563 -0.1945 -2.0638
 3915TIP3   OH233235   5.191   3.753   3.190  0.4150  0.2354 -0.7029
 3915TIP3    H133236   5.267   3.717   3.235 -0.6087 -1.1883 -0.0391
 3915TIP3    H233237   5.227   3.813   3.126  2.0056  1.1491  0.9640
 3916TIP3   OH233238   4.623   4.224   3.663 -0.0307 -0.8465 -0.0986
 3916TIP3    H133239   4.570   4.304   3.669  0.8817 -0.1945 -0.4241
 3916TIP3    H233240   4.641   4.200   3.753  3.5603  2.0159  0.1865
 3917TIP3   OH233241   5.228   0.412  11.684  0.0044 -0.4214 -0.1081
 3917TIP3    H133242   5.309   0.462  11.689 -0.1205 -0.1777 -0.4508
 3917TIP3    H233243   5.166   0.461  11.738 -0.3281  0.2160 -1.0395
 3918TIP3   OH233244   5.896   4.957  13.518  0.4153 -0.0804  0.1827
 3918TIP3    H133245   5.916   4.979  13.610  0.0264 -0.3544  0.3353
 3918TIP3    H233246   5.806   4.986  13.506  0.7658  0.7897 -0.3859
 3919TIP3   OH233247   2.633   3.361  14.691  0.2159  0.1255  0.2146
 3919TIP3    H133248   2.577   3.284  14.701 -0.5917  0.7932  1.0365
 3919TIP3    H233249   2.711   3.341  14.743  0.6252 -0.6839 -0.6867
 3920TIP3   OH233250   4.488   3.046  11.344 -0.3395 -0.5142  0.2914
 3920TIP3    H133251   4.470   3.122  11.400  1.4630  0.6800 -0.6383
 3920TIP3    H233252   4.517   2.978  11.404 -2.6804 -0.7666  1.2267
 3921TIP3   OH233253   2.217   1.779  12.040  0.4224 -0.3573 -0.1451
 3921TIP3    H133254   2.177   1.694  12.022  1.3673 -0.5552 -1.4409
 3921TIP3    H233255   2.185   1.836  11.969 -1.2326  0.7655  1.4097
 3922TIP3   OH233256   2.148   3.890  15.975 -0.1259 -0.2132  0.4802
 3922TIP3    H133257   2.078   3.931  16.026  0.2571 -1.5039  2.1244
 3922TIP3    H233258   2.227   3.903  16.027  0.1333 -2.3099  0.6967
 3923TIP3   OH233259   4.221   5.681  15.515  0.4745  0.0025  0.2737
 3923TIP3    H133260   4.149   5.621  15.497 -1.2964  1.3263  2.3916
 3923TIP3    H233261   4.295   5.624  15.537 -0.3100 -1.3919 -0.5651
 3924TIP3   OH233262   4.101   2.633  14.491 -0.4005  0.4012  0.1240
 3924TIP3    H133263   4.088   2.538  14.496 -0.7422  0.2311 -2.5809
 3924TIP3    H233264   4.019   2.670  14.523 -2.3623 -0.4102 -3.4490
 3925TIP3   OH233265   6.715   1.646   6.227 -0.3129  0.1760 -0.2939
 3925TIP3    H133266   6.764   1.712   6.276  0.9933  0.9720 -2.5289
 3925TIP3    H233267   6.698   1.577   6.291  1.2363  1.1705  1.2889
 3926TIP3   OH233268   5.918   4.952   0.558  0.3925  0.1075 -0.3922
 3926TIP3    H133269   5.933   5.011   0.632  1.3411  0.6890 -1.0310
 3926TIP3    H233270   5.953   4.999   0.482 -0.2945 -0.6041 -1.1741
 3927TIP3   OH233271   4.632   0.147   5.366  0.0048 -0.5978  0.0120
 3927TIP3    H133272   4.665   0.165   5.278  1.7903 -1.1216  0.5244
 3927TIP3    H233273   4.689   0.077   5.399  0.9613  1.1818  2.4248
 3928TIP3   OH233274   5.079   6.787  15.604  0.2057 -0.2226 -0.2413
 3928TIP3    H133275   5.126   6.845  15.544  0.0057 -1.0233 -1.2079
 3928TIP3    H233276   5.067   6.706  15.554  0.4666 -1.0978  1.0628
 3929TIP3   OH233277   3.345   2.291  11.575 -0.2482  0.4140 -0.1270
 3929TIP3    H133278   3.372   2.379  11.603 -3.2020  2.0800 -2.0383
 3929TIP3    H233279   3.316   2.302  11.484 -0.7272 -2.5747 -0.4436
 3930TIP3   OH233280   2.217   0.939   2.020  0.2854  0.7244 -0.2613
 3930TIP3    H133281   2.283   1.006   2.042  0.4599  0.5297 -0.1870
 3930TIP3    H233282   2.142   0.989   1.988  0.6386  0.9317 -0.7897
 3931TIP3   OH233283   2.887   5.975   5.666  0.2229 -0.1808  0.4297
 3931TIP3    H133284   2.925   5.919   5.599 -0.0497 -0.1555  0.2536
 3931TIP3    H233285   2.887   5.922   5.745 -0.1229 -0.4657  0.2418
 3932TIP3   OH233286   0.535   0.549  10.492  0.4139 -0.1669 -0.0473
 3932TIP3    H133287   0.449   0.588  10.509  0.5187 -0.1942  0.5537
 3932TIP3    H233288   0.541   0.475  10.553  0.6307 -0.5168 -0.4851
 3933TIP3   OH233289   6.114   3.463  14.221  0.3752  0.5246  0.9882
 3933TIP3    H133290   6.036   3.491  14.269  0.6306  1.7446  0.7151
 3933TIP3    H233291   6.084   3.451  14.131  1.0862  4.0966  0.1557
 3934TIP3   OH233292   2.607   5.105  16.221  0.3404 -0.1198 -0.4313
 3934TIP3    H133293   2.540   5.046  16.187  1.0929 -0.6882 -0.9521
 3934TIP3    H233294   2.652   5.137  16.143  1.2750 -0.4704 -0.0428
 3935TIP3   OH233295   4.661   0.390  12.972  0.0012  0.4828  0.1217
 3935TIP3    H133296   4.656   0.365  12.879 -1.0162 -0.3879  0.3970
 3935TIP3    H233297   4.651   0.308  13.020 -2.0238  1.1988  1.0307
 3936TIP3   OH233298   6.386   4.846   2.170  0.2323 -0.2038 -0.0683
 3936TIP3    H133299   6.366   4.808   2.084 -2.0122  1.4142 -0.3140
 3936TIP3    H233300   6.307   4.832   2.222  1.0662  0.0484  1.3181
 3937TIP3   OH233301   4.001   3.248   2.832 -0.2110 -0.0872 -0.6989
 3937TIP3    H133302   4.012   3.155   2.854 -0.0158 -0.5301 -2.4869
 3937TIP3    H233303   3.908   3.257   2.810 -0.2054  0.1041 -0.6426
 3938TIP3   OH233304   6.490   5.018  10.962 -0.3527  0.4623 -0.2751
 3938TIP3    H133305   6.537   5.053  10.886  0.0454  0.7241  0.0836
 3938TIP3    H233306   6.556   4.969  11.011 -0.5999  0.3158 -0.0861
 3939TIP3   OH233307   5.771   4.966   3.840 -0.7140 -0.1127 -0.3692
 3939TIP3    H133308   5.835   4.923   3.784  0.2366 -0.0915  0.6725
 3939TIP3    H233309   5.687   4.948   3.798 -0.2397 -1.9567 -0.6240
 3940TIP3   OH233310   4.122   6.714   2.427  0.8122 -0.8034 -0.4580
 3940TIP3    H133311   4.156   6.627   2.452  0.7190 -0.2760  1.7678
 3940TIP3    H233312   4.064   6.738   2.500  0.4055  0.8943 -1.3002
 3941TIP3   OH233313   0.227   6.135   2.793  0.3126  0.1109  0.3910
 3941TIP3    H133314   0.147   6.121   2.845  0.1064  0.1978  0.0976
 3941TIP3    H233315   0.278   6.055   2.806 -0.2462 -0.3411 -0.1758
 3942TIP3   OH233316   0.378   6.757  10.946 -0.2175  0.5441  0.6326
 3942TIP3    H133317   0.309   6.727  10.886 -0.5746  1.4677  0.5687
 3942TIP3    H233318   0.413   6.836  10.904 -0.0198  0.8245  1.3193
 3943TIP3   OH233319   6.292   4.829  13.790 -0.8252  0.3879 -0.1353
 3943TIP3    H133320   6.344   4.844  13.710 -1.1203 -1.7359 -0.7912
 3943TIP3    H233321   6.319   4.742  13.820 -2.2998  0.2334  0.8552
 3944TIP3   OH233322   1.332   3.387   2.391  0.1254  0.1254  0.0072
 3944TIP3    H133323   1.241   3.359   2.385 -0.0623  0.2798  1.7378
 3944TIP3    H233324   1.341   3.454   2.322 -1.0472  0.0698 -0.2185
 3945TIP3   OH233325   0.624   3.356  12.407  0.4058  0.7420 -0.4809
 3945TIP3    H133326   0.531   3.333  12.400  0.6049 -0.3940  0.2030
 3945TIP3    H233327   0.669   3.294  12.349  0.7987  0.7292 -0.1692
 3946TIP3   OH233328   1.557   1.092   5.327 -0.0407 -0.6859  0.0951
 3946TIP3    H133329   1.472   1.047   5.324 -0.1472 -0.4654 -0.3065
 3946TIP3    H233330   1.534   1.184   5.343  0.0837 -0.5367 -0.5357
 3947TIP3   OH233331   4.584   4.729   0.176  0.0529  0.4408 -0.7428
 3947TIP3    H133332   4.633   4.773   0.245 -1.9690  0.1708  0.9898
 3947TIP3    H233333   4.582   4.791   0.104 -0.0422  1.9146  0.4734
 3948TIP3   OH233334   6.152   1.418  11.865 -0.5582 -0.4398 -0.2083
 3948TIP3    H133335   6.155   1.513  11.876  1.1168 -0.5707  0.8168
 3948TIP3    H233336   6.095   1.387  11.935 -1.2037 -0.1971 -0.6173
 3949TIP3   OH233337   4.031   5.401  12.160  0.1464  0.1358  0.2546
 3949TIP3    H133338   4.093   5.416  12.090  2.0546  1.3088  2.0778
 3949TIP3    H233339   3.951   5.446  12.132  0.4317 -0.5121 -1.6774
 3950TIP3   OH233340   3.829   1.549   0.611  0.2435  0.0416  0.5139
 3950TIP3    H133341   3.853   1.578   0.523  0.8915 -0.3618  0.5530
 3950TIP3    H233342   3.811   1.456   0.602  0.7481 -0.0965  0.8939
 3951TIP3   OH233343   6.517   6.025   3.492 -0.1596  0.4616  0.2382
 3951TIP3    H133344   6.581   5.954   3.488 -1.9420 -1.2768  1.0303
 3951TIP3    H233345   6.546   6.088   3.425  1.0312 -1.4052 -1.0751
 3952TIP3   OH233346   4.679   2.003  13.268  0.2683 -0.5112  0.4532
 3952TIP3    H133347   4.685   2.061  13.192 -1.5337 -0.8208  0.0157
 3952TIP3    H233348   4.656   1.918  13.230  0.9421 -1.0582  1.2366
 3953TIP3   OH233349   0.152   6.169  11.412 -0.2715  0.0067 -0.4696
 3953TIP3    H133350   0.140   6.245  11.354  1.3538 -1.1713 -2.4664
 3953TIP3    H233351   0.246   6.158  11.418 -0.4678 -1.2003  0.7272
 3954TIP3   OH233352   6.550   2.715  13.872 -0.2935  0.5094  0.5321
 3954TIP3    H133353   6.518   2.669  13.950 -2.1009  0.4283 -0.2183
 3954TIP3    H233354   6.616   2.775  13.906 -1.1205  0.5657  2.1603
 3955TIP3   OH233355   2.054   5.397  13.353  0.3217 -0.0405  0.1905
 3955TIP3    H133356   2.072   5.415  13.261  0.3645  0.7263  0.3456
 3955TIP3    H233357   1.960   5.413  13.363  0.1501 -0.9360  0.0994
 3956TIP3   OH233358   1.366   3.038   2.811  0.5074  0.6167  0.2090
 3956TIP3    H133359   1.430   2.968   2.819  1.5164  1.5339  0.4302
 3956TIP3    H233360   1.419   3.119   2.812 -0.7404  1.4709  1.7392
 3957TIP3   OH233361   3.655   3.920   5.107 -0.4348 -0.5754  0.3726
 3957TIP3    H133362   3.562   3.929   5.087 -0.4109 -1.0633  0.0140
 3957TIP3    H233363   3.683   3.842   5.058  0.6122  0.7059 -1.1830
 3958TIP3   OH233364   4.451   1.805  14.851 -0.1960 -0.7186  0.3366
 3958TIP3    H133365   4.468   1.848  14.935 -1.0482  0.2858  0.0121
 3958TIP3    H233366   4.518   1.736  14.845  0.0840 -0.5793  1.6730
 3959TIP3   OH233367   1.671   5.339   6.161 -0.4922 -0.1890 -0.0568
 3959TIP3    H133368   1.706   5.378   6.241 -0.4610  0.7975 -0.5358
 3959TIP3    H233369   1.580   5.370   6.157 -0.4279 -0.0490 -0.5119
 3960TIP3   OH233370   4.591   0.346  17.338  0.2011 -0.2655 -0.3580
 3960TIP3    H133371   4.537   0.409  17.290  1.1023  0.1256 -0.8802
 3960TIP3    H233372   4.529   0.300  17.394 -0.7367 -0.0873 -1.2138
 3961TIP3   OH233373   6.012   3.530  15.577 -0.0336  0.3185 -0.2569
 3961TIP3    H133374   6.024   3.616  15.536  1.0375  1.4471  2.2307
 3961TIP3    H233375   5.919   3.511  15.565 -0.2015  1.5980 -1.2466
 3962TIP3   OH233376   2.236   6.024  15.678 -0.5394 -0.0670  0.0396
 3962TIP3    H133377   2.309   6.004  15.737 -1.5079 -0.4061  1.1534
 3962TIP3    H233378   2.257   6.110  15.643 -0.2358  0.4284  1.3629
 3963TIP3   OH233379   0.915   1.058   3.503 -0.2859 -0.1994 -0.0510
 3963TIP3    H133380   0.919   0.966   3.480 -1.3113 -0.5235  1.0079
 3963TIP3    H233381   0.825   1.072   3.533 -1.6391  2.1483 -4.3068
 3964TIP3   OH233382   1.123   3.824   1.725  0.5710 -0.1682  0.1167
 3964TIP3    H133383   1.155   3.734   1.714  0.0810 -0.5420  1.5557
 3964TIP3    H233384   1.075   3.822   1.808  1.1212  1.5938  0.4970
 3965TIP3   OH233385   0.841   6.431  13.084  0.7551  1.0297 -0.3332
 3965TIP3    H133386   0.825   6.502  13.146 -1.3345  0.6903 -0.3981
 3965TIP3    H233387   0.929   6.446  13.052  0.4758  3.4336 -0.1471
 3966TIP3   OH233388   3.406   3.419  14.274 -0.1286 -0.7472 -0.2750
 3966TIP3    H133389   3.317   3.391  14.254 -0.0572 -0.0066 -1.7984
 3966TIP3    H233390   3.434   3.364  14.347 -1.2202 -2.1539 -0.8944
 3967TIP3   OH233391   1.056   1.311   6.509  0.2275 -0.1905  0.4948
 3967TIP3    H133392   1.009   1.240   6.553  0.3149  0.0326  0.9548
 3967TIP3    H233393   1.135   1.270   6.474 -0.1883 -0.5157 -0.0670
 3968TIP3   OH233394   3.338   3.364  13.875  0.0309  0.4866 -0.1395
 3968TIP3    H133395   3.392   3.299  13.920  0.6356  2.1734  1.7746
 3968TIP3    H233396   3.262   3.376  13.933  0.4771  2.2259  0.1568
 3969TIP3   OH233397   3.584   6.503   3.283  0.3046 -0.1811 -0.3722
 3969TIP3    H133398   3.507   6.458   3.249  0.7225 -1.5503  0.4001
 3969TIP3    H233399   3.628   6.539   3.206  0.4101 -1.8596 -1.1238
 3970TIP3   OH233400   3.986   0.443  14.624 -0.1351  0.0929 -0.1921
 3970TIP3    H133401   4.039   0.369  14.594  0.2710  0.7384 -1.1066
 3970TIP3    H233402   3.992   0.440  14.719  1.1153 -0.1607 -0.2637
 3971TIP3   OH233403   3.025   4.337   4.571  0.1577 -0.2671 -0.2734
 3971TIP3    H133404   3.000   4.389   4.495  0.8742  1.2668  0.4834
 3971TIP3    H233405   2.943   4.297   4.602  0.1360 -2.6398 -2.9835
 3972TIP3   OH233406   6.034   5.065   2.750  0.5569 -0.1177 -0.1248
 3972TIP3    H133407   6.099   5.129   2.722  1.1458  0.8433  3.0043
 3972TIP3    H233408   6.080   5.009   2.813 -0.9151 -1.2590  0.0017
 3973TIP3   OH233409   1.173   4.427  11.045  0.0054 -0.5214  0.0983
 3973TIP3    H133410   1.206   4.351  11.093 -1.0984 -0.9468  0.2262
 3973TIP3    H233411   1.200   4.412  10.954  2.9667  0.7778  0.6506
 3974TIP3   OH233412   5.861   4.788  12.541  0.0419  0.6690 -0.1790
 3974TIP3    H133413   5.899   4.874  12.560  1.4662 -0.2783  1.6670
 3974TIP3    H233414   5.873   4.738  12.622 -1.3012 -1.0973 -0.9840
 3975TIP3   OH233415   3.443   2.016  11.215  0.1904  0.0410 -0.3642
 3975TIP3    H133416   3.461   1.985  11.127  1.6596  0.2690 -0.1658
 3975TIP3    H233417   3.369   2.076  11.205 -2.0411 -2.5907 -0.9057
 3976TIP3   OH233418   1.776   5.550   5.384  0.0907 -0.2814 -0.0595
 3976TIP3    H133419   1.687   5.521   5.363  0.9240 -2.1132 -1.3931
 3976TIP3    H233420   1.817   5.565   5.298  0.2619  3.4317  0.5307
 3977TIP3   OH233421   6.283   1.963   2.457  0.0027  0.3916  0.2501
 3977TIP3    H133422   6.216   2.023   2.424  0.3273  0.4660 -0.2760
 3977TIP3    H233423   6.355   2.020   2.483 -0.0311  0.2913  0.5685
 3978TIP3   OH233424   3.894   6.516   2.254 -0.3397  0.3904 -0.2253
 3978TIP3    H133425   3.816   6.566   2.230 -0.3282  0.6495  0.2702
 3978TIP3    H233426   3.893   6.513   2.350 -0.3472 -0.5747 -0.2458
 3979TIP3   OH233427   3.935   2.720   2.440 -0.0823 -0.0208 -0.4934
 3979TIP3    H133428   3.944   2.634   2.480 -0.5293 -0.5610 -1.4999
 3979TIP3    H233429   3.914   2.779   2.512  1.3738 -0.5254  0.3876
 3980TIP3   OH233430   6.041   3.484  15.233  0.0068 -0.0470  0.3941
 3980TIP3    H133431   5.984   3.413  15.205  0.5442 -0.0897 -0.6787
 3980TIP3    H233432   5.985   3.543  15.283 -0.7298 -0.6081  0.2421
 3981TIP3   OH233433   5.371   0.922   4.136  0.1268 -0.0943  0.3085
 3981TIP3    H133434   5.365   0.830   4.109  1.0095 -0.1289  0.1960
 3981TIP3    H233435   5.465   0.940   4.138  0.0546  0.3185  1.9653
 3982TIP3   OH233436   5.649   0.688  14.476 -0.1220  0.1097 -0.2367
 3982TIP3    H133437   5.668   0.696  14.382  0.0526  0.7122 -0.1485
 3982TIP3    H233438   5.734   0.693  14.518 -0.2378  0.1952 -0.0158
 3983TIP3   OH233439   0.894   2.372   3.875 -0.0408 -0.3646  0.3259
 3983TIP3    H133440   0.979   2.368   3.917  0.2544  0.0234 -0.2231
 3983TIP3    H233441   0.873   2.281   3.854  0.0305 -0.5056  0.8613
 3984TIP3   OH233442   5.168   3.932   0.091  0.4648  0.2945  0.1681
 3984TIP3    H133443   5.225   3.935   0.168 -0.1894 -0.2291  0.7006
 3984TIP3    H233444   5.120   4.015   0.094  0.6727  0.4166  0.1383
 3985TIP3   OH233445   3.053   2.539   4.853 -0.0456  0.4803  0.5755
 3985TIP3    H133446   3.056   2.463   4.795  0.0242  0.0612  1.1276
 3985TIP3    H233447   2.965   2.536   4.892  0.6671 -0.5158  2.1857
 3986TIP3   OH233448   4.739   1.631   6.770  0.1647 -0.0351 -0.0028
 3986TIP3    H133449   4.742   1.722   6.799  0.4671 -0.1755  0.4207
 3986TIP3    H233450   4.684   1.632   6.692 -0.3250  0.4194  0.3413
 3987TIP3   OH233451   4.511   1.472  12.693  0.0045 -0.2082  0.1025
 3987TIP3    H133452   4.441   1.527  12.658 -1.1752 -1.1930  0.8599
 3987TIP3    H233453   4.560   1.531  12.751  0.3108  0.6919 -1.0214
 3988TIP3   OH233454   1.639   0.439  15.433 -0.0236 -0.4498 -0.0532
 3988TIP3    H133455   1.651   0.353  15.473  1.9945 -1.3022 -2.1917
 3988TIP3    H233456   1.668   0.501  15.499 -1.6224 -1.3566  1.5752
 3989TIP3   OH233457   6.088   2.189   2.084 -0.2479  0.0510  0.2082
 3989TIP3    H133458   6.006   2.176   2.037 -1.3114  0.5013  1.8515
 3989TIP3    H233459   6.101   2.283   2.086 -0.0824  0.0244  0.5726
 3990TIP3   OH233460   2.773   5.112   3.241  0.2059  0.4216  0.1164
 3990TIP3    H133461   2.864   5.127   3.218  0.7400 -1.8402  0.4613
 3990TIP3    H233462   2.740   5.055   3.171 -0.6653  0.5046  0.4470
 3991TIP3   OH233463   5.178   3.700   3.789  0.3869  0.8742  0.4325
 3991TIP3    H133464   5.099   3.717   3.840 -1.9022 -1.5259 -2.0072
 3991TIP3    H233465   5.231   3.643   3.844 -1.1592 -0.1660  0.8985
 3992TIP3   OH233466   1.429   4.096   6.071 -0.4336  0.1607 -0.3270
 3992TIP3    H133467   1.451   4.188   6.084 -1.0582  0.0308  2.1466
 3992TIP3    H233468   1.348   4.097   6.020 -1.1503  1.0408  0.8133
 3993TIP3   OH233469   2.141   0.835  14.356  0.3033 -0.2017 -0.1189
 3993TIP3    H133470   2.074   0.783  14.311  0.5095 -0.6695  0.1028
 3993TIP3    H233471   2.163   0.783  14.433  0.7543  0.0628 -0.0678
 3994TIP3   OH233472   2.258   1.199   4.950  0.1640  0.3856 -0.4309
 3994TIP3    H133473   2.277   1.201   4.856 -1.1277  1.1611 -0.7126
 3994TIP3    H233474   2.164   1.182   4.954  0.4129 -0.7799  0.7704
 3995TIP3   OH233475   1.769   4.990  11.853  0.5457  0.2761  0.1725
 3995TIP3    H133476   1.844   4.966  11.798  0.2608 -1.0191  0.3131
 3995TIP3    H233477   1.785   4.944  11.935 -0.7170 -0.5829 -0.0316
 3996TIP3   OH233478   2.426   4.567   2.282  0.2014 -0.3905  0.2895
 3996TIP3    H133479   2.376   4.486   2.283  2.2014 -1.6825  0.3684
 3996TIP3    H233480   2.450   4.583   2.373 -1.0999  0.9301  0.4348
 3997TIP3   OH233481   4.408   4.901   6.039  0.5865  0.0640  0.2917
 3997TIP3    H133482   4.435   4.937   6.124 -1.5363 -0.5751  1.2859
 3997TIP3    H233483   4.390   4.809   6.055  0.2995 -0.1121 -0.8920
 3998TIP3   OH233484   5.731   1.516  16.620  0.5045 -0.6005 -0.2959
 3998TIP3    H133485   5.766   1.557  16.699 -1.0775 -0.4425  0.3829
 3998TIP3    H233486   5.801   1.459  16.589  0.6771 -1.8278  2.1017
 3999TIP3   OH233487   0.320   6.636   2.560  0.1351  0.2317 -1.1214
 3999TIP3    H133488   0.240   6.586   2.576 -0.3943  1.4599  0.3180
 3999TIP3    H233489   0.350   6.606   2.474 -0.3673 -2.2257 -0.5090
 4000TIP3   OH233490   6.658   4.213   1.346 -0.0331 -0.5443  0.4638
 4000TIP3    H133491   6.564   4.202   1.335  0.0497 -2.0469  1.0596
 4000TIP3    H233492   6.692   4.221   1.257 -0.6955 -0.2387  0.2327
 4001TIP3   OH233493   0.488   2.218  15.678  0.0865 -0.0265  0.1497
 4001TIP3    H133494   0.439   2.249  15.755  0.8991 -0.1505  0.7275
 4001TIP3    H233495   0.535   2.141  15.710  0.2190 -0.2382 -0.5540
 4002TIP3   OH233496   5.619   0.589   2.358  0.4418  0.3198 -0.3359
 4002TIP3    H133497   5.561   0.519   2.326 -2.0105  2.4351 -0.8780
 4002TIP3    H233498   5.653   0.630   2.278  0.4156  0.8642 -0.0688
 4003TIP3   OH233499   4.592   4.887  15.392  0.0028  0.2813  0.3125
 4003TIP3    H133500   4.507   4.857  15.361  0.4420  0.5833 -1.2714
 4003TIP3    H233501   4.609   4.834  15.471 -1.3646 -0.2011  0.3071
 4004TIP3   OH233502   5.707   1.209   1.932 -0.5098 -0.7976  0.1436
 4004TIP3    H133503   5.653   1.140   1.894 -1.7037  0.2734 -0.1888
 4004TIP3    H233504   5.646   1.262   1.983 -0.0606  1.1519 -1.2049
 4005TIP3   OH233505   5.935   1.276  13.331  0.5492 -0.0421  0.5038
 4005TIP3    H133506   6.018   1.235  13.359  1.2201  2.4934  2.5647
 4005TIP3    H233507   5.874   1.257  13.402 -1.2134 -3.0453 -1.5917
 4006TIP3   OH233508   0.751   2.769   3.217 -0.1484  0.0731 -0.4897
 4006TIP3    H133509   0.800   2.700   3.172 -1.1837 -0.8948 -0.1689
 4006TIP3    H233510   0.716   2.823   3.146  0.1848 -0.0687 -0.7647
 4007TIP3   OH233511   4.044   3.653   0.849  0.2706 -0.0905 -0.2164
 4007TIP3    H133512   3.950   3.666   0.838  0.0143 -1.4838  0.1009
 4007TIP3    H233513   4.072   3.611   0.767  0.6323  0.3673 -0.3320
 4008TIP3   OH233514   0.158   4.715  13.189 -0.4501  0.0862  0.1684
 4008TIP3    H133515   0.189   4.745  13.275 -2.1847 -1.1653  1.2858
 4008TIP3    H233516   0.187   4.783  13.128 -1.0648  2.1503  2.0611
 4009TIP3   OH233517   5.882   5.805   0.703 -0.0668  0.0815  0.0902
 4009TIP3    H133518   5.969   5.839   0.724  0.5292 -1.2925 -0.0405
 4009TIP3    H233519   5.823   5.878   0.720  0.7623  0.1890  3.0009
 4010TIP3   OH233520   3.552   5.286  15.009  0.2515 -0.4637  0.5078
 4010TIP3    H133521   3.507   5.254  14.931  0.0015  0.7147  0.1537
 4010TIP3    H233522   3.622   5.222  15.024 -0.0501 -1.0100 -0.3381
 4011TIP3   OH233523   0.754   2.745   3.594 -0.2053 -0.5053  0.0733
 4011TIP3    H133524   0.754   2.823   3.650  0.7812 -0.8240  0.5464
 4011TIP3    H233525   0.676   2.755   3.539  1.3868  2.3290 -1.9576
 4012TIP3   OH233526   1.335   6.110   4.965  0.4368 -0.2853  0.0677
 4012TIP3    H133527   1.365   6.190   4.923  1.2528 -0.6692 -0.1108
 4012TIP3    H233528   1.269   6.074   4.907  1.0498 -0.4437 -0.5409
 4013TIP3   OH233529   6.759   4.831   5.615  0.3818  0.4252 -0.1929
 4013TIP3    H133530   6.698   4.882   5.562 -0.9556 -0.7257  0.2168
 4013TIP3    H233531   6.723   4.834   5.704  1.1614  0.0968  0.1501
 4014TIP3   OH233532   3.611   5.505  13.829 -0.6249 -0.1285 -0.1890
 4014TIP3    H133533   3.681   5.556  13.871 -0.0260 -1.6345  0.6938
 4014TIP3    H233534   3.599   5.548  13.744  1.4439  0.1110 -0.4164
 4015TIP3   OH233535   5.447   2.301   5.764  0.7990 -0.7117  0.1972
 4015TIP3    H133536   5.380   2.297   5.696 -0.1063 -0.3071  1.0388
 4015TIP3    H233537   5.436   2.221   5.815  0.4669 -0.3125  0.7705
 4016TIP3   OH233538   5.631   4.130  12.640 -0.0387  0.6855  0.8001
 4016TIP3    H133539   5.708   4.078  12.660 -1.1288 -1.6062 -0.5604
 4016TIP3    H233540   5.584   4.135  12.724 -0.7434 -2.0958  0.6644
 4017TIP3   OH233541   3.105   5.719  16.243  0.2606  0.1266  0.2311
 4017TIP3    H133542   3.014   5.691  16.251  0.1331  0.7746  1.2600
 4017TIP3    H233543   3.148   5.680  16.319  0.4608  1.2100  0.6910
 4018TIP3   OH233544   5.257   2.482   2.514  0.0105  0.3848 -0.1119
 4018TIP3    H133545   5.216   2.417   2.457 -0.9305  0.5169  0.3847
 4018TIP3    H233546   5.350   2.460   2.513 -0.2725 -0.9299 -0.0118
 4019TIP3   OH233547   2.794   1.517  17.065  0.4081  0.1979  0.0032
 4019TIP3    H133548   2.886   1.493  17.054  0.8060  0.9007  1.4800
 4019TIP3    H233549   2.786   1.602  17.022  0.2006 -0.2737 -0.9242
 4020TIP3   OH233550   0.581   4.243  16.251  0.6721  0.2036 -0.2143
 4020TIP3    H133551   0.610   4.258  16.341  2.4861  2.3400 -1.0629
 4020TIP3    H233552   0.622   4.160  16.226  2.2036  0.8154  0.1679
 4021TIP3   OH233553   0.634   5.354   2.926 -0.3045  0.1294  0.1533
 4021TIP3    H133554   0.703   5.393   2.980  1.2008 -2.2615  0.1303
 4021TIP3    H233555   0.556   5.358   2.981  0.3091  1.1028  1.0049
 4022TIP3   OH233556   3.401   2.450  16.171 -0.0217  0.1406  0.1942
 4022TIP3    H133557   3.372   2.530  16.214  1.2211  1.8242 -1.9178
 4022TIP3    H233558   3.495   2.463  16.157  0.2621 -1.8193  0.0193
 4023TIP3   OH233559   0.318   5.921  14.889 -0.0664 -0.6079 -0.5603
 4023TIP3    H133560   0.379   5.857  14.852  0.5247 -0.7855  0.6574
 4023TIP3    H233561   0.354   6.006  14.864  0.4598 -0.7230 -0.2122
 4024TIP3   OH233562   1.448   3.251   5.076  0.2308 -0.0868  0.0394
 4024TIP3    H133563   1.375   3.189   5.083  1.1289 -1.0487  1.5636
 4024TIP3    H233564   1.460   3.283   5.165 -0.2157  2.3717 -0.7098
 4025TIP3   OH233565   6.708   5.110  13.262 -0.0885 -0.4330  0.3935
 4025TIP3    H133566   6.801   5.084  13.258 -0.8293 -3.6647  0.8529
 4025TIP3    H233567   6.671   5.078  13.180 -0.7221  1.4307 -0.0801
 4026TIP3   OH233568   6.366   1.997   0.285  0.4380  0.6042 -0.3630
 4026TIP3    H133569   6.329   1.948   0.212  1.6673 -1.2246  0.1536
 4026TIP3    H233570   6.436   2.050   0.245  0.9816 -0.2473 -0.5800
 4027TIP3   OH233571   6.463   3.600  10.953  0.6642 -0.6567 -0.3519
 4027TIP3    H133572   6.491   3.684  10.917 -0.0239 -0.7612 -1.1607
 4027TIP3    H233573   6.424   3.554  10.878 -3.0314  0.0617  0.9391
 4028TIP3   OH233574   5.642   4.743   4.029  0.2508 -0.5797  0.2612
 4028TIP3    H133575   5.699   4.696   4.090 -0.1982 -1.1109  0.2695
 4028TIP3    H233576   5.688   4.739   3.945  1.7025  1.5708  0.8504
 4029TIP3   OH233577   1.549   4.282  11.872  0.1693  0.5716 -0.5249
 4029TIP3    H133578   1.482   4.346  11.894  0.0418  0.1576  0.2979
 4029TIP3    H233579   1.613   4.331  11.821 -0.6106  1.0346 -1.0873
 4030TIP3   OH233580   0.597   6.446  17.400  0.1306  0.6455 -0.0607
 4030TIP3    H133581   0.552   6.509  17.457 -0.8956  1.2063 -1.4353
 4030TIP3    H233582   0.678   6.491  17.373  0.3205  0.6177  0.4572
 4031TIP3   OH233583   1.293   5.671  12.055  0.9743 -0.0605 -0.4937
 4031TIP3    H133584   1.214   5.724  12.046 -1.4328 -3.1574  0.5018
 4031TIP3    H233585   1.287   5.633  12.143  3.3956 -0.7370 -0.5195
 4032TIP3   OH233586   5.285   5.050  14.650 -0.3654  0.2959 -0.6130
 4032TIP3    H133587   5.340   4.987  14.602  0.1586  0.8409 -0.7409
 4032TIP3    H233588   5.341   5.126  14.663 -0.7417  0.4400  0.2391
 4033TIP3   OH233589   2.826   6.395   1.037 -0.6633 -0.2245  0.5122
 4033TIP3    H133590   2.826   6.316   1.091  0.2919 -0.9225 -0.4625
 4033TIP3    H233591   2.847   6.363   0.949 -0.4060  1.1012  0.0740
 4034TIP3   OH233592   3.128   3.904   2.477 -0.5063  0.6059  0.4250
 4034TIP3    H133593   3.112   3.900   2.382 -0.2446  2.2296  0.2839
 4034TIP3    H233594   3.169   3.820   2.498 -1.6902 -0.2849 -0.6682
 4035TIP3   OH233595   3.748   0.133  15.942 -0.6083 -0.2386 -0.8032
 4035TIP3    H133596   3.832   0.088  15.932 -0.1286  0.5673 -0.4387
 4035TIP3    H233597   3.768   0.225  15.926 -0.8853  0.3489  1.8111
 4036TIP3   OH233598   1.532   3.744  14.452  0.0571 -0.4855  0.4150
 4036TIP3    H133599   1.584   3.773  14.527  1.7611  2.1971 -1.6224
 4036TIP3    H233600   1.545   3.649  14.450  2.3485 -0.2841  1.8615
 4037TIP3   OH233601   4.522   1.258  16.112 -0.5331  0.1048 -0.1114
 4037TIP3    H133602   4.579   1.217  16.047 -2.9969 -3.0291 -0.5180
 4037TIP3    H233603   4.458   1.307  16.060 -1.3095 -0.7540  0.0080
 4038TIP3   OH233604   0.678   0.147  13.203  0.2515 -0.4438  0.0101
 4038TIP3    H133605   0.772   0.140  13.218 -0.0750 -0.8357  2.2805
 4038TIP3    H233606   0.656   0.068  13.153  1.0038 -0.7649  0.1665
 4039TIP3   OH233607   3.927   0.565   4.886 -0.0604  0.2435  0.2391
 4039TIP3    H133608   3.866   0.522   4.825  0.2514 -0.5699  0.4790
 4039TIP3    H233609   3.977   0.625   4.831 -0.0901 -0.1522 -0.2323
 4040TIP3   OH233610   3.485   4.526   4.114  0.4401  0.2555 -0.4029
 4040TIP3    H133611   3.515   4.565   4.196  2.2127 -0.5710 -0.6258
 4040TIP3    H233612   3.454   4.601   4.063  1.7156  1.1075  0.0265
 4041TIP3   OH233613   2.418   0.660   5.012 -1.0057 -0.1120  0.1316
 4041TIP3    H133614   2.447   0.724   4.947 -2.5024 -0.3145 -0.7785
 4041TIP3    H233615   2.323   0.666   5.012 -1.0812 -0.4028  2.0487
 4042TIP3   OH233616   4.707   6.095  17.275  0.1166 -0.3606 -0.1603
 4042TIP3    H133617   4.773   6.026  17.271  1.7439  1.1144 -0.4174
 4042TIP3    H233618   4.753   6.174  17.245 -1.5417  0.9158  0.4594
 4043TIP3   OH233619   0.826   1.789   0.549 -0.3919  1.0070  0.8384
 4043TIP3    H133620   0.770   1.827   0.481 -2.0858 -2.6869 -0.1149
 4043TIP3    H233621   0.906   1.842   0.546 -1.8028  3.2753 -1.4565
 4044TIP3   OH233622   3.366   0.124   4.739 -0.2692 -0.1576 -0.0039
 4044TIP3    H133623   3.285   0.118   4.689  0.5032 -0.8669 -1.2221
 4044TIP3    H233624   3.367   0.044   4.792  0.4571 -1.0860 -1.3417
 4045TIP3   OH233625   4.052   4.426  16.622 -0.4363  0.3905  0.0716
 4045TIP3    H133626   4.074   4.396  16.534 -0.0054 -2.6521  1.1080
 4045TIP3    H233627   4.056   4.522  16.616  1.9447  0.2615 -2.6149
 4046TIP3   OH233628   4.952   0.901  11.801 -0.1058 -0.1462  0.3731
 4046TIP3    H133629   4.971   0.928  11.891 -0.8917 -0.6081  0.6877
 4046TIP3    H233630   4.948   0.805  11.806 -1.8621 -0.1108  0.2140
 4047TIP3   OH233631   1.326   0.577   2.947 -0.5622  0.2655 -0.3069
 4047TIP3    H133632   1.410   0.579   2.901 -0.6306  0.0019 -0.4447
 4047TIP3    H233633   1.342   0.622   3.030 -0.0176 -0.7123  0.1262
 4048TIP3   OH233634   5.930   0.263   2.854  0.2858  0.3122  0.4252
 4048TIP3    H133635   6.012   0.311   2.843  0.0451  0.7722  0.5925
 4048TIP3    H233636   5.862   0.324   2.824  0.0315 -0.1961 -0.0572
 4049TIP3   OH233637   2.963   6.288  15.473 -0.2857 -0.1867 -0.1783
 4049TIP3    H133638   2.885   6.277  15.528 -0.3905 -2.5336 -0.6868
 4049TIP3    H233639   2.928   6.297  15.384 -0.0187  0.4480 -0.2213
 4050TIP3   OH233640   4.641   0.802   4.223 -0.0985  0.3225 -0.1545
 4050TIP3    H133641   4.612   0.718   4.188 -1.1529  1.3782 -1.9769
 4050TIP3    H233642   4.560   0.846   4.249  0.4426  0.8075  0.7516
 4051TIP3   OH233643   6.452   3.866   5.371 -0.2852 -0.4078 -0.0442
 4051TIP3    H133644   6.493   3.952   5.379 -0.7308 -0.3221  1.6754
 4051TIP3    H233645   6.362   3.879   5.401 -0.4625 -1.3948 -0.1001
 4052TIP3   OH233646   6.124   0.451   2.811  0.2026  0.5703 -0.0470
 4052TIP3    H133647   6.115   0.546   2.810 -0.8607  0.4748 -0.8472
 4052TIP3    H233648   6.123   0.427   2.718  0.0261 -0.2627  0.1694
 4053TIP3   OH233649   3.275   4.838   3.426 -0.2081  0.1635  0.0258
 4053TIP3    H133650   3.187   4.844   3.389  0.1610 -1.7118 -1.3185
 4053TIP3    H233651   3.332   4.870   3.357  0.2785 -0.2335  0.2378
 4054TIP3   OH233652   0.518   0.953  13.995  0.1783  0.3985  0.3007
 4054TIP3    H133653   0.479   1.038  13.974 -0.3417  0.0861 -0.0182
 4054TIP3    H233654   0.554   0.964  14.083 -2.5331  0.0825  1.5607
 4055TIP3   OH233655   3.027   2.183  13.167  0.1848  0.5719  0.4285
 4055TIP3    H133656   3.036   2.110  13.106  1.5669  1.1939 -0.1729
 4055TIP3    H233657   3.052   2.147  13.252  0.2234  0.1864  0.2550
 4056TIP3   OH233658   0.263   2.888  15.742  0.0437 -0.0609 -0.2140
 4056TIP3    H133659   0.342   2.925  15.701 -0.1013  0.4600 -0.0329
 4056TIP3    H233660   0.290   2.871  15.832  1.1741 -3.6530 -1.0804
 4057TIP3   OH233661   3.909   0.442   4.527  0.4577 -0.1743  0.0404
 4057TIP3    H133662   3.847   0.438   4.600  0.6185  0.1929  0.2011
 4057TIP3    H233663   3.952   0.356   4.528 -1.4544 -1.2265 -1.3560
 4058TIP3   OH233664   0.345   0.738   4.053  0.4459  0.5464  0.0888
 4058TIP3    H133665   0.388   0.712   4.134 -0.2070 -0.8964  0.0012
 4058TIP3    H233666   0.338   0.833   4.059  1.0801  0.5310  1.3766
 4059TIP3   OH233667   0.488   3.104  11.720 -0.4047 -0.0940  0.0383
 4059TIP3    H133668   0.463   3.092  11.812  1.2281 -1.2865  0.3774
 4059TIP3    H233669   0.549   3.032  11.703  0.0029  0.6378 -1.7334
 4060TIP3   OH233670   6.487   4.753  15.143 -0.0256 -0.2712  0.1358
 4060TIP3    H133671   6.582   4.760  15.151  0.0626  1.3901 -1.5556
 4060TIP3    H233672   6.460   4.703  15.220  1.9514  1.4262  2.0849
 4061TIP3   OH233673   1.059   2.266   0.877  0.2144 -0.1787  0.0472
 4061TIP3    H133674   1.021   2.184   0.845 -2.0043  0.4160  0.9251
 4061TIP3    H233675   1.124   2.239   0.941  0.1777 -1.2622 -0.3476
 4062TIP3   OH233676   5.645   0.395   4.975  0.4017  0.2992  0.3324
 4062TIP3    H133677   5.729   0.439   4.973  0.6563 -0.1966  0.0585
 4062TIP3    H233678   5.594   0.436   4.904  0.8548 -0.2718 -0.3318
 4063TIP3   OH233679   5.017   0.052   1.409  0.1898  0.4166 -0.3136
 4063TIP3    H133680   5.011  -0.034   1.367 -0.4417  0.7048 -0.8195
 4063TIP3    H233681   4.933   0.094   1.390 -0.5241  0.1902  2.0675
 4064TIP3   OH233682   0.781   5.238  14.354  0.2140  0.3056  0.6221
 4064TIP3    H133683   0.830   5.220  14.274 -1.1784 -1.2995  0.0902
 4064TIP3    H233684   0.797   5.162  14.410 -0.3712  0.5222  1.0893
 4065TIP3   OH233685   0.072   3.528  13.128  0.0886  0.1509 -0.3856
 4065TIP3    H133686   0.097   3.528  13.220  1.5726 -2.0774 -0.7071
 4065TIP3    H233687  -0.024   3.525  13.129 -0.0048  1.8638  1.0001
 4066TIP3   OH233688   6.671   5.351  14.197 -0.1122  0.3571 -0.4355
 4066TIP3    H133689   6.725   5.419  14.236  0.6065  0.0920 -0.9493
 4066TIP3    H233690   6.581   5.383  14.206  0.0648  0.4864  1.0363
 4067TIP3   OH233691   2.719   1.005  15.380  0.1704 -0.1513  0.2026
 4067TIP3    H133692   2.645   0.945  15.372  0.0729  0.0807 -0.9445
 4067TIP3    H233693   2.683   1.082  15.424 -1.3719  1.5168 -3.4714
 4068TIP3   OH233694   2.355   0.528  13.674  0.0131  0.4089 -0.2639
 4068TIP3    H133695   2.427   0.580  13.639  0.2704  0.4833  0.3636
 4068TIP3    H233696   2.276   0.570  13.639  0.2041  1.3500  0.3887
 4069TIP3   OH233697   6.739   6.098   2.544  0.5428  0.5801 -0.1097
 4069TIP3    H133698   6.652   6.086   2.581  0.0100 -2.8428 -2.0491
 4069TIP3    H233699   6.727   6.163   2.475 -1.5112 -2.4394 -2.8643
 4070TIP3   OH233700   6.202   4.295  16.519  0.1340 -0.2754  0.0616
 4070TIP3    H133701   6.231   4.344  16.442  1.5333  0.5705  1.0909
 4070TIP3    H233702   6.238   4.207  16.506  1.8528  0.3172  0.5241
 4071TIP3   OH233703   2.598   4.369   3.602 -0.0576  0.0670 -0.9438
 4071TIP3    H133704   2.649   4.311   3.546  0.8449  1.0970 -1.2229
 4071TIP3    H233705   2.663   4.408   3.661 -0.4992  1.4955 -1.3822
 4072TIP3   OH233706   4.240   2.261  14.279 -0.3588 -0.4070 -0.2345
 4072TIP3    H133707   4.203   2.172  14.282 -1.5952  0.0314 -1.3631
 4072TIP3    H233708   4.165   2.317  14.258 -0.0894  1.2578  2.8192
 4073TIP3   OH233709   0.966   1.799   0.190 -0.5366 -0.3566 -0.0820
 4073TIP3    H133710   1.041   1.834   0.142 -1.7975  0.0745 -1.8421
 4073TIP3    H233711   0.914   1.876   0.212  0.5649 -0.3949  3.1488
 4074TIP3   OH233712   6.162   4.756   0.119  0.0470  0.0163  0.4568
 4074TIP3    H133713   6.151   4.826   0.055 -0.3001  1.0309  1.5832
 4074TIP3    H233714   6.254   4.731   0.112 -0.2172 -0.6600 -1.1669
 4075TIP3   OH233715   1.017   4.789   6.024 -0.1091  0.2732  0.3849
 4075TIP3    H133716   1.067   4.761   6.101 -2.2685 -0.2429  1.6891
 4075TIP3    H233717   0.958   4.856   6.056 -2.2843 -1.1618 -0.3675
 4076TIP3   OH233718   0.371   4.718   4.145  0.2210 -0.5891 -0.0849
 4076TIP3    H133719   0.348   4.775   4.218  0.1019 -1.9231  0.9708
 4076TIP3    H233720   0.286   4.688   4.111  0.2913 -0.5075 -0.3357
 4077TIP3   OH233721   4.368   2.005  14.059 -0.2631  0.2701 -0.0334
 4077TIP3    H133722   4.410   2.043  14.137 -0.9828 -0.7557  0.8849
 4077TIP3    H233723   4.313   1.935  14.093  0.5849 -1.2531 -1.6194
 4078TIP3   OH233724   2.872   2.690  11.196  0.0506 -0.3123 -0.0603
 4078TIP3    H133725   2.865   2.753  11.125  0.6945  0.1531  0.2702
 4078TIP3    H233726   2.782   2.670  11.220 -0.2983  2.9319  1.9334
 4079TIP3   OH233727   5.593   6.120   0.356  0.6113  0.0651 -0.2638
 4079TIP3    H133728   5.512   6.121   0.406 -0.2834 -0.4176 -1.6647
 4079TIP3    H233729   5.621   6.028   0.356 -0.1766 -0.2098 -1.8181
 4080TIP3   OH233730   2.815   3.200   5.792 -0.0681  0.8710  0.0286
 4080TIP3    H133731   2.870   3.174   5.865 -0.6029  1.6511  0.7260
 4080TIP3    H233732   2.777   3.284   5.819 -2.5051 -0.1609  0.0852
 4081TIP3   OH233733   5.854   1.873   3.656 -0.2419 -0.2352 -0.7046
 4081TIP3    H133734   5.888   1.800   3.604 -0.9112  0.3679 -2.0050
 4081TIP3    H233735   5.860   1.841   3.747 -1.7375 -2.4462 -1.2898
 4082TIP3   OH233736   4.219   2.917  15.835 -0.0654 -0.3877 -0.3332
 4082TIP3    H133737   4.186   2.832  15.808 -1.8904  0.6855 -1.7565
 4082TIP3    H233738   4.300   2.929  15.786 -0.6085 -0.6712 -1.3115
 4083TIP3   OH233739   3.799   0.843  16.085 -0.5347 -0.1728  0.0180
 4083TIP3    H133740   3.768   0.767  16.134  1.3159 -0.9795  0.0138
 4083TIP3    H233741   3.854   0.891  16.148  1.3632 -0.8877 -0.9985
 4084TIP3   OH233742   2.796   6.643   5.890 -0.4515  0.0207 -0.4838
 4084TIP3    H133743   2.820   6.651   5.982 -0.4153  1.4699 -0.5842
 4084TIP3    H233744   2.710   6.603   5.891 -1.2916  1.7120  0.3234
 4085TIP3   OH233745   1.733   0.999  15.922  0.4428  0.5466 -0.1434
 4085TIP3    H133746   1.741   0.914  15.879  0.1557 -0.0048  0.8640
 4085TIP3    H233747   1.823   1.028  15.935  0.5339  0.8572 -1.3491
 4086TIP3   OH233748   3.818   3.054   5.193 -0.3199 -0.1277 -0.5251
 4086TIP3    H133749   3.789   3.089   5.109 -1.5359  0.3919  0.0751
 4086TIP3    H233750   3.743   3.003   5.224 -0.2457  0.4445  0.6457
 4087TIP3   OH233751   3.514   4.640  17.343  0.3788 -0.6261  0.5335
 4087TIP3    H133752   3.550   4.689  17.269  1.3636 -1.0153  0.7398
 4087TIP3    H233753   3.448   4.583  17.304  0.1501 -0.0847  0.1111
 4088TIP3   OH233754   1.844   0.125  17.227  0.2627 -0.2091 -0.5708
 4088TIP3    H133755   1.755   0.160  17.222  0.0488 -0.6521  0.0043
 4088TIP3    H233756   1.874   0.145  17.315  0.4860 -0.6332 -0.5434
 4089TIP3   OH233757   1.678   5.802   3.767 -0.3549 -0.6876  0.5722
 4089TIP3    H133758   1.701   5.730   3.826  0.0592 -2.3656 -1.5321
 4089TIP3    H233759   1.762   5.836   3.736 -0.5676 -1.0007 -0.3803
 4090TIP3   OH233760   0.712   1.108   2.621 -0.6200  0.4286 -0.0541
 4090TIP3    H133761   0.700   1.065   2.536  3.1290 -0.0885 -0.4902
 4090TIP3    H233762   0.701   1.201   2.602  2.0175  0.5217 -1.6819
 4091TIP3   OH233763   2.001   0.320  16.869  0.3843 -0.1269 -0.2965
 4091TIP3    H133764   2.017   0.389  16.934  2.8267 -0.2570 -0.6673
 4091TIP3    H233765   2.015   0.363  16.785  1.5038 -0.9456 -0.5468
 4092TIP3   OH233766   2.471   1.937   1.396  0.5130  1.1159 -0.0021
 4092TIP3    H133767   2.463   1.983   1.313 -1.1590  0.3130 -0.3261
 4092TIP3    H233768   2.440   1.848   1.378  1.3864  0.5371  1.1789
 4093TIP3   OH233769   6.066   2.372  14.626 -0.5383 -0.5828 -0.2713
 4093TIP3    H133770   6.012   2.349  14.702 -1.1657 -0.3116 -0.6313
 4093TIP3    H233771   6.150   2.397  14.664 -1.1737  0.5875  0.4323
 4094TIP3   OH233772   4.215   1.389   2.067  0.1983 -0.4897  0.1171
 4094TIP3    H133773   4.241   1.478   2.043 -0.4468 -0.1418  0.6973
 4094TIP3    H233774   4.224   1.339   1.986 -0.7315  0.3917 -0.5473
 4095TIP3   OH233775   0.683   6.664   3.087 -0.8014 -0.2225 -0.0283
 4095TIP3    H133776   0.661   6.668   3.180  1.4878 -1.0851  0.6161
 4095TIP3    H233777   0.659   6.575   3.061 -1.3726 -0.0040 -0.2813
 4096TIP3   OH233778   3.203   4.379  16.598  0.1101 -0.3598  0.2560
 4096TIP3    H133779   3.141   4.425  16.542  2.5642 -1.3911 -3.6761
 4096TIP3    H233780   3.160   4.297  16.620 -1.2593  0.4636  0.7827
 4097TIP3   OH233781   0.220   0.695  11.951  0.0333 -0.1915 -0.2514
 4097TIP3    H133782   0.205   0.665  12.040 -0.0959 -2.3236 -0.9454
 4097TIP3    H233783   0.132   0.701  11.913  0.0629  1.0078 -0.1872
 4098TIP3   OH233784   4.158   1.727  13.879 -0.3850  0.3055  0.5601
 4098TIP3    H133785   4.185   1.807  13.834 -1.1051  0.7774  0.9433
 4098TIP3    H233786   4.203   1.657  13.832  0.0722  0.9131  0.0704
 4099TIP3   OH233787   3.734   5.971   2.763 -0.0413 -0.5260 -0.3236
 4099TIP3    H133788   3.735   5.914   2.839  0.6441  1.2077  1.0367
 4099TIP3    H233789   3.644   6.003   2.757  0.0527 -0.1416  0.2054
 4100TIP3   OH233790   1.900   4.001   1.592 -0.5537  0.0455 -0.6563
 4100TIP3    H133791   1.941   4.061   1.530  1.4518 -0.9041 -0.3415
 4100TIP3    H233792   1.874   3.925   1.540  1.4263 -0.8941 -0.3761
 4101TIP3   OH233793   3.967   2.140  10.759 -0.8168 -0.1394  0.7393
 4101TIP3    H133794   3.925   2.100  10.835 -0.9277 -0.0105  0.7471
 4101TIP3    H233795   3.910   2.119  10.686 -1.7867  1.4034  0.9893
 4102TIP3   OH233796   4.570   0.340  15.625 -0.0124 -0.5593  0.1811
 4102TIP3    H133797   4.621   0.260  15.637  1.6189  0.4037  0.0128
 4102TIP3    H233798   4.480   0.310  15.616  0.4917 -2.3300  0.6173
 4103TIP3   OH233799   6.527   4.984  15.961  0.1300  0.3477  0.1582
 4103TIP3    H133800   6.463   4.978  16.031 -2.0370 -1.4722 -1.7778
 4103TIP3    H233801   6.520   5.074  15.929 -1.0913  0.3374  0.3420
 4104TIP3   OH233802   2.664   1.590  16.424  0.1248  0.0873 -0.0052
 4104TIP3    H133803   2.752   1.596  16.388 -0.3102 -0.5630 -1.2375
 4104TIP3    H233804   2.639   1.498  16.413 -0.5361  0.1717  0.7180
 4105TIP3   OH233805   5.362   6.607  14.311 -0.1967 -0.2079 -0.2100
 4105TIP3    H133806   5.407   6.536  14.357  0.1409 -1.2370 -2.0190
 4105TIP3    H233807   5.418   6.627  14.236 -0.5963  1.5754 -0.0768
 4106TIP3   OH233808   5.897   4.122   0.330 -0.0371  0.3090  0.1976
 4106TIP3    H133809   5.809   4.093   0.309  0.5945 -2.0762  0.5953
 4106TIP3    H233810   5.887   4.214   0.355 -2.3652  0.1143  0.1535
 4107TIP3   OH233811   5.283   3.237   1.354  0.3856  0.1185 -0.6148
 4107TIP3    H133812   5.225   3.284   1.295 -0.6393  0.9013  0.9391
 4107TIP3    H233813   5.269   3.145   1.335 -2.2229  0.2180  0.4059
 4108TIP3   OH233814   5.616   4.639  14.836  0.5313 -0.1867  0.0043
 4108TIP3    H133815   5.643   4.570  14.775 -1.2304  0.1194 -1.2123
 4108TIP3    H233816   5.554   4.692  14.785 -1.7457 -0.4487  2.3226
 4109TIP3   OH233817   0.063   2.211  11.626  0.2458 -0.1628  0.1697
 4109TIP3    H133818   0.097   2.281  11.681  0.0519 -0.6111  0.8666
 4109TIP3    H233819   0.136   2.190  11.567  0.9926 -0.6882  1.2409
 4110TIP3   OH233820   3.016   3.739   1.151 -0.9990 -0.3053  0.7490
 4110TIP3    H133821   2.931   3.737   1.108  0.0854  0.1612 -1.5306
 4110TIP3    H233822   3.063   3.663   1.117  0.8057  1.4809 -1.0206
 4111TIP3   OH233823   6.237   6.337   3.733 -0.0707  0.3654  0.4877
 4111TIP3    H133824   6.251   6.419   3.780 -2.7906  0.8181  0.6519
 4111TIP3    H233825   6.147   6.313   3.753 -0.2509 -1.1734 -1.8286
 4112TIP3   OH233826   5.383   5.177  15.027 -0.2172  0.3541  0.4829
 4112TIP3    H133827   5.463   5.124  15.040 -1.1659 -1.2050  0.2558
 4112TIP3    H233828   5.318   5.114  14.995 -1.4865  1.6412  0.4416
 4113TIP3   OH233829   4.165   6.732  14.371  0.0007 -0.3917  0.1597
 4113TIP3    H133830   4.129   6.731  14.460  0.7445 -1.2984  0.4654
 4113TIP3    H233831   4.100   6.684  14.319  0.3338 -1.2800  0.5449
 4114TIP3   OH233832   6.329   0.191  15.371  0.0542  0.1872  0.1963
 4114TIP3    H133833   6.286   0.231  15.296  1.8278  0.9426 -0.4550
 4114TIP3    H233834   6.259   0.180  15.436 -1.1135  1.3028 -0.8314
 4115TIP3   OH233835   4.277   5.286  16.952 -0.3553 -0.4672  0.4008
 4115TIP3    H133836   4.324   5.237  17.019 -0.0482 -0.2033  0.3796
 4115TIP3    H233837   4.191   5.245  16.948 -0.5901 -0.1072  1.3920
 4116TIP3   OH233838   5.288   2.755  14.757  0.4915 -0.1286 -0.8034
 4116TIP3    H133839   5.197   2.777  14.775  0.3184 -0.8407 -0.8010
 4116TIP3    H233840   5.317   2.704  14.833  0.3985 -1.2914 -1.5180
 4117TIP3   OH233841   0.237   1.599  11.848  0.1226  0.2544 -0.0920
 4117TIP3    H133842   0.190   1.680  11.829 -2.7626 -0.3537  3.3032
 4117TIP3    H233843   0.318   1.628  11.892  1.2924  1.2422 -2.6899
 4118TIP3   OH233844   3.739   1.106  14.792 -0.0597 -1.1795  0.1145
 4118TIP3    H133845   3.789   1.134  14.869  0.0959  0.6696 -0.6039
 4118TIP3    H233846   3.698   1.186  14.760  0.8332 -1.6487 -2.4140
 4119TIP3   OH233847   1.180   3.501   2.798 -0.3569  0.6174 -0.6070
 4119TIP3    H133848   1.188   3.508   2.893 -0.8356  1.0485 -0.5947
 4119TIP3    H233849   1.265   3.529   2.764 -0.0067 -0.0425 -0.2882
 4120TIP3   OH233850   6.632   6.490   0.084  0.2773 -0.3161 -0.1425
 4120TIP3    H133851   6.671   6.523   0.165 -0.7518  1.5983 -0.3754
 4120TIP3    H233852   6.542   6.468   0.108 -0.7322  2.3524 -1.1672
 4121TIP3   OH233853   1.073   4.680  13.640  0.2863  0.5827  0.2941
 4121TIP3    H133854   1.089   4.680  13.546 -1.4124 -0.7813 -0.0363
 4121TIP3    H233855   1.155   4.646  13.678  1.3631  2.1072 -0.5576
 4122TIP3   OH233856   3.412   0.339   1.031 -0.0077 -0.0454 -0.0359
 4122TIP3    H133857   3.382   0.271   1.091  1.6422 -2.6225 -1.9717
 4122TIP3    H233858   3.507   0.340   1.041  0.0930  1.2799 -0.8419
 4123TIP3   OH233859   5.698   2.797   0.706  0.2709  0.4284 -0.2839
 4123TIP3    H133860   5.660   2.885   0.709 -0.4383  0.2409 -2.2974
 4123TIP3    H233861   5.754   2.797   0.629  0.8036 -0.6949  0.0794
 4124TIP3   OH233862   5.223   6.627  14.769  0.4130 -0.3771 -0.5247
 4124TIP3    H133863   5.253   6.587  14.687  1.9906  1.9045 -1.1932
 4124TIP3    H233864   5.298   6.680  14.798 -1.1342  1.2279  0.7937
 4125TIP3   OH233865   6.310   2.826   5.105  0.3298  0.8150  0.1068
 4125TIP3    H133866   6.348   2.856   5.187 -0.6776 -0.5955  1.1475
 4125TIP3    H233867   6.374   2.764   5.070 -0.3230 -0.4865  1.1372
 4126TIP3   OH233868   1.699   6.648   1.585  0.2941 -0.0416  0.1419
 4126TIP3    H133869   1.692   6.632   1.679 -0.5867 -0.7034 -0.0197
 4126TIP3    H233870   1.764   6.584   1.555  3.7720  2.8254  0.8742
 4127TIP3   OH233871   2.423   6.154  13.530  0.4330  0.9382 -0.0402
 4127TIP3    H133872   2.481   6.117  13.598  0.7020  1.9105  0.2754
 4127TIP3    H233873   2.444   6.105  13.451 -2.5785 -2.9935  1.2707
 4128TIP3   OH233874   1.627   1.894   6.200  0.2906 -0.0582 -0.2694
 4128TIP3    H133875   1.658   1.984   6.189 -1.0168  0.6233  1.1659
 4128TIP3    H233876   1.547   1.890   6.148  0.4794 -0.4766 -0.5307
 4129TIP3   OH233877   0.547   4.629   3.457  0.0065  0.1855  0.4072
 4129TIP3    H133878   0.548   4.610   3.550  0.5054  1.2882  0.6385
 4129TIP3    H233879   0.636   4.657   3.437 -0.5422  1.7550  0.0040
 4130TIP3   OH233880   3.694   5.968   0.035 -0.1316 -0.2632 -0.0404
 4130TIP3    H133881   3.666   6.060   0.034  1.6503  0.3128  0.0211
 4130TIP3    H233882   3.695   5.942  -0.057  3.0176  1.0121 -0.4693
 4131TIP3   OH233883   2.360   6.059   3.538  0.2710  0.0220 -0.2132
 4131TIP3    H133884   2.400   6.038   3.622  1.0964  1.7639 -0.1321
 4131TIP3    H233885   2.401   5.998   3.476 -1.4666 -2.3394  0.8174
 4132TIP3   OH233886   6.430   3.424  11.260  0.5983 -0.0919 -0.0322
 4132TIP3    H133887   6.407   3.378  11.179  2.1204 -0.9667 -0.0035
 4132TIP3    H233888   6.462   3.509  11.231 -1.1610  0.5686 -0.1609
 4133TIP3   OH233889   5.362   5.487  12.058  0.0072 -0.4380  0.6456
 4133TIP3    H133890   5.403   5.451  11.979  0.1260 -0.6442  0.7997
 4133TIP3    H233891   5.367   5.581  12.047 -1.0770 -0.4583 -0.1633
 4134TIP3   OH233892   0.133   2.390   5.647 -0.1096 -0.7050  0.1364
 4134TIP3    H133893   0.088   2.461   5.600  2.4839  0.1247 -1.3549
 4134TIP3    H233894   0.127   2.414   5.739  0.6426  1.4949 -0.3258
 4135TIP3   OH233895   4.594   2.394  15.968 -0.0792 -0.1511 -0.0507
 4135TIP3    H133896   4.669   2.387  16.026 -0.2108  1.8290  0.4474
 4135TIP3    H233897   4.627   2.369  15.882  0.7107 -0.8849  0.4559
 4136TIP3   OH233898   2.682   0.754   2.568  0.1866 -0.2346 -0.1751
 4136TIP3    H133899   2.768   0.716   2.551  0.2138 -0.0559 -0.4515
 4136TIP3    H233900   2.687   0.842   2.531 -0.4621 -0.5953 -1.1817
 4137TIP3   OH233901   5.042   4.313   3.593 -0.0330  0.0818 -0.0941
 4137TIP3    H133902   4.987   4.312   3.515 -0.1968 -0.1351  0.0226
 4137TIP3    H233903   4.990   4.361   3.658 -0.3370 -0.6158  0.1942
 4138TIP3   OH233904   5.297   1.756  12.201  0.0224 -0.4955 -0.3827
 4138TIP3    H133905   5.389   1.733  12.217 -0.0410  0.1876  1.0492
 4138TIP3    H233906   5.291   1.849  12.223 -1.1481 -0.6733  0.1305
 4139TIP3   OH233907   5.191   5.957  15.688 -0.1973  0.1429  0.1890
 4139TIP3    H133908   5.238   6.011  15.624  0.9910  0.0729  0.9670
 4139TIP3    H233909   5.178   5.873  15.644 -1.7662  0.8977 -0.9108
 4140TIP3   OH233910   4.324   4.680   6.434 -0.4421 -0.0245 -0.8521
 4140TIP3    H133911   4.236   4.656   6.405 -0.8604  1.0140 -0.4556
 4140TIP3    H233912   4.325   4.775   6.432  0.0240  0.0452  1.0144
 4141TIP3   OH233913   5.171   1.139  13.085  0.1617  0.3427  0.5719
 4141TIP3    H133914   5.131   1.225  13.093 -0.8356 -0.2394  2.4367
 4141TIP3    H233915   5.205   1.136  12.996 -0.2117  2.4656  0.3229
 4142TIP3   OH233916   2.191   3.705   5.836  0.0515 -0.4767  0.0481
 4142TIP3    H133917   2.256   3.637   5.825  0.7029  0.0962  0.3060
 4142TIP3    H233918   2.194   3.754   5.754  0.2293 -0.2073  0.2153
 4143TIP3   OH233919   1.776   6.091  16.453 -0.1245  0.7109  0.2219
 4143TIP3    H133920   1.811   6.134  16.531 -0.4733  1.8896 -0.2508
 4143TIP3    H233921   1.853   6.069  16.402  0.0543  0.9756  0.3709
 4144TIP3   OH233922   5.367   5.134  15.611  0.2057  0.1500 -0.3050
 4144TIP3    H133923   5.369   5.229  15.602  0.6948  0.1030 -0.7396
 4144TIP3    H233924   5.365   5.101  15.521 -0.6238 -0.2425 -0.1497
 4145TIP3   OH233925   0.698   0.338   0.530  0.2098  0.1834 -0.1688
 4145TIP3    H133926   0.783   0.367   0.497 -1.1459  0.7405 -3.5970
 4145TIP3    H233927   0.654   0.418   0.558  0.7298 -0.0966  1.5411
 4146TIP3   OH233928   4.908   3.204   4.052 -0.1539 -0.3782  0.1992
 4146TIP3    H133929   4.980   3.213   4.115  0.9679 -1.6075 -0.8490
 4146TIP3    H233930   4.937   3.251   3.974  1.0082 -3.4016 -1.3727
 4147TIP3   OH233931   0.380   5.943   2.665  0.5853  0.3877  0.0493
 4147TIP3    H133932   0.409   5.853   2.648  0.9147  0.4889  0.0864
 4147TIP3    H233933   0.300   5.952   2.613  2.2358  1.1161 -2.4784
 4148TIP3   OH233934   0.682   0.160  15.352 -0.0521 -0.3231 -0.2002
 4148TIP3    H133935   0.763   0.109  15.358 -0.6541 -1.2353  0.3095
 4148TIP3    H233936   0.706   0.235  15.298  1.5687  0.2687  1.2265
 4149TIP3   OH233937   4.548   4.907   2.434  0.3132  0.8573 -0.2594
 4149TIP3    H133938   4.471   4.861   2.399  1.8081 -0.8760 -1.4333
 4149TIP3    H233939   4.562   4.979   2.372  0.2878  0.5028 -0.6848
 4150TIP3   OH233940   2.533   0.588   6.330 -0.1335  0.2464 -0.2087
 4150TIP3    H133941   2.495   0.664   6.286  0.8099 -0.9840 -3.4780
 4150TIP3    H233942   2.464   0.523   6.330 -0.0872  0.1969  0.0219
 4151TIP3   OH233943   1.743   2.221   2.393  0.9033 -0.0787 -0.1910
 4151TIP3    H133944   1.793   2.302   2.403  0.6884 -0.1076  1.4050
 4151TIP3    H233945   1.777   2.182   2.313  1.4733  1.2602 -0.6382
 4152TIP3   OH233946   3.531   1.144   2.746  0.7020 -0.5174  0.3759
 4152TIP3    H133947   3.480   1.205   2.800 -0.5007  0.5102 -1.7610
 4152TIP3    H233948   3.480   1.063   2.748  0.8280 -0.5807  1.0316
 4153TIP3   OH233949   2.703   0.222  12.165 -0.0608  0.3398 -0.5377
 4153TIP3    H133950   2.647   0.285  12.120 -0.1028  0.0026 -0.9650
 4153TIP3    H233951   2.773   0.204  12.103  0.3337  0.4915 -0.1417
 4154TIP3   OH233952   3.136   1.590  11.897 -0.3917 -0.0288 -0.6052
 4154TIP3    H133953   3.113   1.541  11.818  1.6006 -1.9955 -0.0812
 4154TIP3    H233954   3.141   1.523  11.965  1.1181  1.1203  0.4654
 4155TIP3   OH233955   4.759   0.424   3.192 -0.1200 -0.3745  1.0952
 4155TIP3    H133956   4.682   0.391   3.237 -0.2314  0.1326  1.2712
 4155TIP3    H233957   4.828   0.424   3.258 -0.3196  0.5087  1.3149
 4156TIP3   OH233958   1.587   0.090  15.860  0.3398 -0.2210  0.1201
 4156TIP3    H133959   1.551   0.047  15.782 -2.4966  0.2028  1.0872
 4156TIP3    H233960   1.551   0.040  15.933  1.8760  0.2029  1.2220
 4157TIP3   OH233961   5.929   3.962   3.238  1.0724 -0.6196 -0.1294
 4157TIP3    H133962   5.964   4.017   3.308  0.6847 -1.8530  1.1043
 4157TIP3    H233963   5.834   3.963   3.252  0.8131  0.5109 -1.7453
 4158TIP3   OH233964   0.253   2.290  15.561 -0.0260  0.3942 -0.6801
 4158TIP3    H133965   0.255   2.380  15.528  1.5829  0.8595  0.5602
 4158TIP3    H233966   0.341   2.275  15.595 -0.5497 -1.3262  0.0282
 4159TIP3   OH233967   2.035   6.340  11.980  0.1182 -0.1038  0.2084
 4159TIP3    H133968   1.987   6.422  11.973  0.5330  0.1228  0.0472
 4159TIP3    H233969   1.972   6.273  11.951 -0.4163  0.0823  0.9171
 4160TIP3   OH233970   1.224   3.373  11.152 -0.5333 -0.2068 -0.2457
 4160TIP3    H133971   1.292   3.393  11.087  0.2312  0.2135  0.6626
 4160TIP3    H233972   1.253   3.418  11.231 -1.1347 -1.2152  0.5650
 4161TIP3   OH233973   5.789   4.318   3.351  0.2856  0.2079 -0.1362
 4161TIP3    H133974   5.783   4.274   3.436 -0.4634  1.5788  0.5618
 4161TIP3    H233975   5.783   4.412   3.372 -0.3779  0.5576 -1.7335
 4162TIP3   OH233976   0.379   1.735   2.272 -0.2793  0.3872  0.0492
 4162TIP3    H133977   0.290   1.711   2.245 -0.0449  1.4196 -1.7653
 4162TIP3    H233978   0.431   1.657   2.256 -0.8606 -0.2751  1.2641
 4163TIP3   OH233979   2.694   5.696   3.710 -0.0494  0.1199  0.0113
 4163TIP3    H133980   2.692   5.723   3.619 -1.4325 -1.0934 -0.3753
 4163TIP3    H233981   2.692   5.600   3.706  1.4586 -0.0024  1.3163
 4164TIP3   OH233982   4.903   1.577  16.184  0.1662 -0.3766 -0.2299
 4164TIP3    H133983   4.823   1.597  16.136 -0.4278 -0.1162  0.8320
 4164TIP3    H233984   4.951   1.660  16.186 -0.0641 -0.2480  0.0849
 4165TIP3   OH233985   0.591   5.169  16.735  0.2890 -0.0573  0.5399
 4165TIP3    H133986   0.652   5.243  16.741  1.6978 -1.2320  1.4682
 4165TIP3    H233987   0.568   5.150  16.826 -1.4765  0.3298  0.2094
 4166TIP3   OH233988   6.435   5.206  15.370 -0.5518  0.5257  0.3428
 4166TIP3    H133989   6.380   5.159  15.434 -0.8963  3.0856  2.0656
 4166TIP3    H233990   6.373   5.237  15.304 -0.5115 -0.2236 -0.0626
 4167TIP3   OH233991   4.087   5.535   1.900  0.3765  0.2427 -0.2521
 4167TIP3    H133992   4.030   5.496   1.966 -0.3436 -1.0225 -1.5699
 4167TIP3    H233993   4.046   5.514   1.816  2.7921 -0.8477 -1.2749
 4168TIP3   OH233994   4.189   0.267   3.747  0.0581  0.1555  1.0811
 4168TIP3    H133995   4.172   0.246   3.655 -0.8482  0.6120  1.1336
 4168TIP3    H233996   4.124   0.218   3.796  0.8921 -0.5253  1.5372
 4169TIP3   OH233997   6.521   3.879  15.626  0.4387  0.2125  0.5909
 4169TIP3    H133998   6.602   3.843  15.662  1.0950  0.9701 -0.0839
 4169TIP3    H233999   6.510   3.963  15.670  1.5148  1.3765 -1.2531
 4170TIP3   OH234000   0.912   1.930  11.811  0.2882 -0.0349 -0.2888
 4170TIP3    H134001   0.879   1.843  11.790  2.1959 -1.5947  2.4551
 4170TIP3    H234002   0.995   1.937  11.763  0.1813  0.2501 -0.4361
 4171TIP3   OH234003   0.367   0.154  14.333 -0.5346 -0.4296 -0.3641
 4171TIP3    H134004   0.337   0.149  14.423  0.5942  1.9659  0.2404
 4171TIP3    H234005   0.455   0.191  14.339 -0.9216  1.0558 -2.4675
 4172TIP3   OH234006   5.050   3.358   0.907 -0.0176  0.0065 -0.0940
 4172TIP3    H134007   5.049   3.382   0.814  0.7409  1.1069  0.1660
 4172TIP3    H234008   5.142   3.365   0.933 -0.2711  0.0411  0.8254
 4173TIP3   OH234009   4.248   6.138  16.295 -0.5696 -0.2754  0.6766
 4173TIP3    H134010   4.225   6.092  16.214 -0.4467  0.8182 -0.0005
 4173TIP3    H234011   4.342   6.121  16.307 -0.4905 -0.0851  0.3419
 4174TIP3   OH234012   2.330   6.654  13.027  0.3879  0.5755 -0.2655
 4174TIP3    H134013   2.350   6.687  12.940 -0.3081  1.6290 -0.0569
 4174TIP3    H234014   2.414   6.655  13.073  0.3718  2.4782 -0.1648
 4175TIP3   OH234015   1.313   3.860   4.062 -0.1551  0.4598 -0.0181
 4175TIP3    H134016   1.367   3.781   4.060  2.7279  2.2481  0.4112
 4175TIP3    H234017   1.278   3.863   4.151 -1.5581 -1.0365 -0.4761
 4176TIP3   OH234018   5.200   2.369  13.060 -0.3782 -0.0196  0.5192
 4176TIP3    H134019   5.135   2.340  13.123 -1.7488 -0.2943 -0.9832
 4176TIP3    H234020   5.252   2.291  13.041  0.3152  0.1590  1.5816
 4177TIP3   OH234021   2.675   4.683   1.600 -1.2653 -0.3256  0.3590
 4177TIP3    H134022   2.657   4.652   1.512  0.5433  0.1935 -0.2385
 4177TIP3    H234023   2.665   4.605   1.655  1.0125 -1.5393 -0.8058
 4178TIP3   OH234024   1.532   4.914  14.680  0.3252  0.2900  0.3012
 4178TIP3    H134025   1.574   5.000  14.677  1.0871 -0.0534  0.6092
 4178TIP3    H234026   1.446   4.931  14.717  0.7108  0.8432  0.9935
 4179TIP3   OH234027   2.486   0.721   1.120 -0.1028 -0.6625  0.2884
 4179TIP3    H134028   2.550   0.714   1.192  0.0981 -0.9034  0.0893
 4179TIP3    H234029   2.492   0.637   1.075  0.4602 -0.1822 -0.5784
 4180TIP3   OH234030   2.155   5.991  11.727 -1.1793 -0.2431  0.1995
 4180TIP3    H134031   2.097   5.922  11.694  0.1309 -1.3641  0.1641
 4180TIP3    H234032   2.095   6.055  11.765 -2.4445 -1.4886  0.4217
 4181TIP3   OH234033   0.713   6.577  14.970  0.0867  0.3086  0.2707
 4181TIP3    H134034   0.771   6.651  14.955  0.6921 -0.3879 -0.9910
 4181TIP3    H234035   0.639   6.613  15.019 -0.7076  2.2468 -2.1376
 4182TIP3   OH234036   1.105   2.091  14.666  0.4985  0.2860 -0.2492
 4182TIP3    H134037   1.131   2.070  14.576  0.6084 -1.9534  0.2604
 4182TIP3    H234038   1.107   2.008  14.712 -1.4087  1.0611  1.3867
 4183TIP3   OH234039   1.452   1.313   1.206  0.4578 -0.2507 -0.2176
 4183TIP3    H134040   1.481   1.234   1.161  1.4282 -0.4526  0.7255
 4183TIP3    H234041   1.364   1.292   1.236 -1.1774  0.6805 -3.8776
 4184TIP3   OH234042   3.500   0.188  10.624 -0.3528  0.3783  0.4560
 4184TIP3    H134043   3.494   0.130  10.700 -0.6362  0.4221  0.4691
 4184TIP3    H234044   3.410   0.195  10.592 -0.2178  0.2708  0.0491
 4185TIP3   OH234045   5.206   1.430   3.444  0.4658 -0.3233  0.0043
 4185TIP3    H134046   5.301   1.422   3.453  0.2959 -0.0067  2.9176
 4185TIP3    H234047   5.172   1.346   3.476 -0.2859 -0.0287 -0.0125
 4186TIP3   OH234048   2.222   4.773   1.004  0.4820 -0.9171 -0.2333
 4186TIP3    H134049   2.300   4.815   1.039 -0.6094  1.6253 -0.6721
 4186TIP3    H234050   2.149   4.821   1.042 -0.8370 -1.7369 -1.6085
 4187TIP3   OH234051   3.765   6.132  15.543  0.3033  0.3650  0.1246
 4187TIP3    H134052   3.735   6.159  15.456 -0.6694  1.1391  0.6735
 4187TIP3    H234053   3.796   6.043  15.531  1.8693  1.0475 -1.3792
 4188TIP3   OH234054   4.047   5.100  16.773 -0.1368 -0.4953 -0.0797
 4188TIP3    H134055   4.134   5.093  16.733  0.1933 -0.2583  0.5734
 4188TIP3    H234056   3.987   5.068  16.707  0.1269  2.2072 -1.7757
 4189TIP3   OH234057   1.276   3.948   1.986 -0.6041 -0.4064 -0.7139
 4189TIP3    H134058   1.281   4.037   2.021  2.4205 -1.2458  1.4550
 4189TIP3    H234059   1.324   3.953   1.903  2.0129 -0.3668  0.6676
 4190TIP3   OH234060   5.680   4.350  15.627  0.1861 -0.7303 -0.3091
 4190TIP3    H134061   5.691   4.267  15.580  2.0327 -1.2505  0.9422
 4190TIP3    H234062   5.701   4.329  15.718 -1.8696  0.5771  0.5391
 4191TIP3   OH234063   4.893   6.343   6.384  0.5677 -0.0433  0.2745
 4191TIP3    H134064   4.954   6.274   6.360  1.4545  1.0566 -0.7318
 4191TIP3    H234065   4.935   6.389   6.457  0.2239 -0.2326  0.5956
 4192TIP3   OH234066   5.465   2.073   2.097  0.5970  0.1354 -0.0331
 4192TIP3    H134067   5.429   2.078   2.185  0.1549 -0.7858 -0.1523
 4192TIP3    H234068   5.503   1.985   2.091  0.5399  0.1550 -0.7889
 4193TIP3   OH234069   0.408   1.385  13.459  0.1831 -0.3362  0.2142
 4193TIP3    H134070   0.450   1.365  13.375 -1.6500 -0.4223 -0.7491
 4193TIP3    H234071   0.424   1.307  13.512  1.2792 -0.3300 -0.0793
 4194TIP3   OH234072   6.660   2.273   1.565  0.3215  0.4430 -0.1577
 4194TIP3    H134073   6.685   2.313   1.648  0.3784 -0.7443  0.4279
 4194TIP3    H234074   6.738   2.278   1.511  1.3418 -1.6141  1.0132
 4195TIP3   OH234075   1.172   1.305  12.396  0.0375  0.0880 -0.9701
 4195TIP3    H134076   1.231   1.322  12.323 -1.1354  0.7885 -1.7886
 4195TIP3    H234077   1.210   1.356  12.469 -0.0995  1.3852 -1.7649
 4196TIP3   OH234078   1.627   5.018   2.406  0.6767  0.2147 -0.1540
 4196TIP3    H134079   1.655   4.929   2.427 -0.5324 -0.3493 -0.8465
 4196TIP3    H234080   1.533   5.011   2.391  1.0830  0.8499 -3.9765
 4197TIP3   OH234081   1.826   2.015   3.599 -0.5694  0.0312 -0.3792
 4197TIP3    H134082   1.896   1.965   3.643  0.0577  2.9165  2.2809
 4197TIP3    H234083   1.748   1.995   3.651 -0.1032  2.4034  1.3986
 4198TIP3   OH234084   6.384   4.148   6.038 -0.1537 -0.5076  0.2242
 4198TIP3    H134085   6.361   4.207   6.110 -2.0468  0.7855 -1.3402
 4198TIP3    H234086   6.479   4.143   6.041 -0.0508  1.1086  1.5754
 4199TIP3   OH234087   4.164   4.475   4.727  0.0918 -0.0489 -0.4751
 4199TIP3    H134088   4.202   4.446   4.810 -1.1951 -0.9239 -0.1571
 4199TIP3    H234089   4.168   4.570   4.730 -1.4805  0.0122  1.3738
 4200TIP3   OH234090   2.489   6.720   2.325  0.1309  0.0233  0.0876
 4200TIP3    H134091   2.396   6.700   2.333 -0.3346  0.6466 -2.8004
 4200TIP3    H234092   2.533   6.648   2.371 -1.7347 -0.4571  1.2211
 4201TIP3   OH234093   0.759   4.576   4.838 -0.4864  0.3578  0.4574
 4201TIP3    H134094   0.722   4.500   4.883  0.4699 -0.8581 -0.7280
 4201TIP3    H234095   0.691   4.604   4.777  0.0251 -1.1189 -0.8568
 4202TIP3   OH234096   1.622   3.184  14.071  0.0174 -0.1572  0.3278
 4202TIP3    H134097   1.659   3.111  14.122  1.3808  0.4542  0.2402
 4202TIP3    H234098   1.689   3.252  14.075 -0.4378  0.3994 -1.1686
 4203TIP3   OH234099   6.690   4.165  10.834 -0.2551  0.1262  0.7852
 4203TIP3    H134100   6.744   4.240  10.812 -1.8219  0.8722 -0.7346
 4203TIP3    H234101   6.740   4.119  10.902  1.3286  1.8194  0.8544
 4204TIP3   OH234102   0.144   6.515  12.422  0.1472  0.1588 -0.2295
 4204TIP3    H134103   0.111   6.526  12.512  1.5915 -0.8325  0.4491
 4204TIP3    H234104   0.067   6.489  12.372 -0.1899 -2.0737  1.2979
 4205TIP3   OH234105   4.873   4.901  15.635 -0.1601  0.1519  0.7748
 4205TIP3    H134106   4.906   4.915  15.724 -1.5337  0.2388  1.2959
 4205TIP3    H234107   4.785   4.939  15.636 -0.1261  0.3304 -0.6875
 4206TIP3   OH234108   2.947   4.014   0.089  0.6474 -0.3916 -0.3297
 4206TIP3    H134109   2.907   3.941   0.135 -1.2632 -0.3718 -1.8349
 4206TIP3    H234110   2.893   4.026   0.011  1.6222  1.8585 -0.7489
 4207TIP3   OH234111   3.948   4.286   5.017 -0.0469  0.2373 -0.3434
 4207TIP3    H134112   3.858   4.293   5.047  0.2269  1.6161  0.2569
 4207TIP3    H234113   3.947   4.324   4.929  0.0111  0.6405 -0.1736
 4208TIP3   OH234114   0.182   1.002   5.004  0.2319  0.3603  0.2645
 4208TIP3    H134115   0.108   0.969   4.953  0.9377 -1.2120  0.1886
 4208TIP3    H234116   0.259   0.963   4.961  0.7724 -4.4433  4.6329
 4209TIP3   OH234117   6.719   1.553   6.770 -0.7772  0.5055  0.7297
 4209TIP3    H134118   6.749   1.642   6.753 -0.4408  0.1258 -0.8516
 4209TIP3    H234119   6.795   1.498   6.749 -0.4752 -0.1241  3.1071
 4210TIP3   OH234120   4.122   1.969   3.755 -0.4278 -0.8829 -0.0654
 4210TIP3    H134121   4.165   1.894   3.713 -0.7395 -0.8287 -0.4846
 4210TIP3    H234122   4.070   2.009   3.685  3.0570  2.3320 -1.1814
 4211TIP3   OH234123   5.031   3.364  13.520  0.0644  0.0581  0.4376
 4211TIP3    H134124   5.086   3.363  13.598  1.8126 -0.6703 -0.7353
 4211TIP3    H234125   5.056   3.286  13.471 -1.5689  0.0558 -0.4847
 4212TIP3   OH234126   5.910   2.641  16.163 -0.4729  0.2746 -0.6538
 4212TIP3    H134127   5.863   2.628  16.245 -0.4249  2.1803 -0.2876
 4212TIP3    H234128   5.997   2.673  16.189  0.0766 -0.5210 -1.4212
 4213TIP3   OH234129   6.357   5.831  16.271 -0.1042  0.3718 -0.1690
 4213TIP3    H134130   6.292   5.901  16.270  0.0495  0.5147 -0.2776
 4213TIP3    H234131   6.325   5.767  16.208 -1.6210 -0.9404  1.8096
 4214TIP3   OH234132   2.654   4.523  12.821 -0.2636 -0.5445  0.0046
 4214TIP3    H134133   2.599   4.595  12.851  1.1957  0.6148  0.0045
 4214TIP3    H234134   2.607   4.444  12.848 -1.7768  0.3887  0.2251
 4215TIP3   OH234135   5.170   4.602  16.781 -0.2936  0.1665 -0.1234
 4215TIP3    H134136   5.235   4.673  16.776  0.8172 -0.6822  1.4472
 4215TIP3    H234137   5.156   4.577  16.690  0.9695  0.9270 -0.5578
 4216TIP3   OH234138   1.941   2.845   5.887 -0.0879 -0.2765  0.1440
 4216TIP3    H134139   1.880   2.776   5.913 -0.3271  0.0416  0.4328
 4216TIP3    H234140   1.996   2.859   5.965 -1.0367  0.9304  0.6304
 4217TIP3   OH234141   1.097   2.109   3.038  0.0523 -0.4588 -0.2420
 4217TIP3    H134142   1.071   2.022   3.069  1.2351 -0.8081 -0.1970
 4217TIP3    H234143   1.028   2.167   3.069 -0.4079 -1.2831  0.3005
 4218TIP3   OH234144   2.966   4.674  14.613 -0.6734  0.3504  0.0197
 4218TIP3    H134145   3.051   4.669  14.570 -0.8657  1.9620 -0.6258
 4218TIP3    H234146   2.982   4.727  14.691 -0.8376 -0.4557  0.6161
 4219TIP3   OH234147   6.206   3.981  16.192 -0.1481  0.3199 -0.0951
 4219TIP3    H134148   6.252   3.907  16.152  0.4994 -0.8253  2.5753
 4219TIP3    H234149   6.114   3.968  16.165  0.3781  0.2231 -1.9966
 4220TIP3   OH234150   0.731   5.612  12.334 -0.8204  0.2594  0.5302
 4220TIP3    H134151   0.798   5.566  12.284 -1.1922  0.2046  0.0802
 4220TIP3    H234152   0.742   5.580  12.424 -0.3439  0.1384  0.4304
 4221TIP3   OH234153   5.684   4.674   5.468  0.1519 -0.4421  0.1943
 4221TIP3    H134154   5.594   4.706   5.473  0.0626 -0.6706  0.0734
 4221TIP3    H234155   5.729   4.718   5.539  0.0260 -0.0599  0.0394
 4222TIP3   OH234156   1.211   3.847   3.651 -0.2938  0.2344 -0.0583
 4222TIP3    H134157   1.191   3.900   3.574 -0.5428  0.2271  0.0009
 4222TIP3    H234158   1.149   3.774   3.646  0.7843 -0.6652 -0.7565
 4223TIP3   OH234159   6.240   5.425  12.980 -0.1366  0.0420 -0.2370
 4223TIP3    H134160   6.179   5.399  13.048 -0.7246 -0.6565 -1.0056
 4223TIP3    H234161   6.251   5.346  12.926  2.3881 -0.2425  0.5429
 4224TIP3   OH234162   0.292   1.439  11.101  0.3543 -0.0746  0.8335
 4224TIP3    H134163   0.376   1.412  11.140 -0.3894 -1.6926  1.3892
 4224TIP3    H234164   0.275   1.525  11.139 -0.2931 -1.5137  4.2138
 4225TIP3   OH234165   6.755   0.134   1.064  0.9691  0.3750 -0.2535
 4225TIP3    H134166   6.752   0.225   1.036  1.5585  0.6288  0.4615
 4225TIP3    H234167   6.679   0.123   1.121 -0.0601 -0.0603 -1.6611
 4226TIP3   OH234168   5.037   1.100   2.832 -0.0048 -0.2288  0.1567
 4226TIP3    H134169   5.027   1.011   2.865  0.0741 -0.3051 -0.0245
 4226TIP3    H234170   4.984   1.154   2.891  0.2688 -0.3405  0.5103
 4227TIP3   OH234171   0.189   5.536   1.548  0.3216 -0.1015 -0.2266
 4227TIP3    H134172   0.258   5.480   1.584 -0.0320 -0.4255 -0.0428
 4227TIP3    H234173   0.108   5.493   1.576  0.0500  0.4167 -0.2256
 4228TIP3   OH234174   3.086   2.546  13.305  0.8295 -0.1513 -0.0982
 4228TIP3    H134175   3.152   2.481  13.282  0.1307 -0.2270 -2.0564
 4228TIP3    H234176   3.136   2.616  13.347  2.1731 -0.2772 -1.3697
 4229TIP3   OH234177   5.671   4.806   0.813  0.0744  0.0056  0.3971
 4229TIP3    H134178   5.750   4.757   0.789 -0.3061  0.4178 -1.9238
 4229TIP3    H234179   5.600   4.758   0.771 -0.4793  1.5833 -0.5331
 4230TIP3   OH234180   5.520   3.536  16.787  0.2276 -0.6331  0.5139
 4230TIP3    H134181   5.552   3.541  16.697  2.3333 -2.6172  1.0515
 4230TIP3    H234182   5.560   3.611  16.830 -2.1159  1.3011 -0.4819
 4231TIP3   OH234183   0.544   5.974   1.021 -0.1131 -0.0874  0.1909
 4231TIP3    H134184   0.479   6.009   0.961 -0.3125 -1.3207 -0.3514
 4231TIP3    H234185   0.544   6.035   1.095 -2.1435 -0.2326  0.3723
 4232TIP3   OH234186   2.936   4.845   0.279  0.2180 -0.3413  0.1115
 4232TIP3    H134187   2.908   4.931   0.309 -1.5514 -1.2561  1.2796
 4232TIP3    H234188   2.856   4.802   0.249  1.0029 -1.6694 -0.1811
 4233TIP3   OH234189   0.539   5.426   0.670 -0.7535 -0.1342 -0.5181
 4233TIP3    H134190   0.564   5.340   0.636  1.9975  0.6631 -0.7785
 4233TIP3    H234191   0.552   5.419   0.764  1.1420  0.4091 -0.6949
 4234TIP3   OH234192   1.471   4.713   6.619  0.2763  0.9784 -0.8892
 4234TIP3    H134193   1.537   4.647   6.599  1.1778  1.9659 -1.2596
 4234TIP3    H234194   1.392   4.682   6.574  0.3385 -0.4263 -0.0971
 4235TIP3   OH234195   0.779   1.992  13.176  0.4583  0.0007 -0.2974
 4235TIP3    H134196   0.712   2.056  13.154  0.9422  0.4908 -0.3789
 4235TIP3    H234197   0.792   2.002  13.271 -2.2965 -2.7590  0.5296
 4236TIP3   OH234198   3.284   3.968   1.099  0.2415  0.2330 -0.4928
 4236TIP3    H134199   3.213   3.964   1.162  0.0248 -1.2635 -0.8032
 4236TIP3    H234200   3.309   4.061   1.096 -0.5168  0.4970  0.9057
 4237TIP3   OH234201   3.856   4.096   3.535 -0.2615  0.4985  0.1113
 4237TIP3    H134202   3.940   4.082   3.493  0.3570 -1.0984  1.7732
 4237TIP3    H234203   3.804   4.020   3.512 -0.8548  0.9110  0.0477
 4238TIP3   OH234204   5.022   1.414  11.666  0.4086 -0.3665  0.0827
 4238TIP3    H134205   4.927   1.398  11.665  0.4150 -0.4799 -1.5912
 4238TIP3    H234206   5.059   1.337  11.709 -0.2036 -0.7274 -0.0191
 4239TIP3   OH234207   5.614   5.539  15.958 -0.2639 -0.1111  0.6727
 4239TIP3    H134208   5.679   5.485  15.913 -0.6930  1.7116 -2.4655
 4239TIP3    H234209   5.656   5.625  15.965 -0.1763 -0.3039  4.1081
 4240TIP3   OH234210   4.907   0.058   5.218  0.4800  0.1899 -0.6593
 4240TIP3    H134211   4.985   0.112   5.228  1.7093 -1.4889 -0.8223
 4240TIP3    H234212   4.927  -0.023   5.264 -1.7401  0.2272  0.5201
 4241TIP3   OH234213   4.683   5.233   2.819 -0.1259 -0.0808  0.0706
 4241TIP3    H134214   4.729   5.154   2.848  1.3355  0.1944 -1.3499
 4241TIP3    H234215   4.699   5.297   2.888  1.2408 -0.1520 -0.1425
 4242TIP3   OH234216   3.391   6.460  14.056 -0.3866  0.4377 -0.5203
 4242TIP3    H134217   3.404   6.525  14.125 -0.5577  0.8707 -0.8939
 4242TIP3    H234218   3.440   6.493  13.982  1.7058 -1.1380  0.0485
 4243TIP3   OH234219   4.590   6.347   2.105  0.4839  0.4962 -0.0510
 4243TIP3    H134220   4.660   6.307   2.054  1.8070 -0.0963  2.1052
 4243TIP3    H234221   4.557   6.276   2.160 -1.5732  0.8681 -0.7175
 4244TIP3   OH234222   6.462   1.802   6.183 -0.7135  0.2833  0.0090
 4244TIP3    H134223   6.450   1.868   6.251 -1.5019  1.0946 -0.9071
 4244TIP3    H234224   6.548   1.764   6.202 -1.6934 -0.9065  2.6297
 4245TIP3   OH234225   5.233   4.018  16.007 -0.0558 -1.0540  0.1839
 4245TIP3    H134226   5.329   4.008  16.005 -0.0535 -1.6485  1.6777
 4245TIP3    H234227   5.216   4.067  16.087 -1.1129 -2.7869  1.0724
 4246TIP3   OH234228   2.496   1.761   0.231  0.1881  0.1886 -0.0508
 4246TIP3    H134229   2.406   1.795   0.231  0.6937  1.6154  0.5491
 4246TIP3    H234230   2.513   1.738   0.322  0.8134  1.0627  0.0708
 4247TIP3   OH234231   0.693   2.177  16.658 -0.6784 -0.2474 -0.6088
 4247TIP3    H134232   0.712   2.083  16.661  1.0241  0.0768 -0.3469
 4247TIP3    H234233   0.619   2.185  16.598  1.0041 -1.4984 -3.0088
 4248TIP3   OH234234   5.652   3.893  13.241  0.6800 -0.0381 -0.1418
 4248TIP3    H134235   5.693   3.812  13.210  0.5700  0.0626 -0.5598
 4248TIP3    H234236   5.719   3.935  13.295  1.4179  0.4989 -1.4347
 4249TIP3   OH234237   1.840   2.018  11.983 -0.1990 -0.4823 -0.3732
 4249TIP3    H134238   1.771   2.036  11.919  0.7338  1.4316 -0.8948
 4249TIP3    H234239   1.824   2.079  12.055 -1.1194 -2.4739  1.2150
 4250TIP3   OH234240   0.081   4.411   3.916  0.0355  0.1474  0.2393
 4250TIP3    H134241   0.098   4.503   3.934 -0.3720  0.4216 -0.7330
 4250TIP3    H234242   0.043   4.410   3.828 -0.8743 -0.8565  0.6247
 4251TIP3   OH234243   2.696   5.916  12.112 -0.3544  0.0458  0.2322
 4251TIP3    H134244   2.620   5.938  12.057  0.4148  2.2193 -0.0358
 4251TIP3    H234245   2.707   5.992  12.169  2.6106  0.5525 -0.8660
 4252TIP3   OH234246   0.470   0.510   5.881  0.1141 -0.5361 -0.0733
 4252TIP3    H134247   0.491   0.468   5.964  1.2160 -0.6744 -0.4067
 4252TIP3    H234248   0.510   0.454   5.814  1.4068  0.8795 -0.5386
 4253TIP3   OH234249   2.726   4.536   5.973 -0.2521 -1.0890  0.1833
 4253TIP3    H134250   2.757   4.578   6.054  2.9612 -0.9525 -0.9763
 4253TIP3    H234251   2.714   4.444   5.997  0.2121 -0.9655  0.9378
 4254TIP3   OH234252   5.084   2.275  13.274  0.0629 -0.1791 -0.2044
 4254TIP3    H134253   5.144   2.268  13.349  0.7835  1.0132 -0.6465
 4254TIP3    H234254   4.999   2.294  13.313  0.0773 -1.2469  0.3961
 4255TIP3   OH234255   1.167   5.062   1.684  0.4229  0.0179 -0.4590
 4255TIP3    H134256   1.122   5.138   1.721 -0.3369 -1.3409  1.5998
 4255TIP3    H234257   1.241   5.047   1.743  0.0693 -1.3195 -0.3273
 4256TIP3   OH234258   1.647   5.776  14.269 -0.0269 -0.1827 -0.5489
 4256TIP3    H134259   1.684   5.747  14.352  0.0012  1.5583  0.0868
 4256TIP3    H234260   1.714   5.756  14.204  0.2976 -0.8007 -0.0363
 4257TIP3   OH234261   4.617   5.069   6.632  0.1969  0.4912 -0.2699
 4257TIP3    H134262   4.579   5.136   6.689  2.6195  0.8331  1.0658
 4257TIP3    H234263   4.628   4.993   6.689 -2.2023 -1.0574 -1.6881
 4258TIP3   OH234264   2.268   2.592   0.309  0.3853  0.3637  0.0161
 4258TIP3    H134265   2.335   2.569   0.374  0.5100  0.0074 -0.2321
 4258TIP3    H234266   2.305   2.562   0.225 -1.4279 -2.9044  0.2056
 4259TIP3   OH234267   6.151   0.675   6.410  0.1951 -0.1796  0.3593
 4259TIP3    H134268   6.112   0.588   6.399  1.9115 -0.7522 -1.9803
 4259TIP3    H234269   6.224   0.660   6.471 -0.2482 -0.0909  0.9259
 4260TIP3   OH234270   0.843   0.111   0.301 -0.1151 -1.0008  0.4656
 4260TIP3    H134271   0.804   0.072   0.379 -1.7280 -0.3341  0.0379
 4260TIP3    H234272   0.930   0.141   0.330  0.0182 -2.3048  1.5159
 4261TIP3   OH234273   1.984   5.967  15.492  0.1680 -0.3523 -0.0889
 4261TIP3    H134274   2.052   5.924  15.442 -0.6509  0.9587 -2.4887
 4261TIP3    H234275   2.030   6.034  15.544  0.8538 -0.4909 -0.5099
 4262TIP3   OH234276   5.602   0.473   3.039  0.9574  0.1506 -0.3981
 4262TIP3    H134277   5.542   0.506   3.106  0.7570  0.7448 -0.8557
 4262TIP3    H234278   5.589   0.532   2.964 -1.2762 -2.4521 -2.2422
 4263TIP3   OH234279   4.646   2.129  17.382  0.0861 -0.1799 -0.3388
 4263TIP3    H134280   4.681   2.053  17.428  1.9744 -0.7987 -2.6563
 4263TIP3    H234281   4.562   2.099  17.347 -0.0969 -0.5477  0.3856
 4264TIP3   OH234282   5.548   0.401  11.643  0.6841  0.6103 -0.3812
 4264TIP3    H134283   5.606   0.330  11.668 -1.6542 -1.0383  0.7958
 4264TIP3    H234284   5.503   0.425  11.724 -1.2538  0.8049 -1.4514
 4265TIP3   OH234285   0.641   2.873  11.672 -0.5382 -0.4410  0.6019
 4265TIP3    H134286   0.736   2.865  11.683 -0.0658  0.1434 -2.2498
 4265TIP3    H234287   0.605   2.807  11.731  1.8376 -3.0907 -0.6300
 4266TIP3   OH234288   6.222   1.723  16.301  0.3639 -0.1084  0.7384
 4266TIP3    H134289   6.160   1.794  16.321 -1.3589 -1.5797  0.7845
 4266TIP3    H234290   6.170   1.657  16.256  1.8745 -1.4648  0.8987
 4267TIP3   OH234291   6.249   0.218  16.028 -0.3509 -0.0424 -0.3422
 4267TIP3    H134292   6.219   0.223  16.118  0.2377  1.7787 -0.2128
 4267TIP3    H234293   6.173   0.241  15.975  0.0389  1.9330 -0.1290
 4268TIP3   OH234294   0.500   3.639  14.969 -0.0215 -0.6721  0.1028
 4268TIP3    H134295   0.589   3.623  14.938  0.4965 -0.6745  1.5365
 4268TIP3    H234296   0.476   3.560  15.017 -1.2308 -1.1226 -1.1642
 4269TIP3   OH234297   4.537   5.424   4.682  0.4359 -0.5572 -0.0949
 4269TIP3    H134298   4.608   5.470   4.638  0.8043 -0.8450  0.1933
 4269TIP3    H234299   4.515   5.480   4.757  1.4879 -1.2622  0.7706
 4270TIP3   OH234300   3.486   5.748  16.683  0.0378  0.2688 -0.2374
 4270TIP3    H134301   3.473   5.734  16.589 -0.0355  1.5210 -0.4332
 4270TIP3    H234302   3.544   5.677  16.710 -0.4779 -0.4918 -1.0868
 4271TIP3   OH234303   2.901   5.492  13.248 -0.1029  0.2673  0.0258
 4271TIP3    H134304   2.818   5.495  13.201 -0.0744 -0.1306 -0.0587
 4271TIP3    H234305   2.878   5.509  13.339 -0.4073 -0.6881  0.1444
 4272TIP3   OH234306   3.985   5.090   1.509  0.2595 -0.6505  0.0728
 4272TIP3    H134307   4.021   5.091   1.420  0.6171 -0.3340  0.2223
 4272TIP3    H234308   3.907   5.035   1.502  0.5153 -0.9644 -0.3496
 4273TIP3   OH234309   0.794   4.875   6.280  0.2176 -0.2393 -0.1128
 4273TIP3    H134310   0.730   4.929   6.327  1.3757  0.2047  1.0283
 4273TIP3    H234311   0.806   4.919   6.197 -0.1734  0.2634  0.0874
 4274TIP3   OH234312   4.996   2.407   3.114 -0.4566  0.2152 -0.0605
 4274TIP3    H134313   5.058   2.456   3.059  0.7508 -0.0793  0.9853
 4274TIP3    H234314   4.931   2.473   3.140  1.0699  1.3019  1.2200
 4275TIP3   OH234315   5.194   4.461   1.832 -0.6954 -0.0648 -0.5095
 4275TIP3    H134316   5.180   4.392   1.897  1.6770 -0.6173 -0.4836
 4275TIP3    H234317   5.219   4.413   1.753  2.5294  0.6409 -0.0865
 4276TIP3   OH234318   1.231   3.110   5.186 -0.4060 -0.2031 -0.4446
 4276TIP3    H134319   1.267   3.087   5.272  0.4116  1.5641 -0.2589
 4276TIP3    H234320   1.136   3.105   5.197 -0.3054 -0.1720  0.5159
 4277TIP3   OH234321   1.144   0.130   2.427  0.4405  0.4335 -0.2480
 4277TIP3    H134322   1.131   0.178   2.346 -1.0378 -0.6617 -0.7024
 4277TIP3    H234323   1.238   0.114   2.431  0.5038  0.3283 -1.8405
 4278TIP3   OH234324   4.278   2.929   4.412  0.2076 -0.1838  0.1705
 4278TIP3    H134325   4.359   2.888   4.382  1.6216  0.5162  2.7128
 4278TIP3    H234326   4.303   3.020   4.429 -1.5631  0.4617 -0.5123
 4279TIP3   OH234327   3.586   1.851  12.205  0.0962  0.2768 -0.0193
 4279TIP3    H134328   3.574   1.791  12.280  2.2089 -0.7709 -0.4528
 4279TIP3    H234329   3.672   1.890  12.219 -0.6566  2.2251 -0.4953
 4280TIP3   OH234330   6.051   1.615  16.117  0.2562 -0.4800 -0.4995
 4280TIP3    H134331   6.078   1.559  16.044 -2.6035 -3.0369  0.2219
 4280TIP3    H234332   5.971   1.575  16.150 -0.8465  2.9392  1.4743
 4281TIP3   OH234333   3.964   3.835  13.546 -0.1821  0.1920  0.1045
 4281TIP3    H134334   4.052   3.849  13.582 -0.2278 -1.1467  0.8061
 4281TIP3    H234335   3.938   3.749  13.580 -1.4368  0.2098 -0.7627
 4282TIP3   OH234336   2.969   1.744  10.778  0.2154  0.7710  0.0484
 4282TIP3    H134337   2.968   1.666  10.834  0.7640  0.4572 -0.3668
 4282TIP3    H234338   2.878   1.775  10.778 -0.1730 -0.3004 -0.3719
 4283TIP3   OH234339   2.696   1.134   5.233  0.2012 -0.7372  0.5255
 4283TIP3    H134340   2.779   1.177   5.256 -0.1071 -0.6158  1.4458
 4283TIP3    H234341   2.648   1.128   5.316 -1.2843  0.3918 -0.2185
 4284TIP3   OH234342   0.998   1.629  11.346  0.8140  0.0550  0.1373
 4284TIP3    H134343   1.061   1.670  11.406  1.2135 -0.3974  0.0323
 4284TIP3    H234344   0.978   1.697  11.282  2.1325 -0.1613 -0.5392
 4285TIP3   OH234345   5.022   3.765   4.036 -0.1756 -0.2751 -0.3880
 4285TIP3    H134346   4.966   3.692   4.063 -0.0719 -0.9810 -1.9551
 4285TIP3    H234347   4.963   3.840   4.030 -0.6602 -0.6682 -0.5679
 4286TIP3   OH234348   4.707   2.196  12.143 -0.3893 -0.2271  0.3603
 4286TIP3    H134349   4.641   2.263  12.125 -1.5257 -0.8673  1.9143
 4286TIP3    H234350   4.791   2.240  12.130 -1.0660  0.5472 -1.9335
 4287TIP3   OH234351   0.912   5.992   5.808 -0.3305  0.4834 -0.2194
 4287TIP3    H134352   0.959   5.909   5.809  1.6285  1.5350 -0.6074
 4287TIP3    H234353   0.884   6.005   5.898 -1.3035 -0.9223 -0.2956
 4288TIP3   OH234354   4.881   0.465   1.527 -0.0402 -0.0764 -0.3052
 4288TIP3    H134355   4.825   0.543   1.522 -0.3538 -0.1105  1.9121
 4288TIP3    H234356   4.819   0.392   1.532  0.1698 -0.1511  1.6824
 4289TIP3   OH234357   1.593   1.427  11.753  0.3028  0.0511  0.3454
 4289TIP3    H134358   1.680   1.407  11.788 -0.6450 -2.5448  1.4469
 4289TIP3    H234359   1.565   1.347  11.709 -0.9239  1.3688 -1.3984
 4290TIP3   OH234360   4.401   4.158  14.893  0.7233 -0.4118 -1.0199
 4290TIP3    H134361   4.482   4.188  14.852  0.7508 -0.6066 -1.1066
 4290TIP3    H234362   4.332   4.208  14.850  0.8469  0.2290 -0.5018
 4291TIP3   OH234363   5.289   2.736  13.904 -0.2916  0.2041 -0.4017
 4291TIP3    H134364   5.231   2.729  13.828 -0.4969  0.2872 -0.2558
 4291TIP3    H234365   5.374   2.704  13.873 -0.0622  1.3326 -0.9927
 4292TIP3   OH234366   4.977   3.251  14.499 -0.0105 -0.3586  0.6930
 4292TIP3    H134367   4.938   3.211  14.577  0.2839 -0.8187  0.6127
 4292TIP3    H234368   4.906   3.253  14.435  0.1029 -1.2795  0.5171
 4293TIP3   OH234369   5.033   4.712   3.278  0.7107 -0.0719  0.2305
 4293TIP3    H134370   5.043   4.617   3.289  2.0489  0.2397  2.2970
 4293TIP3    H234371   4.958   4.734   3.333  0.1082  0.0321 -0.6171
 4294TIP3   OH234372   2.332   6.499   1.746 -0.1229  0.1257 -0.1546
 4294TIP3    H134373   2.345   6.490   1.840  0.1900  0.8356 -0.1254
 4294TIP3    H234374   2.327   6.593   1.731 -0.8658  0.0007 -0.7602
 4295TIP3   OH234375   6.650   2.979   0.929 -0.2835 -0.1237  0.1966
 4295TIP3    H134376   6.728   2.968   0.873  0.7980 -1.4651  1.8799
 4295TIP3    H234377   6.637   2.893   0.969  0.1578  1.2031  3.4703
 4296TIP3   OH234378   5.438   2.508  12.938 -0.2582 -0.5661 -0.1454
 4296TIP3    H134379   5.371   2.464  12.990  0.5801 -0.1981  1.3154
 4296TIP3    H234380   5.422   2.479  12.848 -1.1423 -2.0265  0.4532
 4297TIP3   OH234381   2.304   6.115   4.113  0.4710 -0.5743 -0.4213
 4297TIP3    H134382   2.304   6.136   4.020 -1.1958 -1.2950 -0.6377
 4297TIP3    H234383   2.267   6.192   4.156  1.9324  0.0501 -0.2493
 4298TIP3   OH234384   2.307   2.930   1.337 -0.1411  0.3369  0.3819
 4298TIP3    H134385   2.226   2.881   1.348 -0.7477  0.9043 -1.2597
 4298TIP3    H234386   2.280   3.021   1.336  0.7439  0.6327  1.4466
 4299TIP3   OH234387   2.955   1.811  12.546  0.0939 -0.3226 -0.1977
 4299TIP3    H134388   2.882   1.776  12.495 -0.2248 -1.6802  1.0953
 4299TIP3    H234389   2.976   1.894  12.504 -1.8711 -0.1291 -0.9244
 4300TIP3   OH234390   0.095   2.416  16.750  0.5987 -0.4524 -0.0139
 4300TIP3    H134391   0.015   2.364  16.761  1.6829 -2.6871 -1.6923
 4300TIP3    H234392   0.141   2.408  16.833  0.0343 -0.9624  0.2595
 4301TIP3   OH234393   6.355   5.689   0.141 -0.3748  0.4798 -0.2648
 4301TIP3    H134394   6.340   5.732   0.057 -0.5118  2.2314  0.6056
 4301TIP3    H234395   6.438   5.724   0.171 -0.4582  0.0743  0.4527
 4302TIP3   OH234396   1.285   0.862  11.113 -0.1007 -0.2346 -0.1816
 4302TIP3    H134397   1.309   0.878  11.022 -0.6673  0.9971 -0.1463
 4302TIP3    H234398   1.197   0.899  11.120  0.1192  0.0953  0.9676
 4303TIP3   OH234399   1.334   5.061  13.796 -0.7254 -0.2251  0.0329
 4303TIP3    H134400   1.351   5.059  13.702  1.9649  1.3514  0.3754
 4303TIP3    H234401   1.311   5.152  13.815  2.1999  0.3649  1.2889
 4304TIP3   OH234402   2.563   4.889   4.683 -0.4938 -0.7798  0.1450
 4304TIP3    H134403   2.477   4.850   4.665 -0.8513  0.1955 -0.3114
 4304TIP3    H234404   2.562   4.972   4.635  0.4275 -0.4185  0.7358
 4305TIP3   OH234405   2.764   5.148  15.999 -0.0276 -0.2076 -0.0770
 4305TIP3    H134406   2.855   5.120  15.984 -0.6058 -1.7742 -0.8691
 4305TIP3    H234407   2.723   5.141  15.912 -0.9979  0.1048  0.3495
 4306TIP3   OH234408   4.224   4.792  14.952  0.0693 -0.2679 -0.1468
 4306TIP3    H134409   4.301   4.762  14.903  0.7026  2.6729 -1.1967
 4306TIP3    H234410   4.256   4.803  15.042 -0.2858 -2.8317  0.3646
 4307TIP3   OH234411   3.930   6.139  15.792  0.1159 -0.2517  0.0792
 4307TIP3    H134412   4.008   6.194  15.778 -0.0584 -0.0332 -0.0374
 4307TIP3    H234413   3.923   6.087  15.712 -0.0294 -0.0588 -0.0334
 4308TIP3   OH234414   3.686   2.424  16.714  0.0965 -0.5211 -0.3606
 4308TIP3    H134415   3.663   2.513  16.740  2.2264  0.3522 -1.1640
 4308TIP3    H234416   3.732   2.388  16.790 -0.9058 -1.0020  0.0216
 4309TIP3   OH234417   5.332   4.174   1.627 -0.3315 -0.1036 -0.1469
 4309TIP3    H134418   5.385   4.097   1.649  0.5996  0.0465 -1.7238
 4309TIP3    H234419   5.321   4.169   1.532 -3.2065 -0.1239  0.0893
 4310TIP3   OH234420   2.271   4.098   1.948 -0.0759 -0.2987  0.0506
 4310TIP3    H134421   2.201   4.072   2.008  0.4672 -0.7064  0.5153
 4310TIP3    H234422   2.248   4.187   1.921 -0.5182 -0.2513  0.5767
 4311TIP3   OH234423   3.073   0.726   1.491  0.0674  0.6079  0.4621
 4311TIP3    H134424   3.113   0.681   1.416  0.5052  0.0581  1.0043
 4311TIP3    H234425   3.147   0.770   1.534 -0.0724  0.4162  0.9063
 4312TIP3   OH234426   0.997   2.918  13.147 -0.4376  0.1578 -0.2114
 4312TIP3    H134427   1.092   2.911  13.142  0.1245  4.7528 -0.3819
 4312TIP3    H234428   0.967   2.909  13.057 -0.3981 -2.1114 -0.0696
 4313TIP3   OH234429   2.847   0.274   5.902 -0.6114 -0.1774  0.4585
 4313TIP3    H134430   2.916   0.303   5.961 -1.1071  0.9307  0.5250
 4313TIP3    H234431   2.820   0.188   5.935  0.4513 -0.4436  0.6591
 4314TIP3   OH234432   2.678   0.100   0.331 -0.7218  0.1187 -0.5006
 4314TIP3    H134433   2.620   0.033   0.369 -0.9472  0.9570  0.7005
 4314TIP3    H234434   2.761   0.054   0.317 -1.0505 -0.5729 -0.2612
 4315TIP3   OH234435   2.153   4.357  14.805  0.2951 -0.5996  0.3127
 4315TIP3    H134436   2.107   4.273  14.812  0.3389 -0.5336  1.5795
 4315TIP3    H234437   2.089   4.415  14.764  0.1133 -1.1372 -0.1809
 4316TIP3   OH234438   1.379   0.353  16.374 -0.1798  0.6659 -0.1994
 4316TIP3    H134439   1.438   0.418  16.410 -0.4564  1.5065 -1.2191
 4316TIP3    H234440   1.411   0.269  16.408  3.0150  0.8045 -2.5127
 4317TIP3   OH234441   0.994   6.021   6.515 -0.0640 -0.1868  0.2432
 4317TIP3    H134442   0.959   6.014   6.604  0.7221 -1.2361  0.4910
 4317TIP3    H234443   0.978   5.935   6.476  0.2478  0.0361 -0.3917
 4318TIP3   OH234444   3.804   1.868   5.893  0.5118  0.5303  1.1789
 4318TIP3    H134445   3.782   1.895   5.982 -1.1182 -1.9539  1.6480
 4318TIP3    H234446   3.723   1.881   5.844  1.2958  1.5409  0.1065
 4319TIP3   OH234447   6.612   4.124   2.455  0.2702  0.0118  0.1685
 4319TIP3    H134448   6.546   4.106   2.388  0.7185 -0.2069 -0.2200
 4319TIP3    H234449   6.599   4.216   2.477 -1.1483 -0.3889  1.1877
 4320TIP3   OH234450   2.553   2.021   0.770  0.4619  0.1886 -0.0430
 4320TIP3    H134451   2.525   2.073   0.694  0.1373  1.6744  1.0396
 4320TIP3    H234452   2.552   1.931   0.739 -1.4764  0.5700 -1.3025
 4321TIP3   OH234453   1.907   6.274   5.623 -0.5524 -0.5232 -0.2448
 4321TIP3    H134454   1.901   6.334   5.549  0.0082 -0.3274 -0.1377
 4321TIP3    H234455   1.912   6.331   5.700  0.1625 -0.6977 -0.1564
 4322TIP3   OH234456   5.591   5.317  14.464  0.5724 -0.0884 -0.0785
 4322TIP3    H134457   5.530   5.312  14.538  0.2462  1.5088 -0.2132
 4322TIP3    H234458   5.666   5.364  14.499  0.5563  0.3759 -0.6602
 4323TIP3   OH234459   0.359   5.276  15.270  0.1238 -0.2341 -0.3612
 4323TIP3    H134460   0.421   5.261  15.199 -0.3568  0.9143 -1.0429
 4323TIP3    H234461   0.411   5.266  15.350  1.2381  0.8929 -0.9260
 4324TIP3   OH234462   5.562   1.672  12.275 -0.0100 -0.5523 -0.5127
 4324TIP3    H134463   5.605   1.635  12.352 -0.5497 -0.6570 -0.2511
 4324TIP3    H234464   5.535   1.595  12.224 -0.2307 -0.5008 -0.4768
 4325TIP3   OH234465   2.934   0.434  15.259  0.2463 -0.1316  0.2871
 4325TIP3    H134466   2.863   0.475  15.308  0.0132 -1.1603  0.8363
 4325TIP3    H234467   3.010   0.489  15.277  0.4142 -1.0094  2.6537
 4326TIP3   OH234468   5.819   5.986   0.988 -0.4194  0.1954  0.6589
 4326TIP3    H134469   5.851   5.911   1.039  0.4578  0.7516  0.9499
 4326TIP3    H234470   5.748   6.023   1.042  0.4067  0.6951  1.4296
 4327TIP3   OH234471   2.772   1.825  13.882 -0.0789  0.3436 -0.1680
 4327TIP3    H134472   2.806   1.850  13.967  1.3653 -1.4771 -0.1539
 4327TIP3    H234473   2.736   1.737  13.895  1.3542 -0.5187 -1.6908
 4328TIP3   OH234474   3.806   4.478   5.625  0.0425  0.5049 -0.2095
 4328TIP3    H134475   3.756   4.553   5.592 -0.8539 -0.1302 -0.3119
 4328TIP3    H234476   3.839   4.435   5.546  1.8515  1.6237 -0.1236
 4329TIP3   OH234477   0.264   4.973   2.436 -0.2281 -0.0285  0.5274
 4329TIP3    H134478   0.172   4.982   2.411  0.5442  2.6797 -1.8223
 4329TIP3    H234479   0.309   4.955   2.354  1.3922 -1.5596  1.6732
 4330TIP3   OH234480   4.146   2.362   3.121  0.4512 -0.6275 -0.3225
 4330TIP3    H134481   4.240   2.378   3.107  0.1338  4.3730  1.0497
 4330TIP3    H234482   4.110   2.354   3.033  1.9249 -0.6706 -0.9588
 4331TIP3   OH234483   3.264   2.334  14.707 -0.0332  0.0481 -0.9748
 4331TIP3    H134484   3.193   2.398  14.708  0.6871  0.9511  2.1885
 4331TIP3    H234485   3.341   2.384  14.732  0.7274 -1.8198  0.6959
 4332TIP3   OH234486   0.890   1.268  11.840 -0.0759 -0.9003 -0.9706
 4332TIP3    H134487   0.910   1.361  11.853  1.3617 -1.3510  0.3095
 4332TIP3    H234488   0.812   1.268  11.784 -1.1585  1.1068  0.3933
 4333TIP3   OH234489   4.528   0.801  12.752 -0.8361 -0.4008 -0.0289
 4333TIP3    H134490   4.548   0.835  12.665 -1.4747 -0.3083 -0.1433
 4333TIP3    H234491   4.603   0.828  12.806 -0.5073 -0.3309 -0.5114
 4334TIP3   OH234492   5.081   2.017   5.188  0.7081 -0.2013 -0.4023
 4334TIP3    H134493   5.153   1.993   5.130  0.9049  1.7354 -1.0091
 4334TIP3    H234494   5.004   2.023   5.131  0.7914  1.1625 -0.4106
 4335TIP3   OH234495   4.713   5.223  12.143  0.6292 -0.2666  0.5980
 4335TIP3    H134496   4.802   5.248  12.119  0.3461  0.0390 -0.1726
 4335TIP3    H234497   4.674   5.191  12.061  0.0054 -0.2963  0.8982
 4336TIP3   OH234498   5.967   1.798  13.841  0.8855 -0.1461  0.5197
 4336TIP3    H134499   6.025   1.777  13.914 -0.5481 -0.3880  1.6302
 4336TIP3    H234500   5.911   1.721  13.832 -0.9306  1.0477  1.1505
 4337TIP3   OH234501   3.442   6.192  11.565 -0.0771 -0.3037  0.3521
 4337TIP3    H134502   3.358   6.237  11.555  0.0870  0.0358  0.4751
 4337TIP3    H234503   3.500   6.258  11.606  0.2590 -0.5189  0.2283
 4338TIP3   OH234504   4.492   6.313  10.800  0.0975 -0.0105  1.1239
 4338TIP3    H134505   4.404   6.274  10.796  0.2116 -0.2665  1.0766
 4338TIP3    H234506   4.500   6.362  10.718 -0.0208  0.0516  1.1495
 4339TIP3   OH234507   1.266   0.223  10.799 -0.4422 -0.6081 -0.2910
 4339TIP3    H134508   1.295   0.136  10.826 -3.6915 -1.5162  0.6739
 4339TIP3    H234509   1.222   0.208  10.715  1.2977  0.6321 -1.4889
 4340TIP3   OH234510   4.499   2.531  12.941  0.0804 -0.4285 -0.2410
 4340TIP3    H134511   4.522   2.623  12.927 -1.5415  0.3950  1.9609
 4340TIP3    H234512   4.437   2.511  12.870  0.0252  0.3493 -0.4248
 4341TIP3   OH234513   3.033   3.392  15.008 -0.1659 -0.9491  0.8429
 4341TIP3    H134514   3.116   3.363  15.046  0.1054 -2.6993 -0.8816
 4341TIP3    H234515   2.966   3.341  15.054  0.1773 -3.2313 -1.0144
 4342TIP3   OH234516   2.611   4.161  14.965 -0.3175  0.1112 -0.0888
 4342TIP3    H134517   2.696   4.146  14.925 -0.1624  0.2607  0.1803
 4342TIP3    H234518   2.558   4.203  14.896 -0.5543 -1.0651 -0.6393
 4343TIP3   OH234519   3.622   5.438   2.557  0.1593 -0.4102  0.4534
 4343TIP3    H134520   3.688   5.505   2.577  1.0391 -0.3985 -2.1758
 4343TIP3    H234521   3.557   5.483   2.504  0.7991 -1.5597 -1.4133
 4344TIP3   OH234522   5.868   0.752  10.512  0.1874  0.2238  0.4309
 4344TIP3    H134523   5.824   0.825  10.469  1.8136  1.1478  0.2731
 4344TIP3    H234524   5.942   0.792  10.558  0.7311 -1.2366  0.8850
 4345TIP3   OH234525   2.091   4.849  15.497 -0.3601  0.7966 -0.5238
 4345TIP3    H134526   2.030   4.832  15.426  0.5345 -0.3745 -1.0520
 4345TIP3    H234527   2.041   4.830  15.577 -1.0652  1.1294 -0.8838
 4346TIP3   OH234528   0.833   3.681  11.669  0.1655 -0.1322 -0.3318
 4346TIP3    H134529   0.742   3.695  11.642 -0.0761  0.0646  0.5523
 4346TIP3    H234530   0.828   3.618  11.740  0.6483  0.4519  0.2289
 4347TIP3   OH234531   4.954   6.404   3.668 -0.1322 -0.7331  0.2455
 4347TIP3    H134532   5.032   6.352   3.687  1.0288  0.1556 -1.7071
 4347TIP3    H234533   4.989   6.488   3.636 -1.9142  0.3070  0.8956
 4348TIP3   OH234534   3.045   1.978  16.594 -0.3772  0.2789  0.4943
 4348TIP3    H134535   3.139   1.995  16.606 -0.1119 -1.1883  0.7922
 4348TIP3    H234536   3.001   2.036  16.655  0.3258  1.1476  0.1896
 4349TIP3   OH234537   2.002   4.667   4.531 -0.4146 -0.0730 -0.0746
 4349TIP3    H134538   1.984   4.746   4.582  1.0150 -0.1855  0.6654
 4349TIP3    H234539   2.024   4.698   4.444  1.6482  0.5178  0.5986
 4350TIP3   OH234540   4.994   1.274  15.193  0.2640  0.3866  0.2142
 4350TIP3    H134541   5.053   1.232  15.131 -0.6099 -1.5437  0.6268
 4350TIP3    H234542   5.052   1.327  15.249  1.5290 -0.8692  0.1490
 4351TIP3   OH234543   1.105   3.125  12.325 -0.1435 -0.2871 -0.0767
 4351TIP3    H134544   1.028   3.096  12.374 -0.0516 -0.5492 -0.0873
 4351TIP3    H234545   1.069   3.178  12.253 -0.3386 -0.7362 -0.3142
 4352TIP3   OH234546   2.492   5.780  17.011  0.0609 -0.2788  0.5776
 4352TIP3    H134547   2.434   5.709  17.038 -0.5478  0.9570  2.7132
 4352TIP3    H234548   2.573   5.736  16.987 -1.4893 -2.0184 -2.0428
 4353TIP3   OH234549   3.990   6.797   1.746 -0.0208 -0.4788  0.0878
 4353TIP3    H134550   3.956   6.828   1.662  1.1073 -0.5531 -0.4198
 4353TIP3    H234551   4.082   6.824   1.746 -0.0654 -0.2676  1.4105
 4354TIP3   OH234552   6.682   4.162  13.063 -0.3587 -0.2731 -0.1596
 4354TIP3    H134553   6.660   4.082  13.015 -2.6395 -0.1803  0.6223
 4354TIP3    H234554   6.616   4.167  13.132  0.5118  1.6249  0.5955
 4355TIP3   OH234555   4.887   2.719  12.801 -0.2120  0.0984  0.3074
 4355TIP3    H134556   4.919   2.789  12.744  0.7860 -1.2667 -0.8798
 4355TIP3    H234557   4.950   2.715  12.873  2.4940 -2.4790 -1.9396
 4356TIP3   OH234558   3.546   2.079  10.693 -0.2257  0.3877 -0.0913
 4356TIP3    H134559   3.481   2.128  10.643 -0.6911  0.1438  0.2556
 4356TIP3    H234560   3.493   2.022  10.750  0.2555  1.5164  1.5579
 4357TIP3   OH234561   5.312   5.167  11.077 -0.2941  0.4763  0.1262
 4357TIP3    H134562   5.264   5.098  11.031  0.5710  2.3376 -4.0202
 4357TIP3    H234563   5.246   5.210  11.132 -2.1087 -0.3315 -1.3290
 4358TIP3   OH234564   5.670   6.483  11.799  0.1496  0.7451  0.2284
 4358TIP3    H134565   5.592   6.514  11.845  0.6451  1.2412  0.7546
 4358TIP3    H234566   5.638   6.417  11.738 -0.4917 -0.1218  1.4787
 4359TIP3   OH234567   1.345   0.274   3.080  0.3692 -0.7111  0.0568
 4359TIP3    H134568   1.326   0.276   3.173 -0.9928  1.3991 -0.2032
 4359TIP3    H234569   1.342   0.366   3.053  3.0144 -1.0126 -1.6539
 4360TIP3   OH234570   2.853   1.934  14.941 -0.0335  0.1874  0.6877
 4360TIP3    H134571   2.787   1.913  14.874  1.1677  3.0664 -1.6448
 4360TIP3    H234572   2.824   1.886  15.019 -2.9510 -1.3600 -1.1421
 4361TIP3   OH234573   1.510   2.570   3.684  0.1828  0.3294 -0.1333
 4361TIP3    H134574   1.605   2.581   3.677  0.0760  1.0100 -0.5740
 4361TIP3    H234575   1.483   2.533   3.600  0.1552 -0.6632  0.2932
 4362TIP3   OH234576   3.836   3.349   5.630 -0.0442  0.2385  0.1291
 4362TIP3    H134577   3.862   3.297   5.707  0.0988 -0.4458 -0.3728
 4362TIP3    H234578   3.799   3.285   5.570 -3.0497  1.1418  0.8327
 4363TIP3   OH234579   6.121   1.727  15.051 -0.2904 -0.3331 -0.3260
 4363TIP3    H134580   6.054   1.794  15.069 -0.4113 -0.5622  0.1002
 4363TIP3    H234581   6.183   1.735  15.124  1.3683  1.3508 -1.8184
 4364TIP3   OH234582   2.433   6.522  15.460 -0.1279 -0.4903 -0.7757
 4364TIP3    H134583   2.338   6.537  15.454 -0.3863 -0.3265  2.2179
 4364TIP3    H234584   2.469   6.607  15.483  0.5674 -0.8634 -0.4789
 4365TIP3   OH234585   1.605   6.651  11.456  0.4697  0.2085  0.0070
 4365TIP3    H134586   1.580   6.611  11.540  0.9427  1.4312  0.7598
 4365TIP3    H234587   1.655   6.583  11.411 -2.5695 -1.6871 -0.7761
 4366TIP3   OH234588   4.153   5.080  14.941 -0.1187 -0.2478  0.1936
 4366TIP3    H134589   4.117   5.115  14.860 -1.1818 -3.2103 -0.7654
 4366TIP3    H234590   4.194   4.997  14.916  0.9212 -0.5083  2.4573
 4367TIP3   OH234591   6.151   4.081  12.133 -0.1775  0.4092 -0.1966
 4367TIP3    H134592   6.102   4.155  12.096  1.1679  1.0592 -0.7402
 4367TIP3    H234593   6.115   4.004  12.089 -1.8202  0.6616  0.6037
 4368TIP3   OH234594   1.062   4.300   0.887 -0.2446 -0.0185  0.0249
 4368TIP3    H134595   1.061   4.268   0.977  1.6432 -1.7634 -0.4942
 4368TIP3    H234596   1.116   4.379   0.891 -1.2660  0.6722  0.6062
 4369TIP3   OH234597   5.508   2.419  15.920 -0.9304 -0.6075 -0.9942
 4369TIP3    H134598   5.475   2.400  16.008 -1.5144  0.7948 -0.8883
 4369TIP3    H234599   5.602   2.434  15.933 -0.9481 -0.7557 -0.6703
 4370TIP3   OH234600   0.060   5.383   4.407 -0.4976 -0.6162  0.2349
 4370TIP3    H134601  -0.029   5.377   4.373 -1.6244 -2.2019  3.0859
 4370TIP3    H234602   0.054   5.445   4.480  1.2312  0.7583 -0.6907
 4371TIP3   OH234603   2.345   5.691   1.571 -0.1541 -0.3049 -0.1700
 4371TIP3    H134604   2.287   5.649   1.508 -0.9137  0.8817 -0.2858
 4371TIP3    H234605   2.371   5.620   1.631  1.6134 -1.7756 -2.4722
 4372TIP3   OH234606   5.227   6.385   1.477  0.4538  1.0008 -0.5786
 4372TIP3    H134607   5.142   6.420   1.507  1.0389  2.3136 -0.3781
 4372TIP3    H234608   5.205   6.333   1.400 -0.8609 -0.9240  0.9557
 4373TIP3   OH234609   0.660   4.129   5.244 -0.0185 -0.0649 -0.3075
 4373TIP3    H134610   0.598   4.100   5.178  0.5088 -2.0444 -0.0048
 4373TIP3    H234611   0.742   4.085   5.220  0.7200  0.8378  0.4863
 4374TIP3   OH234612   3.291   3.897   1.841 -0.2906 -0.5662  0.5776
 4374TIP3    H134613   3.258   3.985   1.864  0.0712  0.8408 -3.4398
 4374TIP3    H234614   3.380   3.913   1.809 -0.5627 -2.2001 -1.1395
 4375TIP3   OH234615   2.701   1.363  16.784  0.9891  0.4257 -0.2419
 4375TIP3    H134616   2.634   1.295  16.786  1.7274 -0.2970  0.7171
 4375TIP3    H234617   2.654   1.442  16.758  0.1535 -0.4687 -1.6044
 4376TIP3   OH234618   3.500   1.609   6.879 -0.3110 -0.2375 -0.3004
 4376TIP3    H134619   3.584   1.636   6.917 -1.4674  1.1921  1.3912
 4376TIP3    H234620   3.506   1.514   6.873  1.9564 -0.0803 -1.6115
 4377TIP3   OH234621   1.841   0.111   2.676 -0.2242 -0.5760 -0.2439
 4377TIP3    H134622   1.849   0.032   2.622 -2.1734 -0.4585 -0.7836
 4377TIP3    H234623   1.747   0.125   2.684  0.0733  1.1906  0.6086
 4378TIP3   OH234624   1.267   5.484   2.757 -0.2697 -0.8107  0.9815
 4378TIP3    H134625   1.266   5.512   2.665 -2.2150 -0.5635  1.0386
 4378TIP3    H234626   1.347   5.521   2.792 -0.9817  1.7202  0.1376
 4379TIP3   OH234627   1.077   2.245   2.462 -0.3605  0.2324  0.0836
 4379TIP3    H134628   1.108   2.173   2.517  0.5174  1.0793  0.7267
 4379TIP3    H234629   1.026   2.300   2.522  0.8461  1.3197  0.1523
 4380TIP3   OH234630   5.172   1.248  14.162  0.1671 -0.4088  0.2445
 4380TIP3    H134631   5.186   1.333  14.204  2.4524 -0.1769 -0.8515
 4380TIP3    H234632   5.247   1.195  14.189  0.5356 -0.9669 -1.7014
 4381TIP3   OH234633   3.214   3.895  13.884 -0.2705  0.1664  0.0874
 4381TIP3    H134634   3.149   3.860  13.944 -0.6650  1.6309  0.5647
 4381TIP3    H234635   3.251   3.818  13.840 -1.9742 -0.7164  0.1463
 4382TIP3   OH234636   3.861   5.450   4.370  0.0185 -0.1235  0.0261
 4382TIP3    H134637   3.776   5.408   4.352 -0.4397  1.2226 -1.1359
 4382TIP3    H234638   3.845   5.504   4.447 -0.8581  1.8197 -1.4290
 4383TIP3   OH234639   5.943   6.390  12.771 -0.1622 -0.2770  0.4686
 4383TIP3    H134640   5.973   6.310  12.814 -0.6754 -0.7187  0.0296
 4383TIP3    H234641   5.918   6.361  12.683  2.3420  0.8587 -0.7080
 4384TIP3   OH234642   0.121   6.056   4.685  0.0079  0.0187  0.2425
 4384TIP3    H134643   0.126   5.964   4.663  0.9029 -0.0092  0.5418
 4384TIP3    H234644   0.063   6.060   4.762  0.8515 -0.4185  0.9114
 4385TIP3   OH234645   1.374   5.792  15.945 -0.5715 -0.1821  0.2511
 4385TIP3    H134646   1.363   5.709  15.898  2.0702 -0.8980  0.7306
 4385TIP3    H234647   1.436   5.841  15.891 -2.0693  1.5369 -0.0045
 4386TIP3   OH234648   5.912   4.595  12.051 -0.5192  0.4209  0.0519
 4386TIP3    H134649   5.824   4.632  12.042 -0.7419 -0.2693 -0.7271
 4386TIP3    H234650   5.907   4.538  12.127 -0.5082  1.0352  0.5192
 4387TIP3   OH234651   4.895   4.089   4.839 -0.0918  0.6904 -0.2017
 4387TIP3    H134652   4.814   4.113   4.795 -0.9266  1.6120  1.7219
 4387TIP3    H234653   4.902   4.149   4.913  2.4068  0.6945 -0.3320
 4388TIP3   OH234654   5.509   2.007  12.436  0.8288  0.9633 -0.0142
 4388TIP3    H134655   5.449   2.023  12.363 -1.7158  1.5394  2.0579
 4388TIP3    H234656   5.510   2.089  12.485  0.8709  0.0103  1.6602
 4389TIP3   OH234657   2.638   6.067   0.730 -0.7208 -0.1432  0.1139
 4389TIP3    H134658   2.622   5.973   0.745  1.0364 -0.3326  1.0755
 4389TIP3    H234659   2.676   6.071   0.643 -1.8549 -0.1631 -0.4049
 4390TIP3   OH234660   6.357   4.439  15.547  0.6380 -0.1041 -0.0797
 4390TIP3    H134661   6.383   4.529  15.531 -0.4916  0.6189  1.8332
 4390TIP3    H234662   6.417   4.408  15.615  1.5842 -1.1372 -1.3189
 4391TIP3   OH234663   2.486   0.852   5.336  0.6264 -0.0837 -0.2814
 4391TIP3    H134664   2.517   0.932   5.377  0.4775  0.5686 -1.4079
 4391TIP3    H234665   2.407   0.828   5.384  1.8439 -0.7720  1.4598
 4392TIP3   OH234666   1.367   5.576  13.326  0.3155  0.0372 -0.1301
 4392TIP3    H134667   1.345   5.492  13.286 -3.1108  0.9645 -0.4911
 4392TIP3    H234668   1.404   5.627  13.254  0.8546 -0.5905 -0.3133
 4393TIP3   OH234669   6.051   0.376   5.971  0.7448 -0.5543  0.1711
 4393TIP3    H134670   6.067   0.462   5.933 -0.7970  0.6347  2.0694
 4393TIP3    H234671   5.973   0.343   5.926  1.1075 -0.8067 -0.2820
 4394TIP3   OH234672   6.386   3.446   0.816  0.2213  0.0546 -0.0220
 4394TIP3    H134673   6.392   3.469   0.723  1.0215 -1.7569 -0.4755
 4394TIP3    H234674   6.301   3.403   0.824  0.6481 -0.8423 -0.1967
 4395TIP3   OH234675   6.120   2.757  14.820 -0.6130  0.5119 -0.1615
 4395TIP3    H134676   6.154   2.703  14.891  0.0978  0.3546 -0.6173
 4395TIP3    H234677   6.031   2.780  14.848 -0.1054  1.0528  1.1146
 4396TIP3   OH234678   1.391   4.787  16.117 -0.1989 -0.1222 -0.5402
 4396TIP3    H134679   1.324   4.844  16.157  0.1734 -0.0116 -0.0730
 4396TIP3    H234680   1.474   4.830  16.137  0.0612 -0.6251 -0.5205
 4397TIP3   OH234681   3.306   0.968  14.686  0.1070  0.2268  0.2012
 4397TIP3    H134682   3.217   0.935  14.678  0.9872 -2.5474  0.8448
 4397TIP3    H234683   3.326   0.961  14.779  0.6080  2.0207  0.2589
 4398TIP3   OH234684   1.189   0.400  11.207  0.0907 -0.2745  0.1227
 4398TIP3    H134685   1.150   0.457  11.273 -0.9994 -0.4277 -0.3587
 4398TIP3    H234686   1.114   0.367  11.157  0.8838 -0.1704 -1.1841
 4399TIP3   OH234687   3.864   0.352   2.294 -0.1951 -0.5307 -0.2898
 4399TIP3    H134688   3.919   0.339   2.371  1.1186 -0.7459 -1.2457
 4399TIP3    H234689   3.786   0.397   2.328  0.5169 -0.2959  1.0985
 4400TIP3   OH234690   1.641   0.505  12.521 -0.0076  0.1489 -0.0485
 4400TIP3    H134691   1.566   0.461  12.561 -0.0983  0.1114 -0.2569
 4400TIP3    H234692   1.608   0.592  12.497  0.1415  0.2977  0.2660
 4401TIP3   OH234693   3.496   6.728  15.253  0.3129 -0.1959 -0.1835
 4401TIP3    H134694   3.411   6.741  15.294  0.5017 -1.9257  0.8671
 4401TIP3    H234695   3.482   6.656  15.192  0.8588  0.0277 -0.5818
 4402TIP3   OH234696   4.151   4.464  14.276 -0.5912 -0.1637 -0.1203
 4402TIP3    H134697   4.229   4.416  14.250  0.4385  0.8907  0.9063
 4402TIP3    H234698   4.141   4.445  14.369 -1.9141 -0.7372 -0.3564
 4403TIP3   OH234699   2.889   3.396  15.998  0.1409  0.5510 -0.7832
 4403TIP3    H134700   2.967   3.372  15.948  0.9375  2.2262 -0.4346
 4403TIP3    H234701   2.906   3.366  16.087  0.2913  0.7055 -0.7595
 4404TIP3   OH234702   5.835   4.151  13.812 -0.2516 -0.3265 -0.3005
 4404TIP3    H134703   5.855   4.244  13.820  0.6602 -0.5153 -0.2773
 4404TIP3    H234704   5.877   4.111  13.889  0.4056 -0.9086 -0.9458
 4405TIP3   OH234705   2.778   3.766  15.215  0.1062  0.3592 -0.6268
 4405TIP3    H134706   2.739   3.854  15.209  0.0228  0.4290  0.6793
 4405TIP3    H234707   2.704   3.707  15.199  0.2560  0.5091 -1.9924
 4406TIP3   OH234708   3.608   4.482   4.405  0.5549 -0.4433  0.3161
 4406TIP3    H134709   3.574   4.569   4.386 -1.0416 -1.2251 -0.6319
 4406TIP3    H234710   3.532   4.432   4.433  0.9277 -2.1578 -1.4924
 4407TIP3   OH234711   5.816   6.460  15.552 -0.4987  0.1466 -0.2443
 4407TIP3    H134712   5.881   6.458  15.482  1.3403 -1.5981  1.3744
 4407TIP3    H234713   5.867   6.454  15.633 -2.6436 -1.0123  1.1240
 4408TIP3   OH234714   4.950   5.273   1.520 -0.2304 -0.1398  0.0685
 4408TIP3    H134715   4.860   5.246   1.499  0.1796 -0.2490 -1.7509
 4408TIP3    H234716   4.955   5.364   1.491  0.5465 -0.4771 -0.9087
 4409TIP3   OH234717   2.056   2.968   0.537  0.2437  0.2089 -0.4072
 4409TIP3    H134718   1.996   2.896   0.554 -1.5242  1.6538 -0.3097
 4409TIP3    H234719   2.141   2.925   0.521 -0.6811 -1.8457 -0.0747
 4410TIP3   OH234720   6.059   6.268  17.103  0.3023 -0.0613 -0.3927
 4410TIP3    H134721   6.064   6.176  17.078  1.3933  0.1638 -1.0342
 4410TIP3    H234722   6.073   6.268  17.198 -0.6359 -0.6179 -0.2299
 4411TIP3   OH234723   4.112   2.222   0.894  0.1623  0.3075  0.0655
 4411TIP3    H134724   4.102   2.134   0.858 -1.4089 -0.0406  1.2707
 4411TIP3    H234725   4.152   2.208   0.980 -0.6255  0.7133  0.5057
 4412TIP3   OH234726   3.948   5.221  17.387 -0.6857 -0.4878  0.4884
 4412TIP3    H134727   3.912   5.166  17.457 -0.8280 -1.6825 -0.4866
 4412TIP3    H234728   3.872   5.241  17.331 -0.2586 -1.1612 -0.3604
 4413TIP3   OH234729   1.823   4.655  14.054 -0.3522  0.2603  0.3223
 4413TIP3    H134730   1.809   4.725  13.990 -1.2289  1.6368  1.9606
 4413TIP3    H234731   1.791   4.576  14.010 -0.7669  1.1346 -0.9974
 4414TIP3   OH234732   0.110   2.661  17.293 -0.5401 -0.1596 -0.5759
 4414TIP3    H134733   0.082   2.579  17.334 -1.2774  0.4398  0.1683
 4414TIP3    H234734   0.203   2.648  17.276 -0.4011 -0.7740  0.5056
 4415TIP3   OH234735   0.045   2.125   2.354  0.4380  0.2788  1.0136
 4415TIP3    H134736  -0.037   2.112   2.400  0.1100  1.8010  0.8991
 4415TIP3    H234737   0.105   2.062   2.394 -1.2274 -2.2983 -0.2336
 4416TIP3   OH234738   0.314   0.245   4.065 -0.2421  0.4349 -0.0099
 4416TIP3    H134739   0.380   0.178   4.084 -0.9299 -0.0683  0.6274
 4416TIP3    H234740   0.357   0.328   4.086  0.6370  0.2154 -0.8613
 4417TIP3   OH234741   5.663   4.986   4.774  0.7125 -0.1352 -0.2808
 4417TIP3    H134742   5.621   4.901   4.779  1.3084 -0.4137  0.0912
 4417TIP3    H234743   5.599   5.046   4.814  1.3280 -0.8205  1.9050
 4418TIP3   OH234744   4.272   6.642   1.676 -0.2300  0.5454 -0.2124
 4418TIP3    H134745   4.271   6.635   1.772  0.0434  0.8451 -0.1906
 4418TIP3    H234746   4.364   6.636   1.652 -0.0168  3.0747 -0.2732
 4419TIP3   OH234747   0.253   2.803  10.841 -0.2908 -0.1484  0.0911
 4419TIP3    H134748   0.240   2.881  10.894 -0.6708 -0.9854  1.2975
 4419TIP3    H234749   0.346   2.802  10.820 -0.4845  1.2025 -0.9073
 4420TIP3   OH234750   2.128   5.421   2.083  0.2194 -0.1177  0.1501
 4420TIP3    H134751   2.127   5.358   2.011 -0.9609  0.3262 -0.2444
 4420TIP3    H234752   2.171   5.498   2.046  1.3899 -0.5636  0.5405
 4421TIP3   OH234753   5.994   3.816   5.892 -0.3796  0.4322  0.7003
 4421TIP3    H134754   5.936   3.881   5.931 -0.7324  1.6395 -1.6532
 4421TIP3    H234755   6.082   3.853   5.902 -0.5051  0.9164  0.0829
 4422TIP3   OH234756   1.181   6.133  16.470 -0.7733 -0.2223 -0.4521
 4422TIP3    H134757   1.137   6.136  16.555 -1.1627  1.7878 -0.6961
 4422TIP3    H234758   1.167   6.043  16.440 -1.0790 -0.8202  1.3581
 4423TIP3   OH234759   1.450   3.168   2.479  0.1615  0.7308 -0.2719
 4423TIP3    H134760   1.435   3.245   2.425 -2.1848  0.3709 -0.2754
 4423TIP3    H234761   1.440   3.200   2.569  0.0139  0.6101 -0.2431
 4424TIP3   OH234762   1.098   4.655  16.560  0.4039 -0.1752 -0.5028
 4424TIP3    H134763   1.146   4.714  16.617 -0.7673 -1.5528  2.0677
 4424TIP3    H234764   1.016   4.702  16.540  0.2060 -0.2394  0.1411
 4425TIP3   OH234765   5.198   0.114   3.298 -0.3044  0.0766 -0.1770
 4425TIP3    H134766   5.267   0.152   3.244 -0.2639 -0.9352 -0.8718
 4425TIP3    H234767   5.244   0.069   3.369 -0.1332 -1.6738 -1.3338
 4426TIP3   OH234768   3.276   6.005   3.919 -0.3709  0.2236  0.2358
 4426TIP3    H134769   3.264   6.074   3.984  0.0365  1.1116 -0.5992
 4426TIP3    H234770   3.188   5.989   3.886 -0.6122 -0.3951  1.1507
 4427TIP3   OH234771   6.570   5.068   3.274  0.6712 -0.4546 -0.4639
 4427TIP3    H134772   6.502   5.002   3.287 -1.7925  2.1832  1.2502
 4427TIP3    H234773   6.539   5.119   3.199  0.8776  0.5949  0.1463
 4428TIP3   OH234774   5.587   0.595  13.266  0.2972  0.1600  0.3940
 4428TIP3    H134775   5.675   0.572  13.236  0.3049  0.4454  0.1994
 4428TIP3    H234776   5.529   0.535  13.219  0.2244  1.2426 -0.9180
 4429TIP3   OH234777   2.508   4.270   5.686  0.3108  0.6661 -0.0011
 4429TIP3    H134778   2.451   4.321   5.629 -0.6493 -0.2664  0.1031
 4429TIP3    H234779   2.590   4.263   5.637  0.2907  1.8553 -0.2328
 4430TIP3   OH234780   2.035   0.301  12.792  0.1961 -0.1354 -0.3741
 4430TIP3    H134781   2.012   0.364  12.723 -2.5090  2.0262  2.2343
 4430TIP3    H234782   2.103   0.345  12.842 -0.0285 -0.3139  0.0941
 4431TIP3   OH234783   5.548   4.960  17.277  0.2447  0.0983 -0.2754
 4431TIP3    H134784   5.609   4.965  17.351 -2.0801  1.2299  1.6875
 4431TIP3    H234785   5.590   4.900  17.216  3.3355  0.8614  0.9051
 4432TIP3   OH234786   0.475   2.657   0.986  0.6568  0.4478  0.0030
 4432TIP3    H134787   0.519   2.703   1.057  0.6891  0.8061 -0.2495
 4432TIP3    H234788   0.535   2.586   0.962  2.2647  2.3515 -1.9605
 4433TIP3   OH234789   3.825   0.901  10.539 -0.2331  0.0488 -0.4413
 4433TIP3    H134790   3.790   0.984  10.571  0.6176  0.6725 -1.0756
 4433TIP3    H234791   3.898   0.882  10.598 -0.9352 -0.6975  0.2180
 4434TIP3   OH234792   2.147   3.270   5.417 -0.1199 -0.2313  0.0338
 4434TIP3    H134793   2.160   3.183   5.456 -1.3288 -1.1949 -1.5855
 4434TIP3    H234794   2.189   3.265   5.332  0.0306  0.8872  0.0304
 4435TIP3   OH234795   2.402   1.077  13.940 -0.4967  0.1246 -0.4452
 4435TIP3    H134796   2.354   1.062  13.859 -1.4013  1.1061 -0.1096
 4435TIP3    H234797   2.346   1.040  14.008 -0.2480  0.2627 -0.1624
 4436TIP3   OH234798   0.312   0.405   3.500 -0.1793 -0.1636 -0.1576
 4436TIP3    H134799   0.348   0.364   3.579 -0.4704  2.0972  1.2259
 4436TIP3    H234800   0.247   0.342   3.468 -0.1338 -1.0956  1.4640
 4437TIP3   OH234801   4.924   6.083   2.214 -0.2304 -0.1169 -0.4906
 4437TIP3    H134802   4.958   5.995   2.200 -0.6053 -0.1236 -1.4408
 4437TIP3    H234803   4.998   6.141   2.197  0.4311 -0.2693  1.5609
 4438TIP3   OH234804   2.279   4.772  17.275 -0.1301  0.2109  0.0697
 4438TIP3    H134805   2.370   4.788  17.248 -0.3200  1.0494 -0.0991
 4438TIP3    H234806   2.254   4.850  17.324 -1.7620  1.4723 -2.5427
 4439TIP3   OH234807   0.657   3.839   2.607  0.2666 -0.1214 -0.0478
 4439TIP3    H134808   0.659   3.873   2.697 -1.6439  0.2034 -0.0899
 4439TIP3    H234809   0.749   3.839   2.580  1.0395 -1.2716  2.2759
 4440TIP3   OH234810   2.021   6.220  15.658  0.3443  0.7376 -0.3710
 4440TIP3    H134811   2.078   6.268  15.597  0.2030  3.0242  1.1794
 4440TIP3    H234812   1.974   6.288  15.705 -0.7085 -1.0068  1.2284
 4441TIP3   OH234813   5.201   0.202   6.161 -0.5997 -0.5290  0.1895
 4441TIP3    H134814   5.150   0.122   6.151 -0.1236 -1.1420  2.1510
 4441TIP3    H234815   5.232   0.200   6.251  1.0294  0.9276 -0.2627
 4442TIP3   OH234816   5.467   5.408   0.093  0.0512  0.1113 -0.7382
 4442TIP3    H134817   5.501   5.430   0.179  0.9531 -3.8979  0.1213
 4442TIP3    H234818   5.543   5.408   0.036  0.0476 -0.5663 -0.7481
 4443TIP3   OH234819   2.327   0.626   0.639 -0.0913 -0.1566  0.2313
 4443TIP3    H134820   2.413   0.593   0.611 -0.6516 -1.3429 -0.1311
 4443TIP3    H234821   2.273   0.621   0.560 -0.6387  0.0926  0.5904
 4444TIP3   OH234822   3.646   1.005  12.610 -0.2983 -0.2404  0.4193
 4444TIP3    H134823   3.606   0.919  12.601  0.3320 -0.4018 -0.9821
 4444TIP3    H234824   3.573   1.066  12.606 -0.5559 -0.6065 -0.6893
 4445TIP3   OH234825   0.405   2.017   2.455  0.5160 -0.3587 -0.1723
 4445TIP3    H134826   0.479   1.986   2.507  1.7636  2.3237 -0.1542
 4445TIP3    H234827   0.329   2.001   2.510  1.3007 -1.3316  0.6850
 4446TIP3   OH234828   4.808   3.974  15.086 -0.2300 -0.0617 -0.0221
 4446TIP3    H134829   4.828   3.979  15.179  1.0245  1.8814 -0.3391
 4446TIP3    H234830   4.861   3.901  15.054  2.2120  1.5040  0.1871
 4447TIP3   OH234831   0.574   4.155   1.949 -0.6796 -0.3425  0.1019
 4447TIP3    H134832   0.643   4.137   1.885 -0.5474  0.2964  0.0587
 4447TIP3    H234833   0.581   4.249   1.966 -1.1959 -0.3717  0.4975
 4448TIP3   OH234834   6.062   3.701  13.848 -0.2926 -1.3244  0.6578
 4448TIP3    H134835   6.157   3.695  13.851 -0.3146 -3.2179 -0.3386
 4448TIP3    H234836   6.032   3.619  13.888 -1.4285 -1.5335 -0.5582
 4449TIP3   OH234837   3.393   6.002   2.191 -0.2378  0.0462  0.2175
 4449TIP3    H134838   3.319   6.038   2.241 -0.4565  0.9713 -0.7356
 4449TIP3    H234839   3.363   5.916   2.161 -0.3410 -0.2433  1.1260
 4450TIP3   OH234840   4.898   2.360   4.770 -0.4656  0.0275  0.1467
 4450TIP3    H134841   4.850   2.441   4.750  1.5091  0.7330 -2.3082
 4450TIP3    H234842   4.989   2.387   4.772  0.2805 -2.1623 -1.0414
 4451TIP3   OH234843   5.590   3.433   7.158  0.1095 -0.0647 -0.3941
 4451TIP3    H134844   5.524   3.471   7.101  0.1735 -0.9688 -1.0980
 4451TIP3    H234845   5.545   3.359   7.200  0.7253 -0.8520 -1.0810
 4452TIP3   OH234846   0.263   4.817  12.139  0.0435 -0.0978  0.5587
 4452TIP3    H134847   0.233   4.870  12.065  0.5346  1.4235  1.3996
 4452TIP3    H234848   0.193   4.827  12.204  0.1334 -0.5047  0.7183
 4453TIP3   OH234849   4.666   4.136   3.989  0.2998 -0.1637  0.2979
 4453TIP3    H134850   4.580   4.119   3.950  0.4940  0.2150 -0.3087
 4453TIP3    H234851   4.653   4.215   4.042 -0.0721 -0.9245  1.3816
 4454TIP3   OH234852   0.353   4.239  11.788  0.1425 -0.5012 -0.3276
 4454TIP3    H134853   0.408   4.208  11.715 -0.6576 -1.2507 -0.6298
 4454TIP3    H234854   0.408   4.228  11.866  0.7838 -0.2765 -0.7431
 4455TIP3   OH234855   2.712   4.618   2.628 -0.0188  0.5130  0.0778
 4455TIP3    H134856   2.765   4.692   2.657  0.8834 -0.8005  2.0037
 4455TIP3    H234857   2.644   4.609   2.695 -0.2356 -0.2732 -0.2381
 4456TIP3   OH234858   2.310   4.571   5.657  0.0244 -0.4943 -0.3203
 4456TIP3    H134859   2.265   4.584   5.741  0.5681 -1.5616  0.1554
 4456TIP3    H234860   2.403   4.577   5.678  0.2198 -2.1033 -0.5575
 4457TIP3   OH234861   2.489   6.295  16.235 -0.4965  0.0758 -0.0561
 4457TIP3    H134862   2.519   6.229  16.173  0.7622  1.6895 -1.2304
 4457TIP3    H234863   2.566   6.314  16.289 -0.2900  1.8308 -0.9000
 4458TIP3   OH234864   6.748   1.600   0.735 -0.5797  0.7671 -0.4185
 4458TIP3    H134865   6.756   1.610   0.641  0.9216  3.5791 -0.1110
 4458TIP3    H234866   6.838   1.605   0.767 -0.6947 -3.2321  1.0500
 4459TIP3   OH234867   4.302   4.620  12.484 -0.1350  0.4253  0.1650
 4459TIP3    H134868   4.302   4.698  12.429  0.2070  0.6229  0.4502
 4459TIP3    H234869   4.305   4.547  12.421  0.4226  0.6538 -0.0750
 4460TIP3   OH234870   1.816   1.191  11.212 -0.5845  0.1598  0.0794
 4460TIP3    H134871   1.774   1.118  11.258  0.4469 -1.2999 -1.1637
 4460TIP3    H234872   1.868   1.148  11.143 -0.6262  2.1230 -1.2506
 4461TIP3   OH234873   4.608   2.746  12.525  0.0885 -0.0586  0.1807
 4461TIP3    H134874   4.696   2.758  12.490 -0.0337 -0.7726 -0.4005
 4461TIP3    H234875   4.611   2.661  12.570 -0.8331 -1.1729 -1.7055
 4462TIP3   OH234876   0.044   6.031  14.930 -0.0512  0.0362 -0.0742
 4462TIP3    H134877   0.081   5.943  14.922 -1.6289 -0.5847 -0.9433
 4462TIP3    H234878   0.075   6.077  14.851  2.3552  0.9418  1.2933
 4463TIP3   OH234879   2.442   2.147  14.923  0.4470 -0.0069  0.5140
 4463TIP3    H134880   2.426   2.053  14.933  1.8734 -0.5562 -1.7327
 4463TIP3    H234881   2.437   2.163  14.829 -0.7432  2.4022  0.9061
 4464TIP3   OH234882   0.010   0.278  16.358 -0.0816 -0.2180  0.3288
 4464TIP3    H134883   0.084   0.234  16.318 -0.4707 -1.6582  1.0982
 4464TIP3    H234884  -0.005   0.229  16.440 -0.8944  1.0150  0.9448
 4465TIP3   OH234885   2.309   3.524   3.765 -0.6688 -0.0634 -0.2243
 4465TIP3    H134886   2.309   3.434   3.733  2.4262 -1.0979  2.2443
 4465TIP3    H234887   2.287   3.517   3.858  0.0505  1.6982  0.1225
 4466TIP3   OH234888   0.954   4.052   0.449 -0.4077  0.2362 -0.1781
 4466TIP3    H134889   0.978   4.137   0.486  1.6975  0.0493 -0.9718
 4466TIP3    H234890   0.860   4.059   0.433 -0.5350  1.9316  0.9704
 4467TIP3   OH234891   1.640   5.917   6.223  0.3546 -0.0113 -0.2351
 4467TIP3    H134892   1.623   5.881   6.310 -0.8368  1.4165  0.1507
 4467TIP3    H234893   1.591   5.999   6.220  0.9526  0.3322 -2.0014
 4468TIP3   OH234894   5.482   0.214   2.944  0.1769 -0.4412 -0.0228
 4468TIP3    H134895   5.507   0.301   2.974 -0.6179  0.1472 -0.9974
 4468TIP3    H234896   5.478   0.161   3.024 -0.2813  0.6570  0.7018
 4469TIP3   OH234897   5.446   4.416   1.701 -0.0046  0.3397  0.6386
 4469TIP3    H134898   5.405   4.334   1.674 -0.7925  0.9432 -0.0354
 4469TIP3    H234899   5.475   4.399   1.791  1.1018 -1.1205  0.0583
 4470TIP3   OH234900   0.311   4.879  15.586  0.3527 -0.4165 -0.5280
 4470TIP3    H134901   0.330   4.913  15.498  2.4629  1.6215  0.5931
 4470TIP3    H234902   0.369   4.928  15.644 -3.1262  0.7024  2.4611
 4471TIP3   OH234903   3.067   6.686   3.030  0.7073 -0.5424 -0.3794
 4471TIP3    H134904   3.013   6.676   3.109 -0.1917  2.3198 -0.5374
 4471TIP3    H234905   3.136   6.747   3.056  2.1252 -1.7807 -1.0686
 4472TIP3   OH234906   0.795   3.177   2.499  0.1354  0.2410 -0.0295
 4472TIP3    H134907   0.826   3.128   2.423 -0.6791 -0.2351 -0.0700
 4472TIP3    H234908   0.832   3.131   2.574  0.9696  0.7324 -0.1272
 4473TIP3   OH234909   5.825   5.834  14.751  0.0484 -0.5544  0.3546
 4473TIP3    H134910   5.837   5.900  14.682  1.7960 -1.7005 -0.5230
 4473TIP3    H234911   5.878   5.866  14.824 -2.5783  1.1667  1.6661
 4474TIP3   OH234912   5.763   1.899  13.033 -0.0952 -0.2031 -0.7178
 4474TIP3    H134913   5.684   1.929  12.990  0.3132  1.1620 -0.5529
 4474TIP3    H234914   5.748   1.916  13.126 -0.5317 -2.1220 -0.3938
 4475TIP3   OH234915   0.188   3.397   3.934 -0.6243  0.2871 -0.2164
 4475TIP3    H134916   0.106   3.356   3.961 -0.5708  1.0866  1.2251
 4475TIP3    H234917   0.253   3.368   3.998 -0.3225  1.6130  0.1117
 4476TIP3   OH234918   5.202   0.981   1.482 -0.5136 -0.3807  0.3216
 4476TIP3    H134919   5.128   1.024   1.439  0.4381  1.8168  0.7448
 4476TIP3    H234920   5.243   0.930   1.412 -2.0997 -1.2809 -0.0225
 4477TIP3   OH234921   5.471   5.204   4.657 -0.2947 -0.5766 -0.2221
 4477TIP3    H134922   5.535   5.226   4.724  1.0552 -2.8052 -0.6866
 4477TIP3    H234923   5.478   5.274   4.592  0.7815 -0.1523  0.3322
 4478TIP3   OH234924   2.669   4.847   0.996  0.0253 -0.1728 -0.4220
 4478TIP3    H134925   2.634   4.876   0.911  0.7389  0.2371 -0.5805
 4478TIP3    H234926   2.764   4.849   0.985  0.1261 -0.0284  0.4210
 4479TIP3   OH234927   1.798   3.703   0.206 -0.3129  0.0768  0.1634
 4479TIP3    H134928   1.874   3.760   0.195 -1.6594  1.8711 -0.3113
 4479TIP3    H234929   1.801   3.645   0.130  0.7888 -0.1743  0.3720
 4480TIP3   OH234930   1.320   1.225   3.711  0.0077  0.1175  0.2099
 4480TIP3    H134931   1.332   1.155   3.646 -0.8007 -0.0561  0.2440
 4480TIP3    H234932   1.244   1.273   3.680 -0.3469  0.0734  1.0057
 4481TIP3   OH234933   4.452   6.792  17.357 -0.4586 -0.6629 -0.1685
 4481TIP3    H134934   4.434   6.880  17.324  0.5795 -0.0348  0.8425
 4481TIP3    H234935   4.416   6.733  17.291  0.9249  0.5299 -2.0788
 4482TIP3   OH234936   1.272   0.198  13.450 -0.2843  0.0319  0.1226
 4482TIP3    H134937   1.320   0.277  13.429 -0.2518  0.3526  1.3004
 4482TIP3    H234938   1.337   0.128  13.449 -0.0366  0.2570  0.4548
 4483TIP3   OH234939   3.834   1.755   1.659  0.7117  0.0692  0.2327
 4483TIP3    H134940   3.779   1.791   1.589  0.3701  0.4375  0.6835
 4483TIP3    H234941   3.891   1.692   1.615  0.1306 -0.0975 -0.2910
 4484TIP3   OH234942   4.258   0.967   2.062 -0.2435  0.0893 -0.2510
 4484TIP3    H134943   4.270   0.979   2.156  2.5468  2.1114 -0.7546
 4484TIP3    H234944   4.329   0.909   2.035 -0.6223  0.0619 -1.2431
 4485TIP3   OH234945   0.282   2.500  12.464  0.4885 -0.0750 -0.0685
 4485TIP3    H134946   0.255   2.408  12.468  0.8653 -0.2486 -1.1930
 4485TIP3    H234947   0.216   2.542  12.408  1.2126 -0.0149 -0.9022
 4486TIP3   OH234948   3.802   5.348   1.411 -0.3780 -0.4531  0.1762
 4486TIP3    H134949   3.790   5.275   1.350 -2.0342 -1.1091  1.2090
 4486TIP3    H234950   3.817   5.307   1.496 -0.5954  0.3991  0.6430
 4487TIP3   OH234951   6.712   3.383   3.170  0.6538 -0.0531  0.1399
 4487TIP3    H134952   6.619   3.400   3.157  0.6769  0.1188  0.1966
 4487TIP3    H234953   6.735   3.320   3.102  0.3701 -0.5189  0.4642
 4488TIP3   OH234954   1.704   0.464   3.140 -0.1031  0.0479 -0.1756
 4488TIP3    H134955   1.625   0.460   3.086 -1.1685  0.6017  1.2848
 4488TIP3    H234956   1.675   0.504   3.222  1.6613  0.0765  0.4756
 4489TIP3   OH234957   2.771   5.485  10.902  0.4196 -0.1651  0.3253
 4489TIP3    H134958   2.829   5.539  10.848  0.8881 -0.6486  0.3406
 4489TIP3    H234959   2.686   5.491  10.858  0.7586 -0.4198 -0.3821
 4490TIP3   OH234960   6.218   4.437  17.361  0.5303 -0.2231 -0.1568
 4490TIP3    H134961   6.140   4.479  17.398  0.2025  0.1820 -1.2913
 4490TIP3    H234962   6.292   4.486  17.400  0.2409 -0.5957  0.9031
 4491TIP3   OH234963   6.006   1.996  15.083  0.2799 -0.9392 -0.2819
 4491TIP3    H134964   5.963   2.068  15.130 -0.6839 -1.7211  0.0578
 4491TIP3    H234965   6.040   2.037  15.003  2.4425  0.5514  1.2824
 4492TIP3   OH234966   2.026   5.483   5.764 -0.4211 -0.8403 -0.4140
 4492TIP3    H134967   2.033   5.494   5.859 -0.0645  0.7613 -0.6058
 4492TIP3    H234968   2.097   5.536   5.728 -0.5517 -1.4307 -1.5799
 4493TIP3   OH234969   3.337   1.460  14.217  0.2320  0.4925  0.2151
 4493TIP3    H134970   3.277   1.471  14.290 -0.5278 -0.0552 -0.3222
 4493TIP3    H234971   3.398   1.392  14.245 -0.0870  0.2507  0.3264
 4494TIP3   OH234972   3.669   5.627  15.429  0.2055 -0.0606  0.1655
 4494TIP3    H134973   3.690   5.544  15.387  3.2203 -0.0841  1.4295
 4494TIP3    H234974   3.720   5.692  15.381  1.4067  0.3207  1.8227
 4495TIP3   OH234975   3.889   2.548  11.676  0.1847  0.0368  0.0450
 4495TIP3    H134976   3.801   2.585  11.661 -0.2259 -0.3620  1.3594
 4495TIP3    H234977   3.933   2.613  11.730  0.0991 -0.5326  0.8157
 4496TIP3   OH234978   1.411   1.829   4.562  0.1783  0.4179  0.3649
 4496TIP3    H134979   1.485   1.770   4.571  1.1059  1.1986 -1.4856
 4496TIP3    H234980   1.446   1.915   4.585 -0.0414  0.8306 -0.7370
 4497TIP3   OH234981   2.948   4.108   1.514  0.4815  0.5009  0.0823
 4497TIP3    H134982   2.969   4.137   1.603 -1.3374  2.5904 -0.1039
 4497TIP3    H234983   2.928   4.015   1.524  0.5606  0.6308  1.8117
 4498TIP3   OH234984   5.208   4.803   0.771  0.3951  0.4328 -0.2085
 4498TIP3    H134985   5.138   4.824   0.833 -0.5096 -1.1870 -0.6358
 4498TIP3    H234986   5.283   4.781   0.827  0.4497  1.6782  0.2525
 4499TIP3   OH234987   2.943   4.457   5.014  0.0404  0.0871  0.0934
 4499TIP3    H134988   2.967   4.372   4.977 -0.3249  0.1283 -0.2447
 4499TIP3    H234989   2.941   4.443   5.108 -0.2282 -0.3327  0.0258
 4500TIP3   OH234990   1.933   3.410   0.399  0.4977 -0.2949  0.1102
 4500TIP3    H134991   1.874   3.377   0.332  0.6873 -0.1699 -0.1161
 4500TIP3    H234992   1.946   3.503   0.377 -1.1863  0.3442  1.5494
 4501TIP3   OH234993   0.934   1.925   5.873  0.1708 -0.7906  0.5569
 4501TIP3    H134994   1.021   1.890   5.853 -0.4089 -0.7733 -2.5549
 4501TIP3    H234995   0.874   1.854   5.849 -0.7194 -0.7478  2.5255
 4502TIP3   OH234996   1.027   3.268  16.717 -0.0197 -0.8098  0.5145
 4502TIP3    H134997   1.054   3.177  16.703  1.4613 -0.4686  0.9089
 4502TIP3    H234998   1.055   3.287  16.807  3.3686  1.1910 -0.7750
 4503TIP3   OH234999   1.833   2.883   0.742  0.2299 -0.1262 -0.3219
 4503TIP3    H135000   1.818   2.821   0.813 -1.9014  0.0460 -0.5685
 4503TIP3    H235001   1.796   2.966   0.773 -2.0012 -0.3684 -2.0456
 4504TIP3   OH235002   1.902   6.458   2.678  0.0281  0.2147  0.3334
 4504TIP3    H135003   1.945   6.381   2.639  0.0319 -0.2616  1.2380
 4504TIP3    H235004   1.896   6.437   2.771 -1.6274  0.5267  0.3308
 4505TIP3   OH235005   2.183   2.678   2.621 -0.3488 -0.2359  0.4296
 4505TIP3    H135006   2.139   2.704   2.539 -1.0293 -0.9544  0.5567
 4505TIP3    H235007   2.111   2.657   2.681  0.1034  1.2787  1.5783
 4506TIP3   OH235008   4.740   2.025  16.632  0.5419  0.5780 -0.3656
 4506TIP3    H135009   4.786   2.083  16.571 -0.0875 -0.1274 -1.5372
 4506TIP3    H235010   4.714   2.083  16.704  1.9586  1.2730 -0.3820
 4507TIP3   OH235011   6.705   6.386  14.789  0.1692  0.3224  0.0578
 4507TIP3    H135012   6.783   6.379  14.734  0.4222  0.2654  0.4199
 4507TIP3    H235013   6.673   6.296  14.797  0.8634  0.1475  1.0429
 4508TIP3   OH235014   5.032   0.175  12.762  0.6852  0.2883  0.0693
 4508TIP3    H135015   5.107   0.211  12.714  0.3153  0.4207 -0.4184
 4508TIP3    H235016   4.960   0.235  12.741  0.2150 -0.3834 -0.2333
 4509TIP3   OH235017   4.568   3.198   4.283 -0.8293 -0.1798  0.3772
 4509TIP3    H135018   4.485   3.161   4.312 -0.3879 -1.3518  0.1881
 4509TIP3    H235019   4.628   3.123   4.278  0.2906  0.6623  0.6787
 4510TIP3   OH235020   5.107   5.500   0.223  0.4817 -0.4151 -0.2579
 4510TIP3    H135021   5.142   5.411   0.230 -0.6301 -0.8402  0.0404
 4510TIP3    H235022   5.118   5.537   0.311 -2.7517 -1.7075  0.8536
 4511TIP3   OH235023   3.861   1.835  14.292 -0.6880  0.2336 -0.2500
 4511TIP3    H135024   3.816   1.791  14.220 -2.3764  1.0574  0.2278
 4511TIP3    H235025   3.912   1.904  14.250  1.1093 -1.4181 -0.9032
 4512TIP3   OH235026   2.648   2.994   3.107 -0.2162 -0.6951 -0.0649
 4512TIP3    H135027   2.689   2.917   3.148  1.4672 -0.4032 -1.0942
 4512TIP3    H235028   2.586   2.957   3.044 -1.0054 -1.1601  0.9551
 4513TIP3   OH235029   4.488   2.061  14.705 -0.3828  0.3561  0.0808
 4513TIP3    H135030   4.497   2.073  14.799 -0.2710  0.7302  0.0241
 4513TIP3    H235031   4.413   2.003  14.695  1.2677 -2.0145  0.5244
 4514TIP3   OH235032   1.199   4.220   5.281  0.1311 -0.2593 -0.3320
 4514TIP3    H135033   1.137   4.253   5.346  0.1666 -0.8424  0.0062
 4514TIP3    H235034   1.281   4.210   5.329  0.1783 -0.6128 -0.4818
 4515TIP3   OH235035   5.633   3.103  15.495 -0.1559  0.1422  0.2264
 4515TIP3    H135036   5.581   3.025  15.511  1.2152 -0.8567 -0.0206
 4515TIP3    H235037   5.617   3.124  15.403 -1.8575  1.2119  0.7106
 4516TIP3   OH235038   3.779   6.272   0.618 -0.0602  0.0991  0.0751
 4516TIP3    H135039   3.801   6.254   0.709  2.5939  0.1482 -0.4727
 4516TIP3    H235040   3.807   6.363   0.604 -0.9648  0.2819 -0.6593
 4517TIP3   OH235041   0.254   3.519  15.470 -0.1773  1.0794  0.3144
 4517TIP3    H135042   0.220   3.453  15.409  0.8441  0.1263  0.7522
 4517TIP3    H235043   0.274   3.595  15.415  1.0477  0.1230 -0.6132
 4518TIP3   OH235044   5.642   0.715  13.516 -0.1129  0.4208  0.3264
 4518TIP3    H135045   5.599   0.683  13.436 -0.1359  0.2455  0.4071
 4518TIP3    H235046   5.735   0.700  13.501  0.1001  2.2894 -0.5196
 4519TIP3   OH235047   5.134   5.278  16.877 -0.6940 -0.3771 -0.0063
 4519TIP3    H135048   5.071   5.278  16.950 -0.1573  1.4031  0.5179
 4519TIP3    H235049   5.083   5.249  16.801 -2.2651  1.2667  0.3384
 4520TIP3   OH235050   3.605   4.101   1.282 -0.8158 -0.5479  0.3405
 4520TIP3    H135051   3.571   4.075   1.367  0.8291  0.1207  1.2655
 4520TIP3    H235052   3.686   4.050   1.273  0.2157  1.0495  0.2493
 4521TIP3   OH235053   4.212   1.847  12.986  0.2920  0.1266 -0.5584
 4521TIP3    H135054   4.268   1.908  13.034  2.0480 -1.7505 -0.0540
 4521TIP3    H235055   4.150   1.815  13.052  1.2506 -0.7601 -0.0525
 4522TIP3   OH235056   0.508   4.353  15.172  0.4894  0.2808 -0.2446
 4522TIP3    H135057   0.559   4.371  15.252  0.6775  1.5228 -0.6257
 4522TIP3    H235058   0.514   4.258  15.161  0.4071  0.0719  1.2520
 4523TIP3   OH235059   2.727   1.619   2.946 -0.0658 -0.3996  0.1236
 4523TIP3    H135060   2.655   1.570   2.984 -1.1015  0.9630  0.0039
 4523TIP3    H235061   2.756   1.677   3.016  1.7118 -1.6933  0.5407
 4524TIP3   OH235062   1.338   5.787   0.289  0.1816  0.5104 -0.4173
 4524TIP3    H135063   1.427   5.778   0.323  0.5519  2.9265 -0.6038
 4524TIP3    H235064   1.293   5.842   0.352 -0.8160  0.3690 -0.9825
 4525TIP3   OH235065   3.682   5.025  14.525  0.1507 -0.1316  0.5174
 4525TIP3    H135066   3.708   4.963  14.593  0.5295  0.5790  1.0237
 4525TIP3    H235067   3.649   4.970  14.454  2.8768 -1.0832 -0.1086
 4526TIP3   OH235068   1.621   0.411   2.735  0.4317 -0.7411 -0.2514
 4526TIP3    H135069   1.692   0.417   2.671  0.8299  1.2327  0.3224
 4526TIP3    H235070   1.582   0.325   2.719  2.3609 -1.5073 -1.1850
 4527TIP3   OH235071   4.122   4.859   4.176 -0.4822 -0.2607  0.1910
 4527TIP3    H135072   4.115   4.814   4.092 -1.3214 -0.4290  0.3414
 4527TIP3    H235073   4.212   4.891   4.179  0.2057 -2.0764  0.1602
 4528TIP3   OH235074   5.197   6.496  16.032  0.2707 -0.3875 -0.2156
 4528TIP3    H135075   5.186   6.548  15.953  0.6952 -1.0223 -0.6973
 4528TIP3    H235076   5.138   6.421  16.020  0.0579 -0.2995  0.2397
 4529TIP3   OH235077   0.653   4.301   0.715 -0.4190  0.2645 -0.1043
 4529TIP3    H135078   0.627   4.384   0.757 -0.1615 -0.3006  1.2354
 4529TIP3    H235079   0.716   4.327   0.648 -2.1079  1.3746 -1.3671
 4530TIP3   OH235080   1.994   2.555   2.792  0.3718  0.1846  0.2527
 4530TIP3    H135081   2.051   2.482   2.814  0.4981  0.5188  1.0813
 4530TIP3    H235082   1.906   2.518   2.789  0.3289  0.1496  1.5195
 4531TIP3   OH235083   3.787   5.814   3.149 -0.0065 -0.4570  0.1477
 4531TIP3    H135084   3.873   5.854   3.136 -0.4947  0.9048  0.9499
 4531TIP3    H235085   3.732   5.853   3.081 -0.2684 -0.4754  0.3513
 4532TIP3   OH235086   6.183   5.682  12.772  0.1203 -0.0705 -0.2527
 4532TIP3    H135087   6.264   5.675  12.824 -0.6683  1.5107  1.3004
 4532TIP3    H235088   6.190   5.611  12.708  0.8259 -2.7071  2.4808
 4533TIP3   OH235089   6.348   5.645   5.258 -0.1658  0.5939 -0.9852
 4533TIP3    H135090   6.314   5.723   5.214 -0.2606  0.3500 -1.3525
 4533TIP3    H235091   6.275   5.615   5.313 -0.0852  0.8379 -0.7460
 4534TIP3   OH235092   2.786   6.634  16.463  0.1094  0.6451  0.0981
 4534TIP3    H135093   2.720   6.671  16.405  0.4789  2.5819  0.8220
 4534TIP3    H235094   2.841   6.709  16.487  0.4916 -0.2421  2.2334
 4535TIP3   OH235095   4.824   4.942  15.242 -0.5032 -0.6028  0.0600
 4535TIP3    H135096   4.798   4.972  15.155 -1.1870 -1.1166  0.0703
 4535TIP3    H235097   4.741   4.932  15.289 -0.0499  1.7630  1.5061
 4536TIP3   OH235098   0.224   4.633   2.205  0.1212 -0.0376  0.3274
 4536TIP3    H135099   0.302   4.680   2.174 -0.1166 -0.0513 -0.3156
 4536TIP3    H235100   0.226   4.642   2.300  0.7031  0.2853  0.2884
 4537TIP3   OH235101   4.812   1.031  14.251  0.9365 -0.2317 -0.6325
 4537TIP3    H135102   4.817   1.119  14.215  1.6280  0.3447  0.8075
 4537TIP3    H235103   4.732   0.994  14.214  1.3479  0.4934 -2.3253
 4538TIP3   OH235104   4.025   4.541   5.873 -0.0011  0.1292  0.4020
 4538TIP3    H135105   3.954   4.538   5.808 -0.3005  1.1192  0.6657
 4538TIP3    H235106   4.006   4.467   5.931  0.7041 -1.2518 -1.0407
 4539TIP3   OH235107   2.132   2.261   5.016  0.3487  0.8050  0.2219
 4539TIP3    H135108   2.133   2.211   4.934  1.6166  1.0312  0.0697
 4539TIP3    H235109   2.048   2.305   5.016  0.1630  0.4897 -0.7696
 4540TIP3   OH235110   1.642   2.389  11.801 -0.1673 -0.0084 -0.0362
 4540TIP3    H135111   1.660   2.304  11.841 -0.6560 -0.0932  0.0029
 4540TIP3    H235112   1.588   2.369  11.725 -0.4742  0.2889  0.1045
 4541TIP3   OH235113   6.685   5.927  16.921 -0.8025 -0.2777  0.1806
 4541TIP3    H135114   6.686   6.009  16.969  1.5220  0.6609 -1.3031
 4541TIP3    H235115   6.709   5.860  16.985 -1.3862  0.3826  1.0955
 4542TIP3   OH235116   3.383   4.859  11.342  0.0052 -0.8486  0.8026
 4542TIP3    H135117   3.357   4.905  11.422 -3.0535  0.1542 -0.6276
 4542TIP3    H235118   3.383   4.927  11.274  2.7008 -1.6369 -0.0959
 4543TIP3   OH235119   3.160   4.970   0.840 -0.3819  0.4387 -0.3856
 4543TIP3    H135120   3.112   4.920   0.774 -0.2787  0.0708 -0.1823
 4543TIP3    H235121   3.191   5.047   0.793 -1.1588  0.6748 -0.5281
 4544TIP3   OH235122   5.217   0.653  12.435 -0.0870  0.3356 -0.2850
 4544TIP3    H135123   5.310   0.668  12.419  0.0354  0.6399  0.6394
 4544TIP3    H235124   5.196   0.710  12.510 -0.5818 -1.0880  0.6913
 4545TIP3   OH235125   5.292   4.739   3.416  0.0247 -0.0826 -0.0511
 4545TIP3    H135126   5.276   4.748   3.510 -0.8388  2.3270 -0.3594
 4545TIP3    H235127   5.205   4.740   3.377  0.4327  1.0857 -0.9899
 4546TIP3   OH235128   5.004   5.639   1.325  0.1408 -0.0796  0.5823
 4546TIP3    H135129   4.917   5.644   1.286  1.0511  3.7865 -1.5336
 4546TIP3    H235130   5.047   5.567   1.279 -0.8085  0.3542 -1.0585
 4547TIP3   OH235131   3.424   2.534   4.665  0.7465 -0.0934 -0.1484
 4547TIP3    H135132   3.456   2.447   4.640  0.5556 -0.0845 -0.4324
 4547TIP3    H235133   3.458   2.548   4.753 -2.0786 -1.9169  1.3927
 4548TIP3   OH235134   1.409   0.573   1.827 -0.3668  0.4917 -0.6338
 4548TIP3    H135135   1.314   0.560   1.826 -0.2212 -0.9359  0.4915
 4548TIP3    H235136   1.441   0.521   1.754 -0.3081 -0.7047  0.2110
 4549TIP3   OH235137   5.353   3.776   2.502  0.4526  0.3296 -0.9206
 4549TIP3    H135138   5.404   3.813   2.574  0.0371  0.1975 -0.5560
 4549TIP3    H235139   5.321   3.852   2.453  1.3251  0.4098 -1.3915
 4550TIP3   OH235140   4.858   6.536  16.965 -0.2767  0.5802  0.0053
 4550TIP3    H135141   4.889   6.579  17.045  0.5643  1.4405 -0.7552
 4550TIP3    H235142   4.844   6.445  16.990 -0.3296  0.9102  1.2104
 4551TIP3   OH235143   1.912   3.835   5.234 -0.0571 -0.1181  0.0446
 4551TIP3    H135144   1.897   3.740   5.227  0.2345 -0.0697 -1.7091
 4551TIP3    H235145   1.825   3.871   5.255 -0.0553 -0.8043  1.3050
 4552TIP3   OH235146   0.762   1.623  16.458 -0.1642  0.0359 -0.3161
 4552TIP3    H135147   0.803   1.699  16.497 -0.0672  0.0410 -0.4300
 4552TIP3    H235148   0.720   1.578  16.532  0.4056 -0.2003 -0.1323
 4553TIP3   OH235149   4.371   0.930   1.711  0.6424 -0.1020  0.1137
 4553TIP3    H135150   4.310   0.998   1.684  0.8032 -0.2861 -0.7686
 4553TIP3    H235151   4.315   0.860   1.745  0.2361 -0.7074 -1.6564
 4554TIP3   OH235152   3.130   0.618   3.161 -0.4417 -0.4129  0.3722
 4554TIP3    H135153   3.195   0.647   3.098 -1.6724  0.6881 -0.4369
 4554TIP3    H235154   3.172   0.632   3.246  1.4832 -2.5130 -0.1365
 4555TIP3   OH235155   3.724   0.388   4.319  0.4815 -0.6042 -0.7621
 4555TIP3    H135156   3.656   0.327   4.347 -1.0031  0.8388 -1.0230
 4555TIP3    H235157   3.790   0.384   4.388 -1.3458  0.1786  1.1700
 4556TIP3   OH235158   5.994   5.781  11.447 -0.0160  0.0338 -0.4426
 4556TIP3    H135159   6.038   5.805  11.528 -0.4309 -1.3109  0.2009
 4556TIP3    H235160   6.038   5.701  11.418 -0.5981 -0.1120 -0.9480
 4557TIP3   OH235161   2.739   3.291  13.877 -0.0287 -0.7032 -0.1767
 4557TIP3    H135162   2.793   3.347  13.822  0.6079 -1.6352 -0.5336
 4557TIP3    H235163   2.800   3.230  13.917 -0.6296 -0.7626  0.6789
 4558TIP3   OH235164   2.420   3.568  14.874  0.1054 -0.0349 -0.3138
 4558TIP3    H135165   2.439   3.611  14.790  0.6043 -0.4743 -0.4324
 4558TIP3    H235166   2.468   3.486  14.870 -1.9770 -1.3023 -0.6840
 4559TIP3   OH235167   6.082   0.167   0.742 -0.7912  0.2743 -0.3292
 4559TIP3    H135168   6.054   0.172   0.834 -0.1759  2.4787 -0.2125
 4559TIP3    H235169   6.001   0.177   0.692 -1.2841 -1.9463 -0.1118
 4560TIP3   OH235170   2.804   3.754  16.295 -0.7319 -0.6419  0.0652
 4560TIP3    H135171   2.872   3.813  16.261  0.7582 -2.2425  0.0769
 4560TIP3    H235172   2.769   3.711  16.217 -0.4186 -1.1440  0.1948
 4561TIP3   OH235173   4.592   3.945   1.226  0.8229 -0.6428  0.0417
 4561TIP3    H135174   4.538   4.014   1.265  1.7778 -0.7319  1.6021
 4561TIP3    H235175   4.626   3.984   1.146 -0.5141 -0.1488 -0.3280
 4562TIP3   OH235176   2.991   6.251   4.448 -0.3963  0.3536  0.2576
 4562TIP3    H135177   3.059   6.209   4.396 -0.8230 -0.5594  0.4021
 4562TIP3    H235178   3.016   6.233   4.539 -0.2286  1.0014  0.3436
 4563TIP3   OH235179   4.262   0.998   3.818 -0.2932  0.3315 -0.0342
 4563TIP3    H135180   4.298   0.937   3.754  0.5223  0.9296 -0.1602
 4563TIP3    H235181   4.328   1.067   3.825 -1.3848  1.4067 -0.1856
 4564TIP3   OH235182   4.854   6.241  12.289  0.7791  0.2580 -0.1757
 4564TIP3    H135183   4.876   6.250  12.382  1.6128 -0.0937 -0.3352
 4564TIP3    H235184   4.893   6.158  12.263 -1.2383 -0.6862 -0.3451
 4565TIP3   OH235185   6.004   4.845   3.635 -0.2028 -0.1828  0.2728
 4565TIP3    H135186   6.087   4.822   3.678 -0.7898 -0.3902  1.3379
 4565TIP3    H235187   6.021   4.930   3.594  0.1029  0.5197  1.7837
 4566TIP3   OH235188   2.291   6.620   3.762 -0.0768 -0.1391  0.3770
 4566TIP3    H135189   2.376   6.665   3.771 -0.1974 -0.2063  2.3719
 4566TIP3    H235190   2.233   6.668   3.821 -2.1521  1.3962 -2.6769
 4567TIP3   OH235191   2.042   1.675   3.246 -0.3470  0.3988  0.2232
 4567TIP3    H135192   1.976   1.607   3.257  0.3636 -0.2789  0.4405
 4567TIP3    H235193   2.004   1.736   3.184 -1.3573  0.2631  0.6958
 4568TIP3   OH235194   3.180   2.062   2.076 -0.3582  0.1197  0.3457
 4568TIP3    H135195   3.205   1.971   2.061 -0.7056 -0.0290  0.6284
 4568TIP3    H235196   3.113   2.080   2.010  0.5500  0.5526 -0.4835
 4569TIP3   OH235197   6.515   0.021  12.056 -0.2540 -0.1110  0.0363
 4569TIP3    H135198   6.602   0.031  12.094 -0.0727 -0.5848 -0.2500
 4569TIP3    H235199   6.495  -0.072  12.066 -0.8266  0.0387  0.3133
 4570TIP3   OH235200   1.736   2.712   0.953  0.1959 -0.1565  0.1812
 4570TIP3    H135201   1.756   2.687   1.043  1.1635 -0.7064 -0.1759
 4570TIP3    H235202   1.692   2.636   0.916  1.3661 -0.6139 -0.3149
 4571TIP3   OH235203   2.797   1.467   3.244 -0.0166 -0.1745  0.0756
 4571TIP3    H135204   2.831   1.441   3.158  0.1653 -0.2314  0.1655
 4571TIP3    H235205   2.839   1.408   3.306  1.3287  1.0782  0.4139
 4572TIP3   OH235206   0.344   4.372  14.616  0.1121 -0.5929 -0.7885
 4572TIP3    H135207   0.413   4.416  14.567  1.4079 -2.0103 -0.3125
 4572TIP3    H235208   0.378   4.368  14.706 -0.3435 -1.7920 -0.6625
 4573TIP3   OH235209   2.419   3.000   1.583  0.1634 -0.1610  0.5710
 4573TIP3    H135210   2.347   2.947   1.548  1.7284 -2.4651  0.6090
 4573TIP3    H235211   2.469   3.027   1.506  0.9148 -1.1729  0.6719
 4574TIP3   OH235212   4.655   0.461  15.846 -0.1896  0.0426 -0.1023
 4574TIP3    H135213   4.653   0.406  15.768 -0.3099 -0.7758  0.4543
 4574TIP3    H235214   4.655   0.398  15.919 -0.4367  0.7916  0.5571
 4575TIP3   OH235215   5.463   4.674   0.668  0.3844 -0.5348 -0.2451
 4575TIP3    H135216   5.447   4.719   0.585  0.5490  0.1985  0.1141
 4575TIP3    H235217   5.378   4.675   0.712  0.5205 -0.0202  0.0219
 4576TIP3   OH235218   5.885   5.688   5.463 -0.0254  0.1628  0.9340
 4576TIP3    H135219   5.858   5.643   5.383  1.6937  2.3921 -1.0443
 4576TIP3    H235220   5.981   5.685   5.461  0.2241  3.6887  0.6690
 4577TIP3   OH235221   6.554   0.964   6.630  0.0153  0.6096  0.1262
 4577TIP3    H135222   6.504   0.935   6.707 -0.9280 -0.1119 -0.7328
 4577TIP3    H235223   6.555   0.888   6.572 -1.3098  1.8174 -1.5893
 4578TIP3   OH235224   2.529   5.364  12.797  0.4577  0.0517 -0.4704
 4578TIP3    H135225   2.531   5.294  12.731  0.5271 -0.7817  0.3862
 4578TIP3    H235226   2.621   5.388  12.809  0.4851 -0.1235 -0.3345
 4579TIP3   OH235227   4.794   0.166  17.327  0.1949  0.2691  0.1892
 4579TIP3    H135228   4.843   0.179  17.408 -0.4395 -0.7032  0.7510
 4579TIP3    H235229   4.719   0.225  17.335  0.5122  0.7105 -0.0313
 4580TIP3   OH235230   5.542   6.652   1.090 -0.0695  0.5993  0.6185
 4580TIP3    H135231   5.619   6.609   1.053  0.2613  1.3573  0.4254
 4580TIP3    H235232   5.552   6.641   1.185 -0.6274 -0.8396  0.5415
 4581TIP3   OH235233   0.675   1.421   5.246 -0.2319 -0.0593 -0.1587
 4581TIP3    H135234   0.646   1.500   5.292 -0.0733  2.3478 -3.7870
 4581TIP3    H235235   0.763   1.442   5.215 -1.0943 -0.5505 -3.2839
 4582TIP3   OH235236   1.284   0.585  14.121 -0.0347 -0.4631  0.5105
 4582TIP3    H135237   1.219   0.521  14.091 -0.8231  0.4145  0.3051
 4582TIP3    H235238   1.355   0.578  14.057  0.1151 -1.4825  0.7753
 4583TIP3   OH235239   3.891   2.917  11.520  0.0616 -0.3152 -0.2237
 4583TIP3    H135240   3.912   2.990  11.462 -1.6851  0.2030 -0.2708
 4583TIP3    H235241   3.970   2.904  11.573  1.2578 -0.0320 -1.8861
 4584TIP3   OH235242   3.644   0.080   6.018 -0.9384  0.0592 -0.3568
 4584TIP3    H135243   3.629   0.012   6.083 -1.7410 -0.2211 -0.8240
 4584TIP3    H235244   3.711   0.136   6.057 -1.1433 -0.3117  0.5517
 4585TIP3   OH235245   0.784   1.422  12.603  0.0443 -0.4637  0.1044
 4585TIP3    H135246   0.865   1.472  12.601  0.8478 -1.6341  1.2336
 4585TIP3    H235247   0.812   1.331  12.612 -1.3874 -0.8907  0.6575
 4586TIP3   OH235248   1.909   4.316   1.630 -0.0541  0.3233 -0.7243
 4586TIP3    H135249   1.891   4.410   1.627 -1.5965  0.0473 -0.7985
 4586TIP3    H235250   1.874   4.287   1.715 -0.7193 -0.3974 -1.2350
 4587TIP3   OH235251   1.197   4.417   6.378 -0.3816  0.3798  0.4551
 4587TIP3    H135252   1.263   4.480   6.350 -0.6094  0.9292  1.1117
 4587TIP3    H235253   1.246   4.344   6.416 -0.1300  0.3761  0.1212
 4588TIP3   OH235254   4.152   0.895  13.298 -0.0525  0.1378  0.0170
 4588TIP3    H135255   4.059   0.913  13.285 -0.3918 -1.1122  0.5780
 4588TIP3    H235256   4.157   0.863  13.388  1.0585  1.0229  0.2891
 4589TIP3   OH235257   0.105   4.561   5.957 -0.5237 -0.0961 -0.0092
 4589TIP3    H135258   0.060   4.550   5.873 -1.9673 -0.1327  0.7383
 4589TIP3    H235259   0.094   4.476   6.001 -1.3101  0.4522  0.9058
 4590TIP3   OH235260   0.046   1.267  13.189  0.3532 -0.0883 -0.0755
 4590TIP3    H135261   0.063   1.289  13.280  1.2768 -0.2299 -0.2071
 4590TIP3    H235262   0.023   1.174  13.190 -0.2922  0.0678  0.0837
 4591TIP3   OH235263   5.496   1.619   4.582 -0.8307 -0.1231  0.1341
 4591TIP3    H135264   5.474   1.644   4.492  0.8785  0.7438 -0.0967
 4591TIP3    H235265   5.469   1.527   4.588  1.1374 -0.9689 -2.0927
 4592TIP3   OH235266   0.558   3.401   1.765 -0.0116  0.1370  0.0263
 4592TIP3    H135267   0.528   3.388   1.675 -0.6549 -2.3413  0.5299
 4592TIP3    H235268   0.507   3.339   1.817  2.0119 -0.1941  1.7691
 4593TIP3   OH235269   4.126   2.989   2.618  0.0142 -0.3594  0.1886
 4593TIP3    H135270   4.078   2.974   2.700  0.1965 -1.1461  0.1593
 4593TIP3    H235271   4.060   2.983   2.550 -0.1355  0.2797  0.2678
 4594TIP3   OH235272   5.595   0.615   3.381 -0.4429  0.2066  0.2221
 4594TIP3    H135273   5.558   0.603   3.468  1.9321 -2.9239  0.9804
 4594TIP3    H235274   5.525   0.589   3.321 -1.3777  0.1853  1.2938
 4595TIP3   OH235275   5.071   4.209  14.562 -0.0811  0.1650 -0.3910
 4595TIP3    H135276   5.142   4.159  14.522 -1.2288 -1.5567 -0.4137
 4595TIP3    H235277   4.992   4.175  14.520 -0.8962  2.6355 -0.9844
 4596TIP3   OH235278   0.208   0.144   3.441 -0.2205 -0.3586 -0.4497
 4596TIP3    H135279   0.130   0.108   3.398 -0.0497  0.0108 -1.0686
 4596TIP3    H235280   0.281   0.099   3.399 -0.0611 -0.1568 -0.3860
 4597TIP3   OH235281   1.603   0.207  11.607 -0.3018  0.3590  0.0686
 4597TIP3    H135282   1.656   0.189  11.530  0.5085  1.5159  0.3379
 4597TIP3    H235283   1.550   0.128  11.618  1.1154 -0.6995 -0.3972
 4598TIP3   OH235284   3.938   5.283   4.719  0.4399 -0.2026  0.1494
 4598TIP3    H135285   3.848   5.264   4.692  0.0756  0.1808  1.0673
 4598TIP3    H235286   3.954   5.372   4.686 -0.0296  0.2929  1.2186
 4599TIP3   OH235287   2.937   6.296  11.580 -0.2937 -0.9080 -0.0917
 4599TIP3    H135288   2.902   6.380  11.548 -1.9596 -1.5820 -0.1373
 4599TIP3    H235289   2.926   6.301  11.675  0.7396 -0.6013  0.0206
 4600TIP3   OH235290   1.965   2.840   2.906 -0.4309  0.4328  0.2672
 4600TIP3    H135291   1.926   2.794   2.980  0.2756 -1.3485 -0.3984
 4600TIP3    H235292   1.938   2.790   2.829 -1.4394  2.4449 -0.7547
 4601TIP3   OH235293   0.652   0.417  16.841  0.4515  0.8617  0.2461
 4601TIP3    H135294   0.639   0.334  16.794  0.7949  0.5834  0.6416
 4601TIP3    H235295   0.564   0.442  16.870  0.5403 -0.1793  1.4935
 4602TIP3   OH235296   2.831   4.492  14.809  0.4277  0.0074 -0.0860
 4602TIP3    H135297   2.901   4.477  14.745  1.2257  1.1511  0.4980
 4602TIP3    H235298   2.860   4.568  14.859 -0.8067 -0.0728  0.7821
 4603TIP3   OH235299   0.105   3.661   0.505 -0.4130  0.3750  0.0071
 4603TIP3    H135300   0.115   3.711   0.424  0.2664 -1.1646 -0.8949
 4603TIP3    H235301   0.012   3.638   0.507 -0.2495 -0.4033 -0.8522
 4604TIP3   OH235302   4.849   3.512   6.201 -0.7090  0.2740 -0.0764
 4604TIP3    H135303   4.801   3.442   6.157  0.3116 -0.8496  0.5240
 4604TIP3    H235304   4.822   3.506   6.293  1.6934 -1.4935  0.6257
 4605TIP3   OH235305   6.769   0.172   2.432 -0.4887  0.6453  0.6422
 4605TIP3    H135306   6.804   0.261   2.421 -0.9354  0.6804 -0.7197
 4605TIP3    H235307   6.828   0.131   2.495  1.7215  0.8900 -1.1303
 4606TIP3   OH235308   4.368   1.137  15.454 -0.0011  0.2554 -0.4471
 4606TIP3    H135309   4.457   1.119  15.422  0.0097  0.5835 -0.6058
 4606TIP3    H235310   4.327   1.050  15.459  1.0905 -0.2159  1.9788
 4607TIP3   OH235311   5.150   4.963  12.338  0.1311 -0.0934 -0.3966
 4607TIP3    H135312   5.117   5.041  12.293  2.6499  1.3950  0.1591
 4607TIP3    H235313   5.224   4.934  12.285  1.2848 -0.0763  1.1181
 4608TIP3   OH235314   5.554   5.482   1.517  0.5889 -0.3625  0.1326
 4608TIP3    H135315   5.550   5.578   1.525  0.3788 -0.2579 -1.0508
 4608TIP3    H235316   5.639   5.465   1.478  0.0583 -0.5346 -0.9998
 4609TIP3   OH235317   6.719   2.941  13.769  0.1096  0.1504  0.4212
 4609TIP3    H135318   6.789   2.877  13.784 -1.2114 -1.5269 -0.2782
 4609TIP3    H235319   6.722   2.958  13.675  0.6375  1.4139  0.6341
 4610TIP3   OH235320   3.785   3.788   3.701 -0.1405  0.2475 -0.4049
 4610TIP3    H135321   3.804   3.695   3.703  1.0128  0.4012 -2.3321
 4610TIP3    H235322   3.743   3.803   3.617  0.1829  1.5511 -0.3592
 4611TIP3   OH235323   4.163   6.416   0.534 -0.2240  0.1271  0.1163
 4611TIP3    H135324   4.193   6.334   0.494  1.4037  0.7032  0.0779
 4611TIP3    H235325   4.148   6.393   0.626  0.1974 -0.2273  0.1000
 4612TIP3   OH235326   2.205   1.788  13.761 -0.1857  0.2706  0.2608
 4612TIP3    H135327   2.116   1.822  13.750  0.1276  0.9135 -0.3517
 4612TIP3    H235328   2.258   1.840  13.701  0.8203  0.7901  1.5390
 4613TIP3   OH235329   2.281   3.309   4.903  0.2522  0.4602 -0.1710
 4613TIP3    H135330   2.307   3.242   4.839 -1.5883 -0.7380  0.2513
 4613TIP3    H235331   2.254   3.383   4.850 -3.3518 -1.2693 -1.0667
 4614TIP3   OH235332   5.711   5.433   3.324  0.4604  0.0892 -0.3290
 4614TIP3    H135333   5.697   5.378   3.247  0.6510 -0.0157 -0.2888
 4614TIP3    H235334   5.776   5.498   3.295 -0.7323  1.1175 -0.7898
 4615TIP3   OH235335   5.146   1.074   2.200  0.0260  0.4038 -0.2563
 4615TIP3    H135336   5.141   1.081   2.105 -1.4606  3.3675 -0.0775
 4615TIP3    H235337   5.076   1.015   2.225  0.7260 -0.7642 -0.9939
 4616TIP3   OH235338   5.581   0.867  15.692 -0.1150  0.2682 -0.4584
 4616TIP3    H135339   5.660   0.911  15.723 -0.2726  1.1022 -1.2158
 4616TIP3    H235340   5.586   0.779  15.731  0.6533  0.6475  0.3391
 4617TIP3   OH235341   4.591   5.887   2.880  0.2167  0.4183 -0.2412
 4617TIP3    H135342   4.641   5.940   2.942 -0.6482  0.8529  0.0994
 4617TIP3    H235343   4.611   5.925   2.795 -0.5232  1.4127  0.0149
 4618TIP3   OH235344   0.836   4.715   3.345 -0.8871 -1.0964 -0.1209
 4618TIP3    H135345   0.904   4.746   3.285 -1.9605 -0.6831 -1.1866
 4618TIP3    H235346   0.866   4.741   3.432 -0.5042  0.6472 -0.7398
 4619TIP3   OH235347   4.800   2.570   0.180 -0.6707  0.1981 -0.3024
 4619TIP3    H135348   4.738   2.587   0.251 -1.7498 -0.9244 -0.9390
 4619TIP3    H235349   4.753   2.595   0.101 -0.5701 -1.2880 -0.8556
 4620TIP3   OH235350   1.771   4.310   6.132 -0.5140 -0.4209 -0.1949
 4620TIP3    H135351   1.863   4.302   6.109 -0.0233  2.1282  0.6196
 4620TIP3    H235352   1.771   4.325   6.227 -1.9276 -2.1852  0.1441
 4621TIP3   OH235353   3.077   1.565   4.552  0.1346 -0.1245  0.6583
 4621TIP3    H135354   3.035   1.568   4.638  1.0049  1.2888  1.0692
 4621TIP3    H235355   3.157   1.513   4.566 -0.1904 -0.6918  0.4623
 4622TIP3   OH235356   5.916   6.507  13.163  0.0618  0.0981  0.4454
 4622TIP3    H135357   5.851   6.444  13.194  0.1346 -0.6887 -0.9039
 4622TIP3    H235358   5.979   6.453  13.114  1.5423  0.8869  1.4125
 4623TIP3   OH235359   6.168   4.402   5.166 -0.1893 -0.4094 -0.1083
 4623TIP3    H135360   6.215   4.405   5.249  0.1429  0.5176 -0.3085
 4623TIP3    H235361   6.167   4.493   5.136  0.4148 -0.8320 -1.5111
 4624TIP3   OH235362   1.857   5.794  12.809  0.3983  0.4980 -0.0655
 4624TIP3    H135363   1.929   5.802  12.871  0.3441 -0.1829  0.0845
 4624TIP3    H235364   1.874   5.713  12.762 -0.1774  0.4206 -0.1517
 4625TIP3   OH235365   0.416   6.123   4.850 -0.1930  0.3380 -0.0313
 4625TIP3    H135366   0.424   6.124   4.946 -1.0714 -0.0195  0.0507
 4625TIP3    H235367   0.435   6.213   4.823 -1.0385  0.7153  0.5788
 4626TIP3   OH235368   0.706   6.408  13.368 -0.7499  0.1065  0.3086
 4626TIP3    H135369   0.763   6.483  13.354  1.1651 -1.2228  0.5510
 4626TIP3    H235370   0.761   6.343  13.412 -2.2011 -1.5903 -0.2140
 4627TIP3   OH235371   5.368   4.401  14.925  0.2589 -0.7774 -0.5839
 4627TIP3    H135372   5.339   4.321  14.880  1.4205 -2.8350  1.9946
 4627TIP3    H235373   5.298   4.464  14.911 -0.0981 -1.7236 -3.8803
 4628TIP3   OH235374   0.283   1.410   4.511 -0.3386 -0.3179  0.2249
 4628TIP3    H135375   0.287   1.482   4.447 -0.8151 -0.6970 -0.2341
 4628TIP3    H235376   0.223   1.347   4.473 -0.8699 -0.4165  1.1937
 4629TIP3   OH235377   3.230   0.318   0.376 -0.3946  0.1686  0.0327
 4629TIP3    H135378   3.177   0.282   0.305 -1.1092  0.9428  0.1445
 4629TIP3    H235379   3.281   0.388   0.334  0.2336 -0.3039  0.0078
 4630TIP3   OH235380   0.757   5.677  11.618  0.0051  0.3186  0.4649
 4630TIP3    H135381   0.671   5.714  11.598  0.3527  1.6461  1.2908
 4630TIP3    H235382   0.772   5.699  11.710  1.3295  0.3335  0.2712
 4631TIP3   OH235383   4.343   1.764  14.281 -0.0848  0.2066  0.0561
 4631TIP3    H135384   4.266   1.759  14.338 -0.4195  1.0487 -0.3181
 4631TIP3    H235385   4.324   1.702  14.210 -0.3209  0.2627  0.0713
 4632TIP3   OH235386   5.400   6.672   4.565  0.0139  0.6270  0.0003
 4632TIP3    H135387   5.417   6.641   4.654 -0.3276 -0.9734 -0.4663
 4632TIP3    H235388   5.461   6.746   4.554  2.5357 -1.2657  0.4049
 4633TIP3   OH235389   6.446   0.456  12.474 -0.2198  0.5507 -0.0886
 4633TIP3    H135390   6.381   0.424  12.537 -1.2317  1.4099 -0.6524
 4633TIP3    H235391   6.432   0.551  12.472  1.1305  0.7602 -0.1577
 4634TIP3   OH235392   2.303   0.627  16.754 -0.7199  0.0751  0.6067
 4634TIP3    H135393   2.329   0.572  16.680 -1.7189 -0.4610  0.6400
 4634TIP3    H235394   2.283   0.712  16.715 -0.2555  0.0937  0.4043
 4635TIP3   OH235395   2.719   5.510   1.859  0.0380  0.1734 -0.0643
 4635TIP3    H135396   2.722   5.455   1.781  1.1071 -0.3174  0.3081
 4635TIP3    H235397   2.630   5.498   1.892  0.1143 -1.0250 -0.2284
 4636TIP3   OH235398   4.723   0.908  16.040  0.4108 -0.1711 -0.3605
 4636TIP3    H135399   4.657   0.895  16.108 -0.0326 -1.2193 -0.9665
 4636TIP3    H235400   4.805   0.916  16.088  0.0592 -0.5510  0.3232
 4637TIP3   OH235401   2.282   4.950  15.357  0.7022 -0.0177  0.2248
 4637TIP3    H135402   2.229   4.893  15.412  1.5083 -0.7469  0.2714
 4637TIP3    H235403   2.283   4.906  15.271  0.5987  0.3929  0.0094
 4638TIP3   OH235404   3.695   4.515  12.872  0.3077 -0.2879  0.0085
 4638TIP3    H135405   3.692   4.580  12.802  2.1119  0.9051  0.9498
 4638TIP3    H235406   3.651   4.439  12.836 -1.1669  1.1595 -1.4482
 4639TIP3   OH235407   3.541   2.106   3.946 -0.4769  0.0464  0.5767
 4639TIP3    H135408   3.529   2.193   3.909  1.7845  0.3183  0.3180
 4639TIP3    H235409   3.617   2.071   3.901 -1.2669 -2.0501  0.7620
 4640TIP3   OH235410   4.326   3.754  12.097  0.4409 -0.6095 -0.4706
 4640TIP3    H135411   4.385   3.707  12.156  1.1694  1.3167  0.4226
 4640TIP3    H235412   4.239   3.722  12.119  0.7136 -0.0900  1.5520
 4641TIP3   OH235413   2.503   3.312   6.106  0.1350 -0.0062  0.2845
 4641TIP3    H135414   2.533   3.278   6.191 -0.3164  0.0404  0.4641
 4641TIP3    H235415   2.409   3.296   6.106  0.2745 -0.9809 -0.6504
 4642TIP3   OH235416   3.310   0.788  16.162 -0.1551 -0.0908  0.2911
 4642TIP3    H135417   3.339   0.788  16.071 -0.3097 -1.9036  0.1999
 4642TIP3    H235418   3.390   0.777  16.213 -0.1610 -0.0642  0.3068
 4643TIP3   OH235419   5.736   6.018   2.271  0.2231  0.1007 -0.0797
 4643TIP3    H135420   5.673   5.968   2.322 -0.6014 -0.0632 -1.2301
 4643TIP3    H235421   5.699   6.106   2.265 -1.4235 -0.6342 -3.0998
 4644TIP3   OH235422   3.235   5.156   3.454 -0.3165 -0.6607  0.7863
 4644TIP3    H135423   3.258   5.087   3.515  2.2003 -0.4253  0.2237
 4644TIP3    H235424   3.318   5.196   3.430 -1.5507  1.6873  0.0370
 4645TIP3   OH235425   6.296   0.094   5.643  0.2618 -0.2271  0.6830
 4645TIP3    H135426   6.297   0.019   5.585 -0.8089  0.0546  0.2715
 4645TIP3    H235427   6.386   0.104   5.672  0.2861 -2.1572  1.3842
 4646TIP3   OH235428   1.246   3.732   5.736  0.3295 -0.0216 -0.0605
 4646TIP3    H135429   1.274   3.783   5.660  1.4707  0.0732  0.4017
 4646TIP3    H235430   1.318   3.741   5.799 -0.0301 -1.1369  0.5402
 4647TIP3   OH235431   1.588   5.386  11.216 -0.1047  0.4606  0.2165
 4647TIP3    H135432   1.574   5.360  11.307 -1.9356 -0.9151 -0.4087
 4647TIP3    H235433   1.559   5.312  11.164  2.0019  0.7370 -1.5360
 4648TIP3   OH235434   4.178   0.520   0.258  0.0050  0.3073  0.2962
 4648TIP3    H135435   4.103   0.461   0.270  0.0054  0.4690  1.2138
 4648TIP3    H235436   4.254   0.468   0.282  0.1861  0.1672 -0.5620
 4649TIP3   OH235437   0.611   0.962   1.414 -0.3600  0.1932  0.4122
 4649TIP3    H135438   0.542   0.926   1.360  0.1306 -0.7630  0.3952
 4649TIP3    H235439   0.688   0.908   1.394  0.5461  1.5625  0.0245
 4650TIP3   OH235440   2.803   4.792  15.887  0.2169  0.4122  0.0151
 4650TIP3    H135441   2.852   4.856  15.938  0.4846  0.5884 -0.4613
 4650TIP3    H235442   2.833   4.707  15.919  0.5296  0.5213  0.0084
 4651TIP3   OH235443   6.773   6.382   3.492  0.2365 -0.4782  0.4230
 4651TIP3    H135444   6.690   6.410   3.454 -2.0884 -2.2524  3.6757
 4651TIP3    H235445   6.827   6.461   3.495 -2.5066  1.4975  0.9628
 4652TIP3   OH235446   3.481   6.346   1.090 -0.2636 -0.2825 -0.2703
 4652TIP3    H135447   3.447   6.256   1.090 -1.0637  0.0002 -1.3061
 4652TIP3    H235448   3.562   6.341   1.141 -1.3127 -1.1899  1.4230
 4653TIP3   OH235449   0.601   1.382   0.932  0.9143 -0.5181 -0.1305
 4653TIP3    H135450   0.555   1.298   0.927 -3.4195  1.6087  0.0593
 4653TIP3    H235451   0.654   1.384   0.852 -0.4014 -2.5864 -1.1522
 4654TIP3   OH235452   5.380   0.293   3.434 -0.2658 -0.2409  0.0565
 4654TIP3    H135453   5.403   0.377   3.395 -0.5482  0.2710  0.9600
 4654TIP3    H235454   5.464   0.255   3.460 -0.2186  0.2894  0.6920
 4655TIP3   OH235455   2.960   6.611  17.413  0.9979 -0.3349  0.0797
 4655TIP3    H135456   2.882   6.556  17.412  1.1257 -0.5289 -0.8121
 4655TIP3    H235457   3.004   6.590  17.495  0.5123 -0.7940  0.2262
 4656TIP3   OH235458   1.215   5.739   4.290 -0.0052  0.3205 -0.4105
 4656TIP3    H135459   1.162   5.742   4.370 -0.3900 -1.6444 -0.5357
 4656TIP3    H235460   1.301   5.710   4.321  0.8312  2.6960 -0.3221
 4657TIP3   OH235461   5.624   5.486   4.481 -0.0655 -0.5336  0.4111
 4657TIP3    H135462   5.685   5.474   4.408  0.1408  0.6837  0.3656
 4657TIP3    H235463   5.542   5.445   4.451  0.5857 -1.8159  0.3143
 4658TIP3   OH235464   6.299   2.576  17.103 -0.0366  0.4790  0.1376
 4658TIP3    H135465   6.299   2.567  17.198  1.5648  0.0597  0.1349
 4658TIP3    H235466   6.301   2.670  17.087 -1.1357  0.5692  0.4973
 4659TIP3   OH235467   2.888   4.173  12.917  0.0413 -0.1558  0.1541
 4659TIP3    H135468   2.895   4.261  12.879  1.7023 -1.0925 -1.9225
 4659TIP3    H235469   2.977   4.153  12.946 -1.0334  0.3026  4.3513
 4660TIP3   OH235470   3.561   1.674   5.692  0.3883  0.0315  0.2537
 4660TIP3    H135471   3.572   1.679   5.597  0.1166  0.9325  0.2683
 4660TIP3    H235472   3.557   1.765   5.721 -1.4044 -0.2287  0.9133
 4661TIP3   OH235473   4.799   3.041  16.255  0.8659  0.0801 -0.2326
 4661TIP3    H135474   4.797   2.982  16.331  1.3461  0.5021  0.1125
 4661TIP3    H235475   4.873   3.009  16.203 -1.1973 -2.1067 -2.0964
 4662TIP3   OH235476   1.256   5.573  17.193  0.4256  0.4046  0.1488
 4662TIP3    H135477   1.241   5.627  17.270 -1.5192 -0.6727  0.5824
 4662TIP3    H235478   1.264   5.635  17.121 -2.3570  1.3388  0.5302
 4663TIP3   OH235479   4.994   5.521   2.651 -0.1300 -0.0755 -0.0951
 4663TIP3    H135480   4.965   5.527   2.560 -0.7876 -0.1868  0.1014
 4663TIP3    H235481   4.913   5.519   2.702  0.2064 -1.4526  0.4131
 4664TIP3   OH235482   6.563   0.858   3.648 -0.8158 -0.3136 -0.1548
 4664TIP3    H135483   6.625   0.836   3.579 -2.1651  0.0598 -1.5336
 4664TIP3    H235484   6.599   0.816   3.726  0.7990 -0.6760 -1.0460
 4665TIP3   OH235485   1.857   6.615   0.098  0.4285 -0.0861 -0.1479
 4665TIP3    H135486   1.939   6.651   0.063  0.7017 -0.0016  0.5592
 4665TIP3    H235487   1.807   6.590   0.020  0.5542  1.1099 -0.6350
 4666TIP3   OH235488   3.524   4.295  16.408 -0.5014  0.8925 -0.2407
 4666TIP3    H135489   3.560   4.381  16.428 -1.7805  1.3433  0.2533
 4666TIP3    H235490   3.450   4.313  16.351  0.7258 -0.0952 -2.2551
 4667TIP3   OH235491   0.207   1.388  15.525  0.1955  0.5073  0.1890
 4667TIP3    H135492   0.143   1.420  15.462 -0.7687 -0.7689  0.4934
 4667TIP3    H235493   0.182   1.297  15.541  1.0522  0.4953  1.6129
 4668TIP3   OH235494   5.414   0.091  16.851  0.4671 -0.1415  0.1054
 4668TIP3    H135495   5.360   0.013  16.858  0.4337 -0.5418 -3.1275
 4668TIP3    H235496   5.498   0.060  16.818  0.7953  1.0692 -0.2597
 4669TIP3   OH235497   1.829   5.833   2.528 -0.6048  0.0568 -0.4527
 4669TIP3    H135498   1.768   5.830   2.602 -0.6333  1.4486 -0.3980
 4669TIP3    H235499   1.915   5.815   2.567 -0.5322  1.4007  0.0376
 4670TIP3   OH235500   2.617   2.822  14.257 -0.0313 -0.2010 -0.2454
 4670TIP3    H135501   2.534   2.787  14.225 -0.3751 -1.0823  1.4725
 4670TIP3    H235502   2.625   2.788  14.347  1.7265  0.6421 -0.0234
 4671TIP3   OH235503   6.109   1.016   0.960 -0.0737  0.3570 -0.0159
 4671TIP3    H135504   6.158   0.989   1.038 -1.7819  0.2781  1.0855
 4671TIP3    H235505   6.123   0.945   0.897  1.5310  0.5437  0.0859
 4672TIP3   OH235506   4.863   4.950   3.908  0.2224  0.2891  0.7849
 4672TIP3    H135507   4.816   4.902   3.976 -2.1449 -0.1848 -1.0714
 4672TIP3    H235508   4.833   5.040   3.917  1.5760  0.7038  1.6565
 4673TIP3   OH235509   1.271   3.873   6.383  0.0002  0.2462  0.0930
 4673TIP3    H135510   1.317   3.860   6.300 -0.6521  1.1062 -0.4123
 4673TIP3    H235511   1.250   3.967   6.384 -1.9881 -0.1664  0.1763
 4674TIP3   OH235512   0.426   6.437   0.431  0.2554  0.1250 -0.1006
 4674TIP3    H135513   0.382   6.380   0.494 -1.2464  1.6752  0.3059
 4674TIP3    H235514   0.517   6.437   0.458 -0.1981  0.0202  1.4962
 4675TIP3   OH235515   2.252   2.949   5.311 -0.1511  0.2879 -0.3095
 4675TIP3    H135516   2.177   2.896   5.339  0.0892 -0.2653 -0.7059
 4675TIP3    H235517   2.296   2.974   5.393 -1.4726  1.7017  0.0173
 4676TIP3   OH235518   6.358   2.002  14.217 -0.2350  0.1057  0.1573
 4676TIP3    H135519   6.426   1.935  14.228  0.5026 -0.0924 -4.0059
 4676TIP3    H235520   6.277   1.956  14.238  0.3297 -1.9621 -1.7726
 4677TIP3   OH235521   6.225   1.936  12.111  0.4065  0.3866  0.5822
 4677TIP3    H135522   6.182   1.963  12.029 -1.2613 -1.8746  0.6047
 4677TIP3    H235523   6.232   1.841  12.104 -0.1876  0.0706  3.2359
 4678TIP3   OH235524   1.271   5.809  12.735  0.2381  0.2053  0.0944
 4678TIP3    H135525   1.306   5.886  12.690 -1.8108  0.8992 -0.4295
 4678TIP3    H235526   1.303   5.735  12.684  0.3690  0.8340 -0.7593
 4679TIP3   OH235527   6.185   1.320   6.620  0.3533  0.5094 -0.2175
 4679TIP3    H135528   6.265   1.323   6.673 -0.5726 -0.1617  1.2800
 4679TIP3    H235529   6.124   1.379   6.665 -0.9538 -1.2088  0.3743
 4680TIP3   OH235530   6.053   5.697  15.144 -0.0105 -0.1150  0.1425
 4680TIP3    H135531   6.065   5.719  15.052 -1.0791  0.7925  0.1984
 4680TIP3    H235532   6.091   5.609  15.153  1.1901  0.2727 -0.8759
 4681TIP3   OH235533   3.601   5.424   5.548 -0.1760 -0.3045 -0.6856
 4681TIP3    H135534   3.659   5.374   5.605 -1.4872 -1.2492 -0.1279
 4681TIP3    H235535   3.519   5.430   5.596  0.1258  3.1036 -0.4054
 4682TIP3   OH235536   2.022   6.068  13.700  0.0161 -0.5639 -0.8896
 4682TIP3    H135537   1.979   6.070  13.615 -0.4933 -0.3227 -0.6314
 4682TIP3    H235538   1.962   6.114  13.758 -0.5170 -2.2623 -0.0165
 4683TIP3   OH235539   2.094   4.751  16.202  0.0110 -0.3726  0.2238
 4683TIP3    H135540   2.126   4.726  16.289 -0.5253 -0.9901  0.2431
 4683TIP3    H235541   2.067   4.669  16.161  0.1011 -0.0654 -0.4670
 4684TIP3   OH235542   6.646   0.887  14.477 -0.0063  0.8661 -0.6019
 4684TIP3    H135543   6.653   0.845  14.562  0.6836 -0.4699 -1.2890
 4684TIP3    H235544   6.650   0.815  14.414 -1.0841  1.7676 -1.7546
 4685TIP3   OH235545   0.072   1.846   1.588  0.5540 -0.0036  0.7993
 4685TIP3    H135546   0.148   1.791   1.570  1.2266  0.9978  0.5190
 4685TIP3    H235547   0.044   1.820   1.676  1.9810  0.4713  1.4218
 4686TIP3   OH235548   2.037   5.065   4.281  0.4883  0.2867 -0.2841
 4686TIP3    H135549   2.026   5.129   4.211 -0.5547  1.7856  1.1715
 4686TIP3    H235550   1.964   5.004   4.269  1.0661 -0.2378 -1.2453
 4687TIP3   OH235551   5.682   3.045   5.350  0.1810 -0.1969 -0.0612
 4687TIP3    H135552   5.718   2.965   5.388  0.6087 -0.5917 -1.2676
 4687TIP3    H235553   5.701   3.113   5.416  0.2951 -0.9771  0.7279
 4688TIP3   OH235554   3.507   1.041   6.231  0.1915  0.0315  0.0170
 4688TIP3    H135555   3.421   1.082   6.229  0.4561  0.5735 -0.9772
 4688TIP3    H235556   3.526   1.029   6.325 -0.6283  0.6078  0.2658
 4689TIP3   OH235557   5.148   4.725  11.127 -0.2687  0.3159 -0.3707
 4689TIP3    H135558   5.066   4.701  11.169 -0.8872  0.0222 -1.7097
 4689TIP3    H235559   5.181   4.644  11.089  1.6053  0.0264  1.6740
 4690TIP3   OH235560   4.053   4.868  15.319  0.0593 -0.0692 -0.6205
 4690TIP3    H135561   4.087   4.796  15.372  0.3601 -0.3571 -1.1918
 4690TIP3    H235562   4.013   4.927  15.382  0.1201 -0.5650 -0.1056
 4691TIP3   OH235563   5.291   0.164   0.750  0.0099  0.0806  0.2038
 4691TIP3    H135564   5.296   0.240   0.809  0.7690 -0.1582  0.4601
 4691TIP3    H235565   5.368   0.111   0.773  1.2115  0.7194 -2.0292
 4692TIP3   OH235566   5.582   3.327  14.172  0.6245  0.5971  0.3942
 4692TIP3    H135567   5.570   3.375  14.090  0.8869  1.4834  0.8612
 4692TIP3    H235568   5.523   3.370  14.234  0.6435  0.1234  0.7462
 4693TIP3   OH235569   3.923   1.349   5.986 -0.2873 -0.1180  0.1638
 4693TIP3    H135570   3.854   1.411   6.009  0.2460  0.5833 -0.0867
 4693TIP3    H235571   3.908   1.329   5.894 -0.5997 -0.5515  0.3059
 4694TIP3   OH235572   5.239   3.042  15.470  0.2215 -0.4961  0.1159
 4694TIP3    H135573   5.196   3.101  15.532 -0.6166  0.4239 -1.2794
 4694TIP3    H235574   5.252   2.961  15.519  0.6714  0.5772  1.8405
 4695TIP3   OH235575   3.276   3.733  11.880  0.1725 -0.2718 -0.5391
 4695TIP3    H135576   3.209   3.753  11.814 -0.6401  0.1814  0.3900
 4695TIP3    H235577   3.268   3.638  11.893  1.0982 -0.5554 -1.8669
 4696TIP3   OH235578   0.715   1.818   2.918  0.5769 -0.6068  0.1123
 4696TIP3    H135579   0.777   1.870   2.969  1.9504  0.9212 -2.8618
 4696TIP3    H235580   0.630   1.861   2.933  1.1780  0.6475  0.0883
 4697TIP3   OH235581   5.124   1.736  11.424 -0.4406  0.1306  0.3081
 4697TIP3    H135582   5.057   1.758  11.488 -0.8980 -0.9327  0.2189
 4697TIP3    H235583   5.184   1.677  11.470  1.1162  1.9671  0.7371
 4698TIP3   OH235584   0.411   3.349   3.624 -0.1849 -0.2043 -0.5274
 4698TIP3    H135585   0.397   3.397   3.706  0.3256 -0.0740 -0.5077
 4698TIP3    H235586   0.367   3.265   3.637 -1.1025  0.2630 -0.5661
 4699TIP3   OH235587   2.351   6.608  12.129  0.1785  0.3717 -0.1634
 4699TIP3    H135588   2.290   6.677  12.105  1.6555  1.2704 -1.5138
 4699TIP3    H235589   2.433   6.632  12.086  1.6421 -0.5381  1.9484
 4700TIP3   OH235590   1.898   3.273  14.191  1.0768 -0.1161  0.1738
 4700TIP3    H135591   1.890   3.340  14.259 -0.5361  0.3822 -0.4676
 4700TIP3    H235592   1.867   3.192  14.233  1.3388 -0.0988  0.4093
 4701TIP3   OH235593   1.339   3.653   1.893  0.2879  0.7632 -0.2409
 4701TIP3    H135594   1.409   3.660   1.958  1.4099  0.7202 -1.4056
 4701TIP3    H235595   1.305   3.742   1.883  0.8536  0.9669 -0.3776
 4702TIP3   OH235596   0.073   4.910  13.816  0.1541 -0.5214  0.4361
 4702TIP3    H135597   0.137   4.927  13.885 -1.7206  0.9126  1.9435
 4702TIP3    H235598   0.079   4.985  13.758 -2.0874  1.1886  2.2365
 4703TIP3   OH235599   3.405   5.990   3.368 -0.8044 -0.4480  0.1264
 4703TIP3    H135600   3.330   5.943   3.333 -1.5515  1.5018 -1.0342
 4703TIP3    H235601   3.367   6.065   3.412  0.4539  1.2130 -1.4817
 4704TIP3   OH235602   2.176   1.536   5.920 -0.5113  0.3165  0.2528
 4704TIP3    H135603   2.256   1.570   5.879 -0.8534  1.9447  0.8673
 4704TIP3    H235604   2.105   1.581   5.875 -1.1992 -1.8016 -0.9413
 4705TIP3   OH235605   4.846   2.910   5.605 -0.3304  0.2880 -0.1544
 4705TIP3    H135606   4.822   2.863   5.684  1.8307  0.5223  0.7206
 4705TIP3    H235607   4.929   2.870   5.577  1.0886  2.8273  0.0735
 4706TIP3   OH235608   4.161   5.536  13.177  0.0390 -0.0070  0.5035
 4706TIP3    H135609   4.148   5.441  13.186  1.3201 -0.3221 -0.5847
 4706TIP3    H235610   4.209   5.545  13.094 -0.7801  1.6694  0.1768
 4707TIP3   OH235611   1.783   3.790   3.731  0.2118  0.3061  0.6580
 4707TIP3    H135612   1.793   3.877   3.694 -0.4290  0.0665 -0.1146
 4707TIP3    H235613   1.735   3.804   3.813 -1.0247  0.5831 -0.0842
 4708TIP3   OH235614   3.020   0.135  15.748  0.2434 -0.0216  0.1615
 4708TIP3    H135615   3.060   0.057  15.787  2.7655  1.1525  0.1071
 4708TIP3    H235616   3.070   0.208  15.784 -0.4229  1.4182 -1.6766
 4709TIP3   OH235617   0.224   5.283   4.826 -0.2932 -0.5323 -0.2150
 4709TIP3    H135618   0.236   5.302   4.733 -1.5494 -1.6047 -0.6295
 4709TIP3    H235619   0.265   5.197   4.838 -0.0900 -0.3730  0.2316
 4710TIP3   OH235620   5.601   3.667   3.067 -0.6693  0.5225  0.8181
 4710TIP3    H135621   5.688   3.705   3.050 -0.8984  1.2929  1.2978
 4710TIP3    H235622   5.548   3.695   2.991 -0.0588 -1.5043 -0.4330
 4711TIP3   OH235623   4.651   5.858   4.587  0.3706 -0.9427 -0.0779
 4711TIP3    H135624   4.572   5.846   4.535  0.7915 -0.0461 -0.9447
 4711TIP3    H235625   4.625   5.917   4.657  0.5884  0.5040 -1.1719
 4712TIP3   OH235626   2.530   5.537   4.233 -0.0008 -0.0765 -0.3011
 4712TIP3    H135627   2.470   5.609   4.211  2.1519  1.2205 -2.4507
 4712TIP3    H235628   2.475   5.459   4.235 -2.4689  1.5535  2.2668
 4713TIP3   OH235629   4.308   4.691   4.439 -0.0571 -0.0718 -0.1830
 4713TIP3    H135630   4.339   4.779   4.418 -0.0890 -0.5731 -2.5798
 4713TIP3    H235631   4.213   4.696   4.427 -0.1377 -0.2623  0.3580
 4714TIP3   OH235632   4.728   4.815   4.106  0.3349  0.3808 -0.1721
 4714TIP3    H135633   4.728   4.777   4.194 -1.1170  1.3589  0.2922
 4714TIP3    H235634   4.644   4.861   4.100  0.4907  0.4984 -2.0073
 4715TIP3   OH235635   4.960   3.195   1.273 -0.6802 -0.3098  0.4451
 4715TIP3    H135636   4.942   3.167   1.183  0.3272  0.0126  0.1299
 4715TIP3    H235637   5.003   3.280   1.263  1.6101 -1.3409  1.1061
 4716TIP3   OH235638   6.238   0.444  17.204 -0.2137  0.4296 -0.7616
 4716TIP3    H135639   6.143   0.456  17.206 -0.2103  0.4516 -0.7520
 4716TIP3    H235640   6.263   0.466  17.114 -0.6187 -2.4734 -1.6929
 4717TIP3   OH235641   1.546   6.000  13.230 -0.1253  0.5360  0.0440
 4717TIP3    H135642   1.597   6.080  13.217 -0.4809  0.6471 -0.7643
 4717TIP3    H235643   1.461   6.019  13.190 -0.3108 -0.1402  0.1024
 4718TIP3   OH235644   2.245   5.475  13.713 -0.0496 -0.2464  0.5129
 4718TIP3    H135645   2.189   5.424  13.771 -0.2302  1.0091  1.4841
 4718TIP3    H235646   2.307   5.411  13.677 -0.6616 -1.2491  1.1816
 4719TIP3   OH235647   5.333   5.517   6.534 -0.4796  0.0526  0.7698
 4719TIP3    H135648   5.354   5.450   6.599  2.2987  0.9946  1.0002
 4719TIP3    H235649   5.337   5.599   6.582  0.7573  0.6944 -0.3532
 4720TIP3   OH235650   2.541   4.568  12.326  0.2744  0.2301 -0.3945
 4720TIP3    H135651   2.601   4.642  12.322 -0.1909  0.9212  2.8186
 4720TIP3    H235652   2.500   4.566  12.239  2.4722  1.7973 -1.5743
 4721TIP3   OH235653   6.777   5.703  17.134  0.2823  0.2686  0.1900
 4721TIP3    H135654   6.814   5.787  17.162 -0.6216  0.9326 -0.5515
 4721TIP3    H235655   6.853   5.648  17.118  0.8787  0.5268  1.8775
 4722TIP3   OH235656   2.191   0.707   1.873 -0.2108 -0.1503  0.3005
 4722TIP3    H135657   2.100   0.703   1.847  0.3251  0.0331 -1.7915
 4722TIP3    H235658   2.202   0.794   1.911 -0.9163 -0.2211  0.6685
 4723TIP3   OH235659   0.068   5.522   5.982  0.3442  0.1212 -0.1956
 4723TIP3    H135660   0.066   5.523   5.886 -1.6204  0.4107 -0.1945
 4723TIP3    H235661   0.016   5.444   6.006 -1.9103  1.7503  0.5911
 4724TIP3   OH235662   1.625   6.029   3.244 -0.0466 -0.4532  0.0830
 4724TIP3    H135663   1.539   6.038   3.287  0.9515  1.4119  1.8416
 4724TIP3    H235664   1.675   5.972   3.303 -0.2384 -2.2056 -1.3413
 4725TIP3   OH235665   4.075   1.552   0.740  0.1551  0.1976  0.5968
 4725TIP3    H135666   4.063   1.566   0.834  0.9180  0.3705  0.6715
 4725TIP3    H235667   3.988   1.566   0.703 -0.1739  0.0251  1.2877
 4726TIP3   OH235668   6.539   0.748   2.919 -0.1850 -0.4302 -0.2516
 4726TIP3    H135669   6.577   0.807   2.983  0.4544 -2.6255  1.5184
 4726TIP3    H235670   6.591   0.762   2.840  1.4883 -0.2762  0.8264
 4727TIP3   OH235671   4.173   1.260  17.193 -0.1510  0.1367  0.3992
 4727TIP3    H135672   4.186   1.274  17.099 -2.1199  0.9151  0.1913
 4727TIP3    H235673   4.130   1.340  17.224 -0.2956 -0.4457  1.7953
 4728TIP3   OH235674   0.146   3.993  14.465  0.2840  0.7967 -0.7451
 4728TIP3    H135675   0.154   3.981  14.370  1.3210  0.7001 -0.6598
 4728TIP3    H235676   0.230   3.962  14.500 -0.4385 -0.0630  0.2974
 4729TIP3   OH235677   4.811   2.224   2.389  0.5803  0.2323  0.4187
 4729TIP3    H135678   4.803   2.318   2.404 -0.6539 -0.2113  3.0783
 4729TIP3    H235679   4.727   2.188   2.417  0.9380 -1.6761 -0.7668
 4730TIP3   OH235680   3.793   0.032   2.881  0.6248  0.0460  0.0567
 4730TIP3    H135681   3.706   0.021   2.921  0.3779  1.4142 -0.0493
 4730TIP3    H235682   3.774   0.043   2.788  1.0106 -0.7608 -0.1194
 4731TIP3   OH235683   4.704   0.879  12.496 -0.4228 -0.0550  0.1040
 4731TIP3    H135684   4.777   0.927  12.534  1.3916 -2.0366 -0.6901
 4731TIP3    H235685   4.649   0.946  12.456  1.0329  1.4859  0.5883
 4732TIP3   OH235686   1.358   4.806  16.787 -0.2511  0.7451 -0.4761
 4732TIP3    H135687   1.281   4.862  16.777  0.2396  2.0461  2.0586
 4732TIP3    H235688   1.427   4.851  16.738 -0.8729 -0.0725 -2.1873
 4733TIP3   OH235689   5.558   1.182   3.517  0.6631  0.0393  0.0909
 4733TIP3    H135690   5.503   1.198   3.594 -1.3754 -2.0882 -0.7948
 4733TIP3    H235691   5.560   1.266   3.471 -1.2854  0.3951  0.5668
 4734TIP3   OH235692   0.362   0.630   2.232  0.2748 -0.0784  0.1499
 4734TIP3    H135693   0.300   0.651   2.302  0.1956 -0.4425  0.1876
 4734TIP3    H235694   0.444   0.610   2.278  0.4806  0.5786  0.0932
 4735TIP3   OH235695   5.723   6.529  14.840  0.0349  0.0636  0.1959
 4735TIP3    H135696   5.666   6.575  14.779 -1.0263 -0.9689  0.3761
 4735TIP3    H235697   5.708   6.436  14.821  1.5853 -0.2357  0.3225
 4736TIP3   OH235698   0.603   4.695  12.524  0.4027  0.3064 -0.3445
 4736TIP3    H135699   0.543   4.653  12.585  2.2061  0.5529  1.7114
 4736TIP3    H235700   0.622   4.628  12.458 -2.1601  0.2754 -1.1368
 4737TIP3   OH235701   6.156   3.001   2.290 -0.0872  0.0205  0.2119
 4737TIP3    H135702   6.079   3.042   2.251 -0.6000 -0.3973  0.7615
 4737TIP3    H235703   6.222   3.070   2.290 -1.1541  1.1211  1.7901
 4738TIP3   OH235704   4.436   0.017   4.720 -0.1768 -0.6294 -0.1910
 4738TIP3    H135705   4.350  -0.020   4.741  0.9603 -1.9002  2.7689
 4738TIP3    H235706   4.483  -0.055   4.677  0.4330 -1.0734  1.1671
 4739TIP3   OH235707   3.216   5.244  14.866  0.0669 -0.3887  0.0195
 4739TIP3    H135708   3.144   5.193  14.829 -1.0441 -0.1049  1.7327
 4739TIP3    H235709   3.174   5.313  14.916  1.4978 -0.7101  1.7604
 4740TIP3   OH235710   5.404   0.219   1.341 -0.2066 -0.3111  0.1494
 4740TIP3    H135711   5.382   0.284   1.408 -0.3590  0.0483 -0.2485
 4740TIP3    H235712   5.349   0.144   1.362 -0.4476 -0.1013  0.2732
 4741TIP3   OH235713   1.267   3.855  12.777 -0.0010  0.9159 -0.1801
 4741TIP3    H135714   1.295   3.764  12.765 -0.3298  0.7318  0.4192
 4741TIP3    H235715   1.288   3.897  12.693 -0.9515 -0.0065 -0.9223
 4742TIP3   OH235716   6.353   5.081  16.158 -0.3074 -0.2894 -0.2400
 4742TIP3    H135717   6.343   5.176  16.160  0.0564 -0.2519  2.0592
 4742TIP3    H235718   6.371   5.057  16.249  0.4301 -2.4763 -0.9145
 4743TIP3   OH235719   4.109   0.317  14.007  0.1744 -0.0416 -0.1480
 4743TIP3    H135720   4.065   0.371  14.073  0.2313 -0.0326 -0.1175
 4743TIP3    H235721   4.152   0.248  14.058  0.9670  0.4842 -0.0931
 4744TIP3   OH235722   6.005   3.221  16.877  0.2534 -0.3398 -0.4917
 4744TIP3    H135723   6.084   3.268  16.851  0.4866  0.4370  1.4710
 4744TIP3    H235724   6.023   3.190  16.965 -2.1162  1.0940  0.5922
 4745TIP3   OH235725   4.149   0.869   1.437 -0.6795 -0.0136  0.4268
 4745TIP3    H135726   4.063   0.871   1.394 -0.3073  0.2630 -0.3303
 4745TIP3    H235727   4.136   0.915   1.520 -1.1921  0.2885  0.1865
 4746TIP3   OH235728   6.589   4.453  15.700  0.3498 -0.3145  0.2042
 4746TIP3    H135729   6.576   4.546  15.684 -2.3768 -0.8448 -1.1174
 4746TIP3    H235730   6.525   4.431  15.768  2.4291 -0.8834  2.1055
 4747TIP3   OH235731   3.682   0.349   5.209 -0.4870 -0.2259 -0.5333
 4747TIP3    H135732   3.731   0.407   5.268 -0.2959 -1.3547  0.4487
 4747TIP3    H235733   3.674   0.399   5.128 -1.0227  1.5211  0.5234
 4748TIP3   OH235734   3.283   5.673  13.119 -0.1377 -0.7749  0.5699
 4748TIP3    H135735   3.194   5.674  13.083  0.1471 -0.5865 -0.1551
 4748TIP3    H235736   3.271   5.682  13.213 -0.8668 -0.2465  0.4353
 4749TIP3   OH235737   5.225   1.463  13.438 -0.3016  0.2914  0.4087
 4749TIP3    H135738   5.231   1.408  13.359 -2.8590  0.7308 -0.1743
 4749TIP3    H235739   5.250   1.405  13.509  2.1779 -0.0987 -0.6638
 4750TIP3   OH235740   0.093   3.650   1.533  0.1118 -0.2654  0.0158
 4750TIP3    H135741   0.085   3.730   1.482 -0.7396  0.2018  0.8535
 4750TIP3    H235742   0.158   3.597   1.486  2.7707  2.0079  0.8665
 4751TIP3   OH235743   4.599   0.503   0.559  0.7408 -0.2072  0.2773
 4751TIP3    H135744   4.687   0.469   0.545  0.3810 -0.4924 -1.5828
 4751TIP3    H235745   4.574   0.540   0.475 -1.8068 -2.3382 -0.0457
 4752TIP3   OH235746   6.197   2.385  11.598  0.4044 -0.1139 -0.6816
 4752TIP3    H135747   6.242   2.406  11.516  2.6453 -0.3128  0.4413
 4752TIP3    H235748   6.239   2.305  11.629  2.7292  2.1688  2.7693
 4753TIP3   OH235749   2.615   5.161   4.217 -0.0548 -0.7300 -0.3062
 4753TIP3    H135750   2.546   5.183   4.155  0.1423  0.6099 -0.0949
 4753TIP3    H235751   2.642   5.246   4.253  2.3052 -1.0987 -1.0184
 4754TIP3   OH235752   3.805   0.324  16.188 -0.4723  0.2980  0.4806
 4754TIP3    H135753   3.895   0.324  16.155 -1.1181  0.9045 -1.4501
 4754TIP3    H235754   3.803   0.256  16.255  1.5832  0.7699  1.0721
 4755TIP3   OH235755   0.981   3.482   5.820  0.3306 -0.2475 -0.2419
 4755TIP3    H135756   1.026   3.497   5.737  3.2141  0.5339  1.3136
 4755TIP3    H235757   1.008   3.394   5.847  1.1599  0.2980  0.8042
 4756TIP3   OH235758   5.821   5.741  15.404  0.3952  0.1627  0.5813
 4756TIP3    H135759   5.806   5.680  15.476 -0.3885 -1.8924 -1.2348
 4756TIP3    H235760   5.807   5.690  15.325  1.7899  2.1884 -1.0930
 4757TIP3   OH235761   0.618   3.394  16.732 -0.2023 -0.0582  0.3860
 4757TIP3    H135762   0.651   3.305  16.747 -1.1510 -0.4235  0.3613
 4757TIP3    H235763   0.656   3.446  16.804 -0.4761 -0.7014  1.0062
 4758TIP3   OH235764   2.585   4.311   1.421 -0.3157 -0.0916 -0.5930
 4758TIP3    H135765   2.499   4.352   1.415 -1.1064 -1.5307  0.3688
 4758TIP3    H235766   2.585   4.244   1.352  0.5465  0.7581 -1.4441
 4759TIP3   OH235767   3.183   5.248   1.316 -0.0185 -0.4224 -0.0590
 4759TIP3    H135768   3.247   5.313   1.346 -1.3757  0.9270  0.0254
 4759TIP3    H235769   3.198   5.172   1.372  0.9490  0.1768  0.5253
 4760TIP3   OH235770   0.815   1.289   0.721 -0.3854 -0.7219  0.1959
 4760TIP3    H135771   0.814   1.361   0.659  1.3370 -0.3199  0.5890
 4760TIP3    H235772   0.741   1.234   0.696 -0.7498  0.3307 -1.1105
 4761TIP3   OH235773   1.024   6.221   1.034  0.5663  0.3085  0.3590
 4761TIP3    H135774   1.006   6.268   0.952  1.5160  0.3938  0.1896
 4761TIP3    H235775   1.098   6.267   1.073 -0.5530  0.9318  1.8271
 4762TIP3   OH235776   6.327   5.358  16.172  0.2480  0.7575  0.2079
 4762TIP3    H135777   6.367   5.416  16.236  0.0381  0.5381  0.5357
 4762TIP3    H235778   6.250   5.405  16.141  0.9458  1.3515 -0.7059
 4763TIP3   OH235779   0.175   5.522  10.760 -0.0977  0.9711  0.1910
 4763TIP3    H135780   0.120   5.599  10.777 -0.8341  0.2827  1.0497
 4763TIP3    H235781   0.118   5.462  10.712 -0.0728  0.2921  0.9978
 4764TIP3   OH235782   3.812   6.082   1.816  0.1889 -0.1767  0.0214
 4764TIP3    H135783   3.729   6.034   1.803  0.5950 -0.6798 -0.8808
 4764TIP3    H235784   3.829   6.121   1.730  0.3073  0.8852  0.5232
 4765TIP3   OH235785   4.983   1.198  15.886  0.0629  0.0485 -0.2961
 4765TIP3    H135786   4.980   1.278  15.835  0.3878 -0.4538 -1.1239
 4765TIP3    H235787   4.954   1.130  15.826 -0.6843 -0.3925  0.5361
 4766TIP3   OH235788   2.963   3.666  13.620  1.0392 -0.3656 -0.0385
 4766TIP3    H135789   2.944   3.673  13.713  0.5911  3.5607 -0.2315
 4766TIP3    H235790   2.898   3.604  13.587 -1.4553  1.0844  1.7527
 4767TIP3   OH235791   1.043   3.288  12.123 -0.3283  0.1034  0.0237
 4767TIP3    H135792   1.071   3.372  12.160 -0.0980  0.0727 -0.0819
 4767TIP3    H235793   1.103   3.272  12.050 -1.9123  1.0633 -1.5768
 4768TIP3   OH235794   1.991   1.400   2.477 -0.6709  0.2895  0.4046
 4768TIP3    H135795   1.967   1.489   2.450  0.2199  0.8509  1.3830
 4768TIP3    H235796   1.908   1.356   2.493 -1.1235  1.7720  2.4807
 4769TIP3   OH235797   1.983   5.432  12.124  0.1113  0.1743 -0.1225
 4769TIP3    H135798   1.944   5.351  12.157 -1.0009 -0.1179 -2.0214
 4769TIP3    H235799   1.994   5.487  12.202 -0.7320 -1.1396  0.9630
 4770TIP3   OH235800   5.798   2.334  13.777  0.2975  0.5231 -0.4671
 4770TIP3    H135801   5.758   2.415  13.745 -0.5416  0.0520 -0.6558
 4770TIP3    H235802   5.760   2.265  13.722  1.1711  0.0189 -0.4611
 4771TIP3   OH235803   3.539   0.929  10.386  0.1413 -1.0126  0.8980
 4771TIP3    H135804   3.631   0.911  10.406  0.2560 -1.5941 -0.0910
 4771TIP3    H235805   3.502   0.959  10.469  1.7499  1.4667  0.8304
 4772TIP3   OH235806   2.234   1.973  12.830 -0.0245 -0.4800 -0.6980
 4772TIP3    H135807   2.318   1.974  12.874 -0.1273 -0.5097 -0.5017
 4772TIP3    H235808   2.211   1.881  12.823 -1.5002 -0.4270  2.0425
 4773TIP3   OH235809   3.417   4.348  14.316 -0.0317 -0.6190 -0.4176
 4773TIP3    H135810   3.459   4.326  14.233  1.5912  2.2915 -0.4859
 4773TIP3    H235811   3.431   4.442  14.326 -1.4501 -0.6118  2.4815
 4774TIP3   OH235812   2.411   2.435  13.274 -0.4371 -0.1144 -0.3201
 4774TIP3    H135813   2.496   2.435  13.318 -0.8520 -0.1507  0.5224
 4774TIP3    H235814   2.421   2.493  13.199  0.0926  0.5597  0.2607
 4775TIP3   OH235815   6.630   3.910   3.393 -0.5188  0.2597 -0.1684
 4775TIP3    H135816   6.627   3.823   3.353 -0.6113  1.0629 -1.9931
 4775TIP3    H235817   6.654   3.893   3.484  0.8597 -1.5635 -0.8062
 4776TIP3   OH235818   2.289   5.127  13.971  0.3372  0.3015  0.0852
 4776TIP3    H135819   2.376   5.166  13.967  0.5079  0.0248  0.7919
 4776TIP3    H235820   2.304   5.038  14.004 -0.1728  0.1214 -0.1590
 4777TIP3   OH235821   1.902   4.160   5.404  0.1292  0.2336  1.3351
 4777TIP3    H135822   1.879   4.069   5.385  2.5426 -0.8185  2.8423
 4777TIP3    H235823   1.850   4.182   5.481 -1.1821  0.5108  0.4009
 4778TIP3   OH235824   1.960   0.715  12.961  0.0462 -0.2482  0.0549
 4778TIP3    H135825   1.933   0.788  13.018  1.0178 -0.2150  0.4893
 4778TIP3    H235826   1.969   0.755  12.874 -2.2532 -0.4697 -0.3372
 4779TIP3   OH235827   2.381   1.480   0.136 -0.2450  0.6794 -0.2588
 4779TIP3    H135828   2.370   1.387   0.116 -0.7390  0.9403 -1.2381
 4779TIP3    H235829   2.467   1.502   0.099 -0.3156  0.7121 -0.4036
 4780TIP3   OH235830   5.086   1.222   3.681  0.3941 -0.0029  0.1631
 4780TIP3    H135831   5.009   1.279   3.685  0.4583  0.0156  1.6319
 4780TIP3    H235832   5.066   1.160   3.611 -0.8776  0.1289  0.3783
 4781TIP3   OH235833   1.088   6.198   0.113  0.1530  0.0392  0.5512
 4781TIP3    H135834   1.172   6.153   0.104 -0.7170 -1.5528  0.1011
 4781TIP3    H235835   1.055   6.171   0.198 -0.1389  0.2614  0.5098
 4782TIP3   OH235836   4.966   4.983   5.291 -0.4268  0.7521 -0.0482
 4782TIP3    H135837   5.007   5.021   5.214  1.3010  0.8023  0.8473
 4782TIP3    H235838   4.873   4.999   5.279 -0.2472  0.4247 -2.2850
 4783TIP3   OH235839   4.935   2.377   4.466  0.1121  0.5402 -0.4371
 4783TIP3    H135840   5.029   2.371   4.451  0.2672 -2.5333  0.9535
 4783TIP3    H235841   4.922   2.337   4.552 -2.3622  1.9010 -0.1010
 4784TIP3   OH235842   5.902   4.408  12.286 -0.2184 -0.8474  0.2513
 4784TIP3    H135843   5.817   4.407  12.330 -0.6790 -1.7635 -0.6281
 4784TIP3    H235844   5.916   4.318  12.259  2.2904 -1.3385  2.6788
 4785TIP3   OH235845   0.345   6.700  14.695  0.7551  0.6706 -0.2645
 4785TIP3    H135846   0.280   6.639  14.660 -0.3365  1.2282  0.7291
 4785TIP3    H235847   0.363   6.667  14.783  0.5364  1.4833  0.0940
 4786TIP3   OH235848   4.648   1.523  15.054  0.3126  0.1750 -0.1623
 4786TIP3    H135849   4.697   1.586  15.106  0.5189  0.6264 -0.8978
 4786TIP3    H235850   4.660   1.551  14.964 -1.9716  0.7761 -0.3348
 4787TIP3   OH235851   0.674   1.096   1.632  0.3925  0.4602  0.3994
 4787TIP3    H135852   0.719   1.032   1.688  1.8888  1.4241  0.3525
 4787TIP3    H235853   0.640   1.043   1.559 -0.4497 -0.6093  1.5235
 4788TIP3   OH235854   6.731   6.709  12.248  0.0406  0.2585 -0.1859
 4788TIP3    H135855   6.732   6.614  12.241  0.4358  0.1142  1.3146
 4788TIP3    H235856   6.756   6.741  12.161 -0.5163 -0.9899 -0.8184
 4789TIP3   OH235857   6.563   6.554   2.910 -0.2641 -0.1494 -0.8408
 4789TIP3    H135858   6.544   6.461   2.895  0.8379 -0.8634  1.7068
 4789TIP3    H235859   6.651   6.555   2.947 -0.1820  1.9437 -0.9680
 4790TIP3   OH235860   3.346   2.101   5.610  0.0388  0.2632  0.0718
 4790TIP3    H135861   3.253   2.082   5.624  0.3194 -1.6953 -0.4057
 4790TIP3    H235862   3.347   2.165   5.540 -0.9602  0.8291  0.5491
 4791TIP3   OH235863   6.433   3.535  15.291  0.0014  0.2456  0.0105
 4791TIP3    H135864   6.384   3.506  15.214 -0.4713 -0.6331  0.6212
 4791TIP3    H235865   6.367   3.579  15.345 -0.0235 -0.4897  0.6002
 4792TIP3   OH235866   1.155   4.945  16.695 -0.8859  0.1806  0.5447
 4792TIP3    H135867   1.112   5.019  16.739 -0.9409  1.9291 -2.2078
 4792TIP3    H235868   1.133   4.956  16.602  3.3785 -0.2974 -0.7262
 4793TIP3   OH235869   4.318   1.887  16.118  0.1419  0.0633 -0.1468
 4793TIP3    H135870   4.341   1.862  16.028  1.2577 -0.5921  0.2852
 4793TIP3    H235871   4.402   1.909  16.158 -0.5636  2.4664  0.1460
 4794TIP3   OH235872   2.329   3.681  16.990  0.4579  0.6507 -0.2007
 4794TIP3    H135873   2.325   3.743  16.917  1.0693  2.2660  1.0538
 4794TIP3    H235874   2.237   3.661  17.010  0.2861 -1.2643 -2.4901
 4795TIP3   OH235875   6.310   1.604  12.783 -0.0741  0.1857 -0.2227
 4795TIP3    H135876   6.387   1.617  12.839 -1.5167  0.3510  1.8286
 4795TIP3    H235877   6.275   1.519  12.809  0.6455 -1.0013 -2.7965
 4796TIP3   OH235878   1.121   5.888  12.049  0.0238 -0.0318 -0.0858
 4796TIP3    H135879   1.043   5.901  12.101  0.6547  1.2144  0.5930
 4796TIP3    H235880   1.101   5.929  11.965  0.1312  0.8065  0.2826
 4797TIP3   OH235881   2.689   2.470  10.886  0.4264 -0.2981 -0.4723
 4797TIP3    H135882   2.681   2.401  10.952 -1.0760  0.1782 -0.1149
 4797TIP3    H235883   2.713   2.548  10.936 -3.5203  0.7768  0.0905
 4798TIP3   OH235884   4.753   0.447   6.396  0.8005 -0.2784 -0.3640
 4798TIP3    H135885   4.789   0.370   6.351  0.4119 -1.3075  0.9933
 4798TIP3    H235886   4.764   0.519   6.334  0.7800 -1.5117 -1.8679
 4799TIP3   OH235887   4.358   5.929   0.231  0.2397 -0.1917 -0.7220
 4799TIP3    H135888   4.352   5.883   0.147  0.0634 -0.6052 -0.4903
 4799TIP3    H235889   4.318   5.868   0.294  0.7793 -0.0815 -0.2659
 4800TIP3   OH235890   4.955   1.672  13.000  0.2494 -0.5083  0.3343
 4800TIP3    H135891   5.040   1.680  13.044  0.9153 -1.2321 -0.7600
 4800TIP3    H235892   4.907   1.608  13.051  1.5293 -2.3787 -0.6898
 4801TIP3   OH235893   4.409   6.385   1.842  0.0439 -0.2152  0.1725
 4801TIP3    H135894   4.395   6.470   1.884  1.0529  0.6398 -1.1288
 4801TIP3    H235895   4.456   6.333   1.907 -1.2418 -0.0633  1.2652
 4802TIP3   OH235896   4.223   2.706   1.928 -0.1198 -0.1191 -0.1317
 4802TIP3    H135897   4.202   2.767   1.858  1.2218  1.0401  0.4122
 4802TIP3    H235898   4.141   2.693   1.975 -0.6623  0.4190 -0.9132
 4803TIP3   OH235899   6.453   3.229   1.152 -0.1891  0.4075 -0.0644
 4803TIP3    H135900   6.466   3.314   1.192  1.2380  0.3640 -0.3894
 4803TIP3    H235901   6.460   3.245   1.058  2.7584 -0.4248 -0.0741
 4804TIP3   OH235902   4.764   4.848  11.476  0.5409  0.1712 -0.2688
 4804TIP3    H135903   4.853   4.872  11.502  0.5082  0.7930 -0.7321
 4804TIP3    H235904   4.771   4.823  11.384  0.0779  1.1456 -0.5854
 4805TIP3   OH235905   3.014   5.514   2.899  0.0586  0.1916 -0.2466
 4805TIP3    H135906   3.095   5.553   2.865  0.7990 -0.4287  0.7310
 4805TIP3    H235907   3.019   5.527   2.994 -2.6050  3.0968 -0.3489
 4806TIP3   OH235908   3.675   1.016  15.883  0.4655 -0.7088  0.1529
 4806TIP3    H135909   3.599   1.058  15.924  1.1010  0.8554 -0.1789
 4806TIP3    H235910   3.720   0.972  15.955  0.5382  0.3950  0.8069
 4807TIP3   OH235911   1.476   6.415   1.045 -0.0589 -0.2240 -0.0140
 4807TIP3    H135912   1.477   6.504   1.081 -0.0896  0.0382 -0.6308
 4807TIP3    H235913   1.396   6.376   1.080  0.4769 -0.3746  1.0900
 4808TIP3   OH235914   4.783   1.641   4.183  0.2579  0.0958 -0.3249
 4808TIP3    H135915   4.729   1.694   4.125  1.8541  1.7485 -0.3910
 4808TIP3    H235916   4.837   1.587   4.125  0.7868  0.6488 -0.3569
 4809TIP3   OH235917   5.093   1.797   5.398  0.1622  0.6673 -0.1005
 4809TIP3    H135918   5.086   1.891   5.380  2.3954  0.8575 -0.1902
 4809TIP3    H235919   5.186   1.782   5.415 -0.0424 -1.6503 -0.6586
 4810TIP3   OH235920   5.117   1.115  10.570 -0.0706 -1.4363  0.5697
 4810TIP3    H135921   5.197   1.068  10.590  0.1799 -0.6572  1.4892
 4810TIP3    H235922   5.080   1.138  10.655  0.1669  0.5795  0.1846
 4811TIP3   OH235923   4.951   5.398   3.067 -0.2686  0.3814 -0.2034
 4811TIP3    H135924   4.871   5.418   3.018 -0.1344  1.6355  0.0489
 4811TIP3    H235925   4.933   5.314   3.109 -0.8989 -0.0546 -1.3025
 4812TIP3   OH235926   3.927   1.722  14.020 -0.6900  0.1225 -0.3276
 4812TIP3    H135927   3.963   1.649  14.069  0.0574  2.7164  3.3519
 4812TIP3    H235928   4.003   1.768  13.984 -0.8704  0.8946  0.2382
 4813TIP3   OH235929   4.782   3.716  12.028  0.3153  0.1631  0.3928
 4813TIP3    H135930   4.741   3.768  12.097  0.3411  0.6763  0.0205
 4813TIP3    H235931   4.858   3.675  12.071 -0.3571 -0.5048  0.9909
 4814TIP3   OH235932   0.285   0.929   0.114 -0.2483 -0.3536 -0.0445
 4814TIP3    H135933   0.338   0.995   0.070  0.5560 -0.5109  0.6763
 4814TIP3    H235934   0.222   0.901   0.047  0.1399  0.3114 -0.7025
 4815TIP3   OH235935   2.844   6.338   4.239 -0.0173 -0.2722  0.3246
 4815TIP3    H135936   2.841   6.246   4.215 -1.6441 -0.3171  0.6116
 4815TIP3    H235937   2.885   6.339   4.326  0.7402 -0.6185 -0.0126
 4816TIP3   OH235938   2.105   4.277   2.120  0.3153 -0.5638  0.2128
 4816TIP3    H135939   2.010   4.263   2.123  0.2014  0.1299 -0.0378
 4816TIP3    H235940   2.115   4.372   2.120  0.9768 -0.6233 -0.5830
 4817TIP3   OH235941   3.231   5.836  13.772  0.3573  0.4496 -0.9148
 4817TIP3    H135942   3.235   5.801  13.683 -0.1569 -0.6110 -0.5426
 4817TIP3    H235943   3.150   5.887  13.775  0.7354  1.0867 -1.2458
 4818TIP3   OH235944   1.524   6.238   4.171 -0.1549 -0.4024  0.2484
 4818TIP3    H135945   1.605   6.251   4.122 -0.0329 -0.2102  0.4954
 4818TIP3    H235946   1.494   6.327   4.191 -1.3611 -0.4185 -1.3493
 4819TIP3   OH235947   5.535   1.504   4.047 -0.3579  0.2807 -0.6208
 4819TIP3    H135948   5.492   1.544   4.124 -1.7487  1.5053 -1.9493
 4819TIP3    H235949   5.463   1.492   3.984  0.8903  0.2006 -2.0750
 4820TIP3   OH235950   4.998   5.241   5.051  0.7576  0.3174 -0.4646
 4820TIP3    H135951   5.077   5.249   5.104  0.3269  0.8771  0.1094
 4820TIP3    H235952   4.926   5.253   5.113  0.1982 -0.6943 -0.8849
 4821TIP3   OH235953   2.266   3.321  15.366  0.2714  0.2700  0.5197
 4821TIP3    H135954   2.262   3.347  15.274 -1.1245  0.0814  0.5076
 4821TIP3    H235955   2.351   3.277  15.375  0.5310  0.5088 -0.6144
 4822TIP3   OH235956   0.607   3.881  14.435  0.6680 -0.2317  0.4990
 4822TIP3    H135957   0.664   3.942  14.481  0.8093 -0.1285  0.1863
 4822TIP3    H235958   0.539   3.859  14.499 -0.8253  2.1346 -0.1331
 4823TIP3   OH235959   4.733   0.872  13.292  0.1522  0.8038 -0.1688
 4823TIP3    H135960   4.687   0.956  13.282 -1.1304  0.3899  1.7444
 4823TIP3    H235961   4.824   0.893  13.271 -0.0044  2.8577  0.8437
 4824TIP3   OH235962   4.598   0.309   4.687  0.1358 -0.1270  0.7414
 4824TIP3    H135963   4.514   0.268   4.667  0.6762 -1.2053  0.6334
 4824TIP3    H235964   4.592   0.397   4.649 -0.7368 -0.3890  0.2657
 4825TIP3   OH235965   3.767   0.279  17.176  0.3989 -0.0179 -0.1286
 4825TIP3    H135966   3.843   0.293  17.233  0.0848  1.2754  0.0171
 4825TIP3    H235967   3.798   0.305  17.089  0.3782 -0.3471 -0.2352
 4826TIP3   OH235968   2.605   3.275   0.929 -0.0730 -0.0090 -0.1026
 4826TIP3    H135969   2.615   3.180   0.917  0.3518  0.0508 -0.2392
 4826TIP3    H235970   2.522   3.296   0.886 -1.2977 -0.6585  1.7937
 4827TIP3   OH235971   1.398   6.662  15.240  0.3268  0.4589 -0.4032
 4827TIP3    H135972   1.312   6.696  15.214  0.6022  0.0049 -1.9985
 4827TIP3    H235973   1.440   6.638  15.158  1.1260 -1.3993  0.5056
 4828TIP3   OH235974   2.518   6.163  16.623  0.2013  0.6931  0.4329
 4828TIP3    H135975   2.454   6.108  16.578 -0.0050  0.1465  1.3718
 4828TIP3    H235976   2.565   6.208  16.552 -1.5137  1.4742 -0.2730
 4829TIP3   OH235977   5.868   4.704  13.634  0.4476  0.3856  0.5241
 4829TIP3    H135978   5.894   4.741  13.718 -1.1534 -0.5405  1.4822
 4829TIP3    H235979   5.877   4.776  13.572 -0.2139  1.6699  1.8608
 4830TIP3   OH235980   6.099   3.548   5.654 -0.8011 -0.2458 -0.2914
 4830TIP3    H135981   6.174   3.511   5.701  0.2718 -0.2897 -1.9456
 4830TIP3    H235982   6.024   3.528   5.710  0.4950  0.6162  1.8960
 4831TIP3   OH235983   6.404   1.071  11.908 -0.1575  0.2638  0.1039
 4831TIP3    H135984   6.322   1.109  11.877 -0.0440  0.1157 -0.3853
 4831TIP3    H235985   6.443   1.031  11.830 -0.2403 -0.7995  0.5925
 4832TIP3   OH235986   1.856   2.098   3.347 -0.3823  0.0901 -0.1729
 4832TIP3    H135987   1.821   2.182   3.376 -1.2209 -0.7332  1.3095
 4832TIP3    H235988   1.846   2.040   3.422  1.5218 -0.9785 -0.6795
 4833TIP3   OH235989   3.480   1.482   3.726 -0.4350  0.4682  0.0512
 4833TIP3    H135990   3.572   1.457   3.712 -0.3109  1.3056 -0.7980
 4833TIP3    H235991   3.476   1.573   3.695 -0.9992  1.3116  2.3871
 4834TIP3   OH235992   2.653   0.593  11.487  0.1645 -0.3997 -0.0001
 4834TIP3    H135993   2.640   0.625  11.398 -0.0223  0.1703  0.2274
 4834TIP3    H235994   2.748   0.586  11.496  0.1604 -1.1978 -0.4959
 4835TIP3   OH235995   2.621   5.349   5.161 -0.4091 -0.2634  0.4508
 4835TIP3    H135996   2.615   5.298   5.080  0.8613  1.0139 -0.4838
 4835TIP3    H235997   2.548   5.317   5.215 -0.1884 -2.4186 -0.4378
 4836TIP3   OH235998   5.216   5.780   1.886  0.8815 -0.1072 -0.4604
 4836TIP3    H135999   5.250   5.863   1.920  0.1533 -0.5201  1.3753
 4836TIP3    H236000   5.128   5.801   1.856  0.7942 -0.1696 -0.2451
 4837TIP3   OH236001   1.259   0.030   0.843 -0.0539 -0.3000 -0.1387
 4837TIP3    H136002   1.216  -0.019   0.913 -0.9461 -0.5094 -0.8186
 4837TIP3    H236003   1.341  -0.017   0.827  1.0459  0.7546  1.9617
 4838TIP3   OH236004   5.386   5.075  14.020  0.2737 -0.1281 -0.6466
 4838TIP3    H136005   5.356   5.125  13.945 -0.1552  1.2183  0.3780
 4838TIP3    H236006   5.353   5.123  14.096  0.6805 -1.4448  0.4094
 4839TIP3   OH236007   0.492   2.505   6.630 -0.0085  0.1150  0.1500
 4839TIP3    H136008   0.558   2.558   6.585  0.3915 -0.5304 -0.0388
 4839TIP3    H236009   0.409   2.533   6.591  0.3726 -0.8060 -1.4292
 4840TIP3   OH236010   3.987   2.880   0.553 -0.3147 -0.1200 -0.4356
 4840TIP3    H136011   3.944   2.965   0.566 -1.1971 -0.2490 -2.2061
 4840TIP3    H236012   3.980   2.837   0.638 -3.9667 -0.2137 -0.6449
 4841TIP3   OH236013   0.447   1.208   4.906  0.1246 -0.1966 -0.4539
 4841TIP3    H136014   0.451   1.166   4.992  0.5019 -1.0646 -0.8769
 4841TIP3    H236015   0.523   1.267   4.905 -1.1225  1.5232  0.6284
 4842TIP3   OH236016   5.961   2.537  13.159 -0.0775 -0.6344  1.1181
 4842TIP3    H136017   5.966   2.619  13.209 -1.0848 -0.0960  0.3805
 4842TIP3    H236018   6.039   2.538  13.103  0.0190 -0.2685  1.2566
 4843TIP3   OH236019   3.379   4.432  14.572 -0.1743  0.1271 -0.1518
 4843TIP3    H136020   3.385   4.375  14.496 -2.2263 -0.3813  0.0250
 4843TIP3    H236021   3.318   4.388  14.631  0.2874  1.1988  1.1877
 4844TIP3   OH236022   1.522   4.514   2.727 -0.1315 -0.1053 -0.9309
 4844TIP3    H136023   1.541   4.481   2.815  0.4286  1.1185 -0.5671
 4844TIP3    H236024   1.429   4.534   2.728  0.3089  2.2259  0.2487
 4845TIP3   OH236025   2.856   5.123   4.772  0.4441 -0.0358  0.5142
 4845TIP3    H136026   2.943   5.088   4.794  0.6515  0.6153  0.7716
 4845TIP3    H236027   2.802   5.102   4.848  0.2336 -0.9009  0.1348
 4846TIP3   OH236028   5.257   4.870  11.711  0.1092  0.4840 -0.5423
 4846TIP3    H136029   5.287   4.780  11.724  1.5138  1.2890  2.4778
 4846TIP3    H236030   5.334   4.916  11.679  0.1848  1.1492  0.5626
 4847TIP3   OH236031   1.846   3.935  14.543 -0.3689 -0.0522  0.5742
 4847TIP3    H136032   1.936   3.949  14.573 -0.7851  0.0800  1.8094
 4847TIP3    H236033   1.845   3.970  14.454  0.4655  1.1404  1.0145
 4848TIP3   OH236034   2.960   4.477   0.674 -0.2786 -0.4887  0.2729
 4848TIP3    H136035   2.872   4.508   0.695 -0.6752 -1.0186 -0.5448
 4848TIP3    H236036   2.965   4.483   0.579  0.1253 -1.6163  0.2081
 4849TIP3   OH236037   2.360   6.454   5.498 -0.3736 -0.6775  0.3196
 4849TIP3    H136038   2.284   6.511   5.504 -0.3735 -0.5287 -0.8361
 4849TIP3    H236039   2.327   6.374   5.456  0.2129 -0.3570 -0.8038
 4850TIP3   OH236040   6.264   4.915   0.339  0.3499  0.2540 -0.0161
 4850TIP3    H136041   6.214   4.884   0.264  1.1520  0.5545 -0.6947
 4850TIP3    H236042   6.323   4.981   0.303  1.6428 -0.4883  0.6347
 4851TIP3   OH236043   3.817   0.298   3.460 -0.0342  0.2148  0.0761
 4851TIP3    H136044   3.737   0.259   3.495 -1.1970  1.6573 -0.8637
 4851TIP3    H236045   3.866   0.223   3.423 -1.0336 -0.6531  0.4652
 4852TIP3   OH236046   0.385   1.407  10.424  0.4317  0.1296 -0.3284
 4852TIP3    H136047   0.290   1.402  10.435  0.6780 -1.5754  1.7367
 4852TIP3    H236048   0.406   1.499  10.440 -0.7366  0.2288  0.8040
 4853TIP3   OH236049   0.252   3.443  14.219  0.4920 -0.1556  0.2099
 4853TIP3    H136050   0.246   3.507  14.290  0.0525 -0.0117  0.0460
 4853TIP3    H236051   0.246   3.358  14.264  1.6038 -0.1122  0.4798
 4854TIP3   OH236052   4.016   0.002   2.190 -0.2639  0.7340 -0.3506
 4854TIP3    H136053   3.946  -0.060   2.170 -0.4335  0.8584 -0.1561
 4854TIP3    H236054   4.063  -0.039   2.263  0.2509  0.3575 -0.8908
 4855TIP3   OH236055   5.072   0.163  11.739  0.7654  0.1306  0.0564
 4855TIP3    H136056   5.095   0.251  11.711  1.6738 -0.1387 -0.0899
 4855TIP3    H236057   4.990   0.173  11.787  1.0703  1.1060  0.3893
 4856TIP3   OH236058   5.598   4.126   2.101 -0.0805  0.1067  0.4542
 4856TIP3    H136059   5.618   4.147   2.010 -1.1941 -1.3291 -0.1727
 4856TIP3    H236060   5.514   4.170   2.118 -1.0141 -1.4166  0.0208
 4857TIP3   OH236061   0.218   6.136   5.441  0.0946  0.0489 -0.5741
 4857TIP3    H136062   0.173   6.053   5.424 -0.3992  0.0924  0.3945
 4857TIP3    H236063   0.230   6.137   5.536  2.7294 -0.2332 -0.8439
 4858TIP3   OH236064   3.126   1.839   0.392  0.1512  0.4052  0.1430
 4858TIP3    H136065   3.129   1.903   0.321  0.3297  0.6966  0.4078
 4858TIP3    H236066   3.168   1.884   0.465 -0.2346  0.1916  0.4972
 4859TIP3   OH236067   1.417   0.109  17.390  0.0018  0.7919 -0.4892
 4859TIP3    H136068   1.440   0.167  17.318 -1.6047  1.4246 -0.5429
 4859TIP3    H236069   1.330   0.138  17.417 -0.3088 -0.7896  0.3332
 4860TIP3   OH236070   1.773   3.754  16.971 -0.0945 -0.4178  0.5082
 4860TIP3    H136071   1.724   3.797  17.041 -1.2691 -1.6006  0.4513
 4860TIP3    H236072   1.775   3.818  16.900  0.1917  0.3892  1.2251
 4861TIP3   OH236073   6.510   2.638   5.498  0.0050  0.2606  0.7818
 4861TIP3    H136074   6.424   2.599   5.513  0.4485 -1.8235 -1.4424
 4861TIP3    H236075   6.494   2.705   5.432  0.0242  0.2220  0.7383
 4862TIP3   OH236076   5.424   6.358  16.794  0.4599 -0.0327  0.1522
 4862TIP3    H136077   5.430   6.349  16.889  0.4180  0.3178  0.1885
 4862TIP3    H236078   5.513   6.382  16.767  0.5242 -0.3524  0.0773
 4863TIP3   OH236079   3.160   1.727   4.807  0.1979 -0.7937 -0.0665
 4863TIP3    H136080   3.234   1.732   4.746  0.9047 -1.2355  0.7326
 4863TIP3    H236081   3.200   1.742   4.893 -0.6817 -0.8540  0.3571
 4864TIP3   OH236082   4.522   1.877   6.103  0.1628  0.6314  0.2536
 4864TIP3    H136083   4.502   1.885   6.010  0.0913  1.1093  0.3058
 4864TIP3    H236084   4.465   1.942   6.145  0.1520  0.3756  0.6346
 4865TIP3   OH236085   1.856   6.145  12.998  0.2369 -0.0254  0.4274
 4865TIP3    H136086   1.934   6.177  12.951  0.4168  1.9601  1.9090
 4865TIP3    H236087   1.887   6.069  13.047  1.3404  0.8325  1.1205
 4866TIP3   OH236088   0.068   0.921  13.903  0.2785  0.3753  0.3429
 4866TIP3    H136089   0.126   0.996  13.911 -0.7152  1.6271 -2.8456
 4866TIP3    H236090  -0.020   0.958  13.915 -0.2447 -0.1281 -1.6101
 4867TIP3   OH236091   3.533   0.779  16.322  0.1337 -0.0280 -0.1242
 4867TIP3    H136092   3.471   0.780  16.395 -0.6009 -1.0049 -0.7091
 4867TIP3    H236093   3.612   0.739  16.358  1.8430  4.3296  1.6455
 4868TIP3   OH236094   5.975   0.052   2.610  0.2989 -0.4886  0.1622
 4868TIP3    H136095   6.025   0.124   2.650 -0.2634  0.1157 -0.2140
 4868TIP3    H236096   6.042  -0.008   2.577  0.7756  0.1035  0.0382
 4869TIP3   OH236097   5.947   5.595   3.272 -0.2679 -0.3749 -0.2478
 4869TIP3    H136098   6.008   5.532   3.308  0.7968  0.5693 -0.3448
 4869TIP3    H236099   6.002   5.657   3.224 -1.1421  1.1634  0.6332
 4870TIP3   OH236100   1.029   0.789  15.598  0.6161 -0.3911 -0.3893
 4870TIP3    H136101   1.008   0.786  15.691  0.8801 -0.7936 -0.3413
 4870TIP3    H236102   0.984   0.868  15.566  0.6706 -0.1508  0.1118
 4871TIP3   OH236103   6.265   1.741  13.708 -0.0159 -0.4506 -0.0427
 4871TIP3    H136104   6.356   1.764  13.690 -0.0532  0.8181  1.1955
 4871TIP3    H236105   6.251   1.768  13.799 -1.3970 -1.3960  0.0554
 4872TIP3   OH236106   2.474   0.874  15.377 -1.2649  0.2932 -0.8209
 4872TIP3    H136107   2.402   0.903  15.432 -0.8562  0.0064 -0.1280
 4872TIP3    H236108   2.441   0.797  15.332 -2.1440  1.4227 -2.1966
 4873TIP3   OH236109   2.890   1.658   1.149  0.2637  0.1373  0.0559
 4873TIP3    H136110   2.796   1.669   1.136 -0.1636 -1.3808  1.5245
 4873TIP3    H236111   2.915   1.588   1.090  0.7414  1.2925 -1.1645
 4874TIP3   OH236112   0.182   6.094   0.344  0.4839  0.4344 -0.1619
 4874TIP3    H136113   0.238   6.164   0.310 -0.3072  0.7394 -0.8880
 4874TIP3    H236114   0.093   6.129   0.334  0.1048 -0.5144 -0.1528
 4875TIP3   OH236115   0.739   4.795   2.443 -0.1881  0.2128 -0.1422
 4875TIP3    H136116   0.676   4.762   2.506 -1.2770  0.7867 -0.8948
 4875TIP3    H236117   0.803   4.843   2.496 -0.2217 -0.6001  0.6530
 4876TIP3   OH236118   4.821   5.603   3.589 -0.2693  0.4559  0.4210
 4876TIP3    H136119   4.891   5.542   3.613  1.7346  1.6394 -1.9425
 4876TIP3    H236120   4.770   5.557   3.522  1.2086  1.2229 -1.3211
 4877TIP3   OH236121   3.565   6.055  10.460  0.5167 -0.0688  0.1209
 4877TIP3    H136122   3.495   6.047  10.525  0.8425  0.5290  0.5545
 4877TIP3    H236123   3.621   5.979  10.476  0.8519  0.3232  0.8558
 4878TIP3   OH236124   2.462   5.093  15.175 -0.1235 -0.5532 -0.3674
 4878TIP3    H136125   2.418   5.078  15.259 -2.0970  1.2945 -0.9755
 4878TIP3    H236126   2.456   5.009  15.130 -0.2139 -1.2029  0.8120
 4879TIP3   OH236127   2.696   1.098   3.578  0.3621 -0.1095 -0.1162
 4879TIP3    H136128   2.706   1.006   3.553  0.0553 -0.2466  0.2565
 4879TIP3    H236129   2.708   1.099   3.673 -1.4114 -0.0499  0.1463
 4880TIP3   OH236130   6.222   5.561  13.314 -0.0551 -0.3784  0.5335
 4880TIP3    H136131   6.296   5.590  13.261 -1.8157 -0.4503 -2.1649
 4880TIP3    H236132   6.246   5.472  13.341  0.0857 -1.1956 -2.0096
 4881TIP3   OH236133   0.670   1.304  13.853 -0.2830 -0.2642 -0.3401
 4881TIP3    H136134   0.692   1.258  13.771 -0.3158  1.1328 -1.1711
 4881TIP3    H236135   0.587   1.347  13.834 -1.7631 -2.1579  1.4083
 4882TIP3   OH236136   0.017   2.025  13.416  0.0572 -0.4538 -0.1277
 4882TIP3    H136137  -0.065   2.052  13.374  0.9037 -0.2604 -1.7590
 4882TIP3    H236138   0.069   2.105  13.420  0.7850 -0.8912 -0.6421
 4883TIP3   OH236139   0.491   1.168  12.049 -0.1604  0.0083 -0.2156
 4883TIP3    H136140   0.439   1.234  12.095 -1.8433 -1.0095 -0.5918
 4883TIP3    H236141   0.581   1.202  12.053 -0.9360  2.2164 -0.2419
 4884TIP3   OH236142   0.080   3.718  16.708  0.5104  0.4428 -0.4254
 4884TIP3    H136143   0.081   3.802  16.753 -1.4277  1.2482 -1.7380
 4884TIP3    H236144   0.007   3.670  16.748 -0.9265  0.9792 -2.2459
 4885TIP3   OH236145   2.757   1.998   6.014 -0.4289  0.1552 -0.4313
 4885TIP3    H136146   2.697   1.926   5.998  0.7342 -0.7899 -0.6576
 4885TIP3    H236147   2.742   2.024   6.105 -0.2602 -0.9448 -0.0821
 4886TIP3   OH236148   6.244   1.160  11.296  0.0611 -0.5867  0.0358
 4886TIP3    H136149   6.216   1.129  11.382  1.8696  0.1208  0.9363
 4886TIP3    H236150   6.272   1.081  11.249  0.3756 -0.8270  0.6215
 4887TIP3   OH236151   6.680   4.741  11.538 -0.1576 -0.2036  0.2467
 4887TIP3    H136152   6.632   4.662  11.512 -0.2682 -0.0057 -0.1608
 4887TIP3    H236153   6.626   4.814  11.507  0.6064  0.0226 -0.6214
 4888TIP3   OH236154   0.754   2.357  16.184  0.1276  0.3970 -0.3585
 4888TIP3    H136155   0.813   2.289  16.216  0.8223  0.0996 -2.1545
 4888TIP3    H236156   0.799   2.394  16.108 -1.0188  1.6938 -0.4446
 4889TIP3   OH236157   4.263   0.701   5.990  0.0196 -0.4218 -0.1116
 4889TIP3    H136158   4.208   0.664   5.921  0.2128  0.7797 -0.9306
 4889TIP3    H236159   4.212   0.775   6.024  0.6118 -0.0391 -0.0530
 4890TIP3   OH236160   3.929   1.135   4.073  0.9043 -0.0120  0.3546
 4890TIP3    H136161   3.905   1.063   4.014  0.5527 -0.1935  0.7183
 4890TIP3    H236162   3.860   1.200   4.060  0.5722 -0.2475  0.8998
 4891TIP3   OH236163   6.315   4.160  15.578 -0.4181  0.1659 -0.1934
 4891TIP3    H136164   6.300   4.251  15.553 -2.4753 -0.0207  0.1940
 4891TIP3    H236165   6.235   4.134  15.622 -1.5793 -2.9981 -3.6318
 4892TIP3   OH236166   2.834   5.151  13.576 -0.3374  0.0505 -0.2090
 4892TIP3    H136167   2.747   5.114  13.569 -1.8647  3.3070 -0.1956
 4892TIP3    H236168   2.864   5.125  13.663 -1.3034 -1.0624 -0.1875
 4893TIP3   OH236169   5.924   2.004  13.655 -0.0639 -0.0033  0.0708
 4893TIP3    H136170   6.005   2.051  13.674  0.4626 -0.9903  0.3296
 4893TIP3    H236171   5.945   1.912  13.671 -0.3587 -0.6533 -2.7421
 4894TIP3   OH236172   6.103   4.231   4.426  0.2221  0.3468 -0.1096
 4894TIP3    H136173   6.062   4.313   4.454 -0.2931 -0.3338  1.1757
 4894TIP3    H236174   6.186   4.228   4.474 -0.7721 -0.9377  1.6198
 4895TIP3   OH236175   1.773   2.192   1.545 -0.1276  0.0565  0.0201
 4895TIP3    H136176   1.735   2.206   1.458 -1.1171  0.2788  0.4817
 4895TIP3    H236177   1.705   2.149   1.595  0.0532  0.8748  1.0029
 4896TIP3   OH236178   2.943   0.510   0.773  0.1541 -0.6834 -0.5739
 4896TIP3    H136179   2.995   0.557   0.839  1.4702  0.6153 -2.4536
 4896TIP3    H236180   2.919   0.577   0.709 -1.5548 -1.8065 -1.1923
 4897TIP3   OH236181   1.256   4.943   4.965 -0.2639 -0.0792 -0.2442
 4897TIP3    H136182   1.325   4.940   5.032 -0.8029 -0.6603  0.3007
 4897TIP3    H236183   1.209   5.024   4.985  0.6876  0.7029 -1.0727
 4898TIP3   OH236184   0.286   6.132  15.069 -0.0653 -0.1646 -0.2926
 4898TIP3    H136185   0.201   6.098  15.045 -0.1358 -0.3798  0.2482
 4898TIP3    H236186   0.347   6.093  15.007 -0.2430 -0.7090 -0.1289
 4899TIP3   OH236187   6.499   5.878  12.088  0.5883 -0.1192  0.6242
 4899TIP3    H136188   6.424   5.938  12.087 -0.4670 -1.4166  0.2181
 4899TIP3    H236189   6.484   5.822  12.164  0.1370 -1.5914 -0.5020
 4900TIP3   OH236190   0.963   6.425  15.567  0.1965  0.1881  0.3318
 4900TIP3    H136191   1.004   6.500  15.524 -0.0948  0.9781  1.3988
 4900TIP3    H236192   1.023   6.402  15.638 -0.1863  0.0216  0.6051
 4901TIP3   OH236193   0.151   5.800   1.577  0.1601  0.1333  0.0835
 4901TIP3    H136194   0.185   5.711   1.573  0.6632  0.3519 -0.8405
 4901TIP3    H236195   0.107   5.805   1.661 -0.6393 -1.2577 -0.2217
 4902TIP3   OH236196   2.422   2.358  11.627 -0.3469  0.3564 -0.5996
 4902TIP3    H136197   2.418   2.263  11.634  0.1563  0.3462 -0.3711
 4902TIP3    H236198   2.332   2.386  11.611 -0.5085 -0.1505 -0.5667
 4903TIP3   OH236199   2.216   4.115   3.197  0.2277 -0.2998  0.3615
 4903TIP3    H136200   2.156   4.148   3.130  1.3653 -1.2409 -1.1702
 4903TIP3    H236201   2.303   4.131   3.162  0.8844 -0.1243  1.9813
 4904TIP3   OH236202   3.601   4.213   2.576  0.1086  0.0636 -0.0353
 4904TIP3    H136203   3.577   4.306   2.568  0.3023  0.0300 -1.0670
 4904TIP3    H236204   3.675   4.213   2.637  1.5225  0.8345 -1.6796
 4905TIP3   OH236205   3.042   2.602   3.698  0.1349  0.0751 -0.3562
 4905TIP3    H136206   3.080   2.610   3.611  1.5105 -2.6080 -0.1173
 4905TIP3    H236207   2.980   2.529   3.690  0.8330 -0.7231  1.0229
 4906TIP3   OH236208   1.432   0.660  12.770 -0.2354  0.4446  0.0465
 4906TIP3    H136209   1.415   0.629  12.681  0.0178 -0.0071  0.1530
 4906TIP3    H236210   1.376   0.604  12.825  1.1883 -0.7391  0.3610
 4907TIP3   OH236211   3.498   0.789   4.650  0.0295 -0.2267  0.0024
 4907TIP3    H136212   3.453   0.724   4.596 -2.3174  0.9272  0.4782
 4907TIP3    H236213   3.462   0.873   4.622  1.8311  0.7824  0.5252
 4908TIP3   OH236214   2.270   6.445  13.977  0.0360  0.5495  0.0372
 4908TIP3    H136215   2.191   6.401  14.010  0.0058  0.2805 -0.3955
 4908TIP3    H236216   2.324   6.458  14.055 -0.3941  0.6477  0.3228
 4909TIP3   OH236217   3.099   1.376   0.649 -0.1863 -0.4011  0.2797
 4909TIP3    H136218   3.185   1.339   0.630 -0.2517 -0.5548  0.2840
 4909TIP3    H236219   3.109   1.469   0.630  0.1148 -0.3359  0.7451
 4910TIP3   OH236220   5.507   4.580  16.555  0.0508 -0.4659  0.6478
 4910TIP3    H136221   5.564   4.515  16.595 -0.1170 -0.3780  1.0299
 4910TIP3    H236222   5.565   4.627  16.494 -0.1274 -1.8219 -0.6353
 4911TIP3   OH236223   1.725   5.414  17.040  0.1293 -0.4787  0.1243
 4911TIP3    H136224   1.758   5.473  17.108 -0.8724 -0.2163  0.4044
 4911TIP3    H236225   1.724   5.328  17.081 -1.0473 -0.2230  0.6655
 4912TIP3   OH236226   2.470   6.401  14.890  0.7289 -0.2571 -0.2242
 4912TIP3    H136227   2.492   6.350  14.812  0.8021 -1.3817  0.5160
 4912TIP3    H236228   2.397   6.355  14.930  2.0648 -0.9478  1.5302
 4913TIP3   OH236229   5.536   6.186  12.782 -0.4610  0.2503 -0.1712
 4913TIP3    H136230   5.574   6.185  12.870  0.6217  2.5442 -0.5205
 4913TIP3    H236231   5.610   6.209  12.725 -1.4531  0.2965 -1.4731
 4914TIP3   OH236232   0.926   0.215   0.774  0.4344 -0.2560 -0.5273
 4914TIP3    H136233   0.832   0.232   0.768  0.2936 -0.5248  0.6285
 4914TIP3    H236234   0.936   0.123   0.748  0.3041 -0.3766 -0.1592
 4915TIP3   OH236235   5.809   1.769   0.290 -0.8513 -0.0470  0.3873
 4915TIP3    H136236   5.839   1.679   0.284  1.9386  0.6236  2.3496
 4915TIP3    H236237   5.861   1.816   0.224 -1.4693  0.3098  0.1491
 4916TIP3   OH236238   2.255   1.710   0.369 -0.6424 -0.0319 -0.0442
 4916TIP3    H136239   2.237   1.715   0.462 -1.3026 -1.8804 -0.0217
 4916TIP3    H236240   2.295   1.624   0.357 -0.6467  0.1379 -1.4730
 4917TIP3   OH236241   6.063   2.919  11.577 -0.2443 -0.4622  0.7424
 4917TIP3    H136242   6.139   2.977  11.585  0.2790 -1.1660  0.9075
 4917TIP3    H236243   6.075   2.876  11.492  0.1754 -1.4685  1.3059
 4918TIP3   OH236244   0.149   5.260   2.751 -0.4682  0.0285 -0.0316
 4918TIP3    H136245   0.205   5.184   2.759  1.1504  1.2807  1.3379
 4918TIP3    H236246   0.149   5.282   2.658  1.5032  0.0928 -0.0406
 4919TIP3   OH236247   5.222   4.764  15.133  0.1098 -0.5362 -0.0135
 4919TIP3    H136248   5.160   4.692  15.140  1.4506 -1.8259 -0.6905
 4919TIP3    H236249   5.308   4.721  15.134  1.1094  1.2508  2.3086
 4920TIP3   OH236250   6.137   0.529   3.086  0.4548  0.1856 -0.5158
 4920TIP3    H136251   6.055   0.578   3.083  1.4014  1.8682  0.1215
 4920TIP3    H236252   6.137   0.478   3.004 -0.5345  1.2963 -1.2411
 4921TIP3   OH236253   2.894   6.610   4.976 -0.4232 -0.0188  0.6958
 4921TIP3    H136254   2.927   6.602   4.886 -0.2682 -0.4019  0.7866
 4921TIP3    H236255   2.968   6.643   5.026 -0.3303 -0.3783  0.7977
 4922TIP3   OH236256   0.127   3.316   0.930 -0.1922 -0.3551 -0.0230
 4922TIP3    H136257   0.116   3.289   0.839  0.8828  1.1660 -0.6362
 4922TIP3    H236258   0.098   3.407   0.932 -1.3585 -0.7162  1.4445
 4923TIP3   OH236259   2.021   5.581  17.129  0.4146  1.1941  0.1491
 4923TIP3    H136260   2.011   5.672  17.159 -0.6075  1.6190 -1.3260
 4923TIP3    H236261   2.025   5.529  17.209  0.0118  2.4540  1.0184
 4924TIP3   OH236262   0.679   0.421  13.261  0.2896  0.0837 -0.1625
 4924TIP3    H136263   0.641   0.342  13.222 -0.3180  0.5281 -0.4893
 4924TIP3    H236264   0.662   0.490  13.197  0.3039  0.5973  0.3741
 4925TIP3   OH236265   0.340   6.364  12.241  0.0112 -0.1768  0.1476
 4925TIP3    H136266   0.325   6.380  12.335 -0.0796 -0.5605  0.1979
 4925TIP3    H236267   0.313   6.446  12.199  0.4720  0.1584  0.4917
 4926TIP3   OH236268   0.879   1.961   4.648  0.5702 -0.1093 -0.2548
 4926TIP3    H136269   0.972   1.953   4.628  0.7377 -1.7258  0.9994
 4926TIP3    H236270   0.876   2.022   4.723  0.5839  0.1445 -0.4582
 4927TIP3   OH236271   4.855   4.809   3.001  0.3544  0.5380 -0.6568
 4927TIP3    H136272   4.825   4.823   2.911 -0.7251 -1.4027 -0.6529
 4927TIP3    H236273   4.908   4.730   2.997 -1.2036 -0.6500  0.6689
 4928TIP3   OH236274   3.931   5.004   6.007  0.2897 -0.3897  0.3363
 4928TIP3    H136275   3.858   5.013   5.945  0.8367 -0.5846 -0.3429
 4928TIP3    H236276   3.996   4.951   5.961  1.7459  1.4724  0.1297
 4929TIP3   OH236277   4.858   1.753   6.294 -0.4395 -0.4509  0.5317
 4929TIP3    H136278   4.922   1.732   6.363 -0.8382 -1.9061  0.4828
 4929TIP3    H236279   4.904   1.816   6.239  1.0002 -1.4656  0.4862
 4930TIP3   OH236280   4.571   0.196   4.312 -0.3980 -0.4906 -0.2141
 4930TIP3    H136281   4.596   0.143   4.237  1.3101  2.2273 -1.7103
 4930TIP3    H236282   4.590   0.140   4.388  2.3515 -1.6663 -1.6311
 4931TIP3   OH236283   4.625   5.897  15.954  0.4095 -0.3443 -0.3596
 4931TIP3    H136284   4.689   5.841  15.997 -0.9635 -0.3756  1.8514
 4931TIP3    H236285   4.553   5.839  15.932  0.1337  0.0755 -0.5907
 4932TIP3   OH236286   6.289   1.100  14.080 -0.5588  0.2980  0.6486
 4932TIP3    H136287   6.356   1.066  14.139  0.6663  0.2910 -0.6948
 4932TIP3    H236288   6.255   1.178  14.125  0.3942  0.3419  1.3294
 4933TIP3   OH236289   5.555   5.852  17.135 -0.6379 -0.3657 -0.2778
 4933TIP3    H136290   5.467   5.885  17.150 -1.0313 -1.1608 -0.7500
 4933TIP3    H236291   5.568   5.859  17.041  0.5748  1.5815 -0.0162
 4934TIP3   OH236292   3.517   6.741   3.576 -0.0702  0.8805 -0.1259
 4934TIP3    H136293   3.530   6.823   3.528 -1.3603  1.5777  0.6694
 4934TIP3    H236294   3.502   6.767   3.666  2.2904 -0.4175  0.7282
 4935TIP3   OH236295   3.118   5.378  11.457 -0.2960 -0.4795 -0.3871
 4935TIP3    H136296   3.027   5.393  11.480 -0.1307 -0.6776  0.4244
 4935TIP3    H236297   3.128   5.283  11.457  0.4269 -0.4643  1.7454
 4936TIP3   OH236298   4.690   0.931  14.478 -0.2067 -0.7405 -0.3379
 4936TIP3    H136299   4.756   0.902  14.540  0.0092 -1.2252 -0.7893
 4936TIP3    H236300   4.739   0.978  14.411 -0.6103  1.3821  0.7475
 4937TIP3   OH236301   4.731   3.562  16.735  0.4126 -0.2841 -0.1275
 4937TIP3    H136302   4.750   3.483  16.685  1.7380 -0.2698  0.3310
 4937TIP3    H236303   4.798   3.564  16.803 -0.1627  0.7571  0.4253
 4938TIP3   OH236304   2.069   5.652   4.175 -0.0508  0.2382  0.0170
 4938TIP3    H136305   2.101   5.570   4.213 -2.5054 -0.6854  0.2835
 4938TIP3    H236306   2.102   5.652   4.085  1.3734 -0.1857  0.5209
 4939TIP3   OH236307   0.212   2.620  14.016 -0.2400 -0.4152  0.1032
 4939TIP3    H136308   0.272   2.622  14.091 -1.3773 -2.2592  1.1228
 4939TIP3    H236309   0.134   2.665  14.046  0.7314  2.5982 -1.4518
 4940TIP3   OH236310   3.541   5.144  14.733  0.0757 -0.1911 -0.0694
 4940TIP3    H136311   3.583   5.137  14.648 -0.7467 -0.8321 -0.4387
 4940TIP3    H236312   3.452   5.110  14.719 -0.2047  0.0820  0.9415
 4941TIP3   OH236313   4.487   4.943  13.112  0.2957 -0.7119 -0.6204
 4941TIP3    H136314   4.443   5.027  13.113 -0.2393 -0.9940 -0.2258
 4941TIP3    H236315   4.562   4.956  13.053  0.5456  0.1973 -0.1170
 4942TIP3   OH236316   6.041   1.900   5.406 -0.4357 -0.3488  0.1536
 4942TIP3    H136317   6.017   1.811   5.432 -0.0022 -0.5500 -0.1152
 4942TIP3    H236318   6.052   1.947   5.489  0.3948 -0.8357  0.3336
 4943TIP3   OH236319   4.291   4.159   2.994  0.1058 -0.4157 -0.3964
 4943TIP3    H136320   4.236   4.084   2.971  0.3079 -0.4617 -0.7475
 4943TIP3    H236321   4.348   4.126   3.063 -2.5393  0.5761  2.4452
 4944TIP3   OH236322   3.002   3.067   5.948  0.0440 -0.0544 -0.1601
 4944TIP3    H136323   3.085   3.101   5.982 -0.7962  1.1239  0.8225
 4944TIP3    H236324   2.967   3.014   6.020  0.2149 -1.0575 -0.7997
 4945TIP3   OH236325   1.080   4.457   6.103 -0.1938 -0.0589 -0.1923
 4945TIP3    H136326   0.996   4.420   6.129  1.0862 -1.8363  1.7663
 4945TIP3    H236327   1.112   4.503   6.181  1.1480 -0.4142 -0.4998
 4946TIP3   OH236328   5.991   6.239  16.693  0.1997  0.3045 -0.3699
 4946TIP3    H136329   6.060   6.304  16.707  0.0545  0.2343  0.7550
 4946TIP3    H236330   5.912   6.291  16.677  0.1034  0.4186  0.4321
 4947TIP3   OH236331   5.973   1.474  17.157  0.5219  0.1625 -0.0540
 4947TIP3    H136332   6.049   1.510  17.202 -0.4637 -1.0636  2.8927
 4947TIP3    H236333   5.922   1.431  17.227 -1.9720 -0.5948 -2.1583
 4948TIP3   OH236334   4.825   4.594   0.191  0.4910  0.3297 -0.4495
 4948TIP3    H136335   4.854   4.534   0.260  0.7401 -1.2745 -1.8614
 4948TIP3    H236336   4.736   4.619   0.216  0.6449 -0.0784  0.5459
 4949TIP3   OH236337   1.278   0.886  11.407  0.4632 -0.2487 -0.6884
 4949TIP3    H136338   1.313   0.894  11.318  1.2667 -0.2738 -0.3846
 4949TIP3    H236339   1.322   0.810  11.443  0.4733  0.0216 -0.1222
 4950TIP3   OH236340   6.230   4.818   4.591 -0.2175  0.0802  0.3012
 4950TIP3    H136341   6.188   4.899   4.563  0.9953  0.9609  0.9760
 4950TIP3    H236342   6.229   4.763   4.512  0.0777  1.2259 -0.5293
 4951TIP3   OH236343   2.168   2.003   0.376 -0.5730 -0.2546 -0.3324
 4951TIP3    H136344   2.182   1.949   0.453 -1.0662 -0.2063 -0.2016
 4951TIP3    H236345   2.164   2.093   0.410 -3.6738 -0.4281  0.0300
 4952TIP3   OH236346   4.798   6.517   4.411  0.1618  0.1169  0.0409
 4952TIP3    H136347   4.827   6.609   4.412 -1.3674  0.6335 -0.3012
 4952TIP3    H236348   4.797   6.493   4.319 -3.4207  1.1746 -0.3688
 4953TIP3   OH236349   5.327   6.637   2.485  0.3104 -0.4417 -0.1499
 4953TIP3    H136350   5.265   6.682   2.427  0.4211  1.4893  1.1563
 4953TIP3    H236351   5.282   6.632   2.569  1.3423 -0.3525  0.4247
 4954TIP3   OH236352   6.128   5.119  11.603 -0.1266  0.4010 -0.2147
 4954TIP3    H136353   6.191   5.183  11.570  0.5634 -1.6647 -3.3104
 4954TIP3    H236354   6.043   5.151  11.572  0.1431  0.1499 -1.2398
 4955TIP3   OH236355   1.807   2.334   2.702  0.5718  0.4858  0.1494
 4955TIP3    H136356   1.732   2.286   2.736  1.5645 -0.8165  0.6152
 4955TIP3    H236357   1.770   2.414   2.666 -0.8913  0.4657  1.4787
 4956TIP3   OH236358   6.249   1.741   4.639 -0.2968  0.2805  0.1639
 4956TIP3    H136359   6.165   1.769   4.604 -1.0388  1.2277  2.4815
 4956TIP3    H236360   6.268   1.804   4.709  0.5508 -1.9571  2.1044
 4957TIP3   OH236361   2.529   5.099   4.491 -0.4941 -0.1730 -0.6988
 4957TIP3    H136362   2.514   5.192   4.505  1.2513  0.4648 -2.5562
 4957TIP3    H236363   2.556   5.092   4.399 -0.3992 -2.4878 -0.5657
 4958TIP3   OH236364   5.191   4.161  13.617 -0.1986 -0.8182  0.3609
 4958TIP3    H136365   5.273   4.141  13.572  0.2957 -1.0776  1.3331
 4958TIP3    H236366   5.197   4.254  13.638  0.1249 -0.9701  0.9596
 4959TIP3   OH236367   3.406   0.247  16.483  0.1019 -0.1468  0.0916
 4959TIP3    H136368   3.421   0.153  16.491  0.7273 -0.1630 -1.0384
 4959TIP3    H236369   3.324   0.262  16.531  0.4866 -1.0972  1.0867
 4960TIP3   OH236370   1.852   3.722   5.696 -0.7533  0.7050  0.0578
 4960TIP3    H136371   1.795   3.699   5.623 -0.1989  2.9554 -1.1839
 4960TIP3    H236372   1.938   3.735   5.655  0.3805 -1.2041  1.6626
 4961TIP3   OH236373   6.388   0.711   0.954  0.2427 -0.4010  0.0709
 4961TIP3    H136374   6.447   0.734   0.882  0.7102 -0.9168  0.2780
 4961TIP3    H236375   6.394   0.785   1.014 -0.5491  0.2709 -0.6535
 4962TIP3   OH236376   4.108   5.831  17.139 -0.1039 -0.0012  0.0040
 4962TIP3    H136377   4.158   5.911  17.155 -0.8274  0.0047  2.6538
 4962TIP3    H236378   4.174   5.764  17.123  0.6160  0.6044  0.3886
 4963TIP3   OH236379   1.269   6.129   3.150 -0.5187  0.0375  0.2734
 4963TIP3    H136380   1.297   6.128   3.242 -2.9997 -0.0241  1.0823
 4963TIP3    H236381   1.279   6.220   3.123  0.4467  0.0121  0.5101
 4964TIP3   OH236382   1.428   6.444  16.630  0.0820 -0.2557 -0.2520
 4964TIP3    H136383   1.437   6.349  16.625  0.1181 -0.3247  1.0151
 4964TIP3    H236384   1.348   6.458  16.681  0.9863  0.3901  1.0319
 4965TIP3   OH236385   0.678   2.245   1.979 -0.2307 -0.1977 -0.3321
 4965TIP3    H136386   0.684   2.332   1.938 -0.5428 -0.3515 -0.7113
 4965TIP3    H236387   0.600   2.206   1.939  1.8293 -2.0573 -2.8313
 4966TIP3   OH236388   5.695   0.983  13.274  0.4118  0.0401 -0.3761
 4966TIP3    H136389   5.643   0.953  13.349 -0.4065 -0.8026 -1.2572
 4966TIP3    H236390   5.770   0.923  13.271  1.3210  1.0732  0.7169
 4967TIP3   OH236391   6.148   1.729  14.767 -0.0716 -0.3408 -0.2038
 4967TIP3    H136392   6.136   1.724  14.862  0.1984  0.6612 -0.1024
 4967TIP3    H236393   6.118   1.817  14.744  0.0852 -0.4936 -1.0193
 4968TIP3   OH236394   6.370   0.837   5.694  0.2648  0.7126 -0.1563
 4968TIP3    H136395   6.418   0.919   5.706 -0.3558  1.3283 -1.5931
 4968TIP3    H236396   6.287   0.864   5.654 -1.0384 -0.3885  1.6619
 4969TIP3   OH236397   0.578   4.918   4.042  0.0685 -0.0376 -0.5303
 4969TIP3    H136398   0.540   4.830   4.040  1.2613 -0.6656  1.4381
 4969TIP3    H236399   0.636   4.917   4.118 -0.4740  2.7195  0.0243
 4970TIP3   OH236400   3.233   2.946   6.496  0.0192  0.1294 -0.4952
 4970TIP3    H136401   3.285   3.004   6.553 -1.9514  2.0621 -0.5374
 4970TIP3    H236402   3.261   2.858   6.521  0.5730  0.9482  2.1676
 4971TIP3   OH236403   0.738   3.208  15.070 -0.0193 -0.0873 -0.0640
 4971TIP3    H136404   0.778   3.126  15.100 -0.0437  0.3948  1.3769
 4971TIP3    H236405   0.794   3.276  15.107 -1.2251  0.5763  0.6101
 4972TIP3   OH236406   2.553   0.015   3.780  0.6644 -0.1429 -0.1725
 4972TIP3    H136407   2.571  -0.067   3.826 -0.7278  0.2118  1.0890
 4972TIP3    H236408   2.633   0.034   3.731  2.2123 -0.5803  2.0558
 4973TIP3   OH236409   2.688   4.695  11.445  0.2646 -0.4548  0.4960
 4973TIP3    H136410   2.695   4.789  11.431 -1.6408 -0.3285  0.0342
 4973TIP3    H236411   2.597   4.682  11.471  0.3936 -2.2152  0.1718
 4974TIP3   OH236412   0.168   1.896  14.144 -0.3554 -0.1664 -0.0083
 4974TIP3    H136413   0.233   1.869  14.208 -0.2390  0.8598  0.3299
 4974TIP3    H236414   0.216   1.951  14.082 -0.4397 -1.2498 -1.0658
 4975TIP3   OH236415   6.767   4.561  11.887 -0.2720  0.4655 -0.2849
 4975TIP3    H136416   6.741   4.619  11.958  2.3003  0.3669  0.8476
 4975TIP3    H236417   6.686   4.542  11.840 -2.1726  0.2134  2.8439
 4976TIP3   OH236418   3.715   3.547   3.923  0.0298 -0.1091 -0.3064
 4976TIP3    H136419   3.699   3.608   3.995 -2.5744 -0.4508 -0.5043
 4976TIP3    H236420   3.779   3.485   3.959  0.5672  1.0731  0.8793
 4977TIP3   OH236421   6.279   1.484   2.497 -0.2187  0.0997  0.0812
 4977TIP3    H136422   6.275   1.454   2.406  1.3900 -1.3672  0.4455
 4977TIP3    H236423   6.231   1.418   2.547 -2.1015  1.4859  0.2386
 4978TIP3   OH236424   5.857   6.182   6.214  0.2701  0.3784  0.1693
 4978TIP3    H136425   5.911   6.252   6.250  1.0095 -0.5359  0.8828
 4978TIP3    H236426   5.768   6.202   6.244  0.5291  0.8349  0.6487
 4979TIP3   OH236427   2.350   5.313   4.229  0.6736 -0.2367 -0.3090
 4979TIP3    H136428   2.311   5.227   4.218  1.1912 -0.5312  0.1286
 4979TIP3    H236429   2.290   5.360   4.287  1.4177 -1.0088  1.1407
 4980TIP3   OH236430   1.626   3.515   1.140 -0.4182  0.3358 -0.7969
 4980TIP3    H136431   1.689   3.449   1.167 -1.6257  0.5534  3.1133
 4980TIP3    H236432   1.680   3.592   1.119  0.7781  0.3530  1.9197
 4981TIP3   OH236433   0.951   0.744   5.529 -0.0398  0.1200  0.7455
 4981TIP3    H136434   0.999   0.769   5.608  0.4241  0.6521  0.3060
 4981TIP3    H236435   1.016   0.701   5.474  0.1273  1.3967 -0.1199
 4982TIP3   OH236436   2.099   4.377  12.307 -0.2194 -0.2041 -0.2523
 4982TIP3    H136437   2.054   4.461  12.297  1.9507  0.8585 -1.8872
 4982TIP3    H236438   2.144   4.363  12.224  0.7287 -2.2549  0.5198
 4983TIP3   OH236439   3.749   3.924   4.801  0.7279  0.1332  0.1898
 4983TIP3    H136440   3.844   3.915   4.809  0.7635  0.0661 -0.2764
 4983TIP3    H236441   3.714   3.844   4.839  0.9892 -1.3835 -2.5672
 4984TIP3   OH236442   6.422   3.485   3.443 -0.0402  0.2652  0.3569
 4984TIP3    H136443   6.404   3.481   3.349  1.5058  0.1953  0.0349
 4984TIP3    H236444   6.336   3.497   3.484 -0.7044  0.5847 -1.0779
 4985TIP3   OH236445   4.287   2.193   5.901  0.3703 -0.0920  0.3981
 4985TIP3    H136446   4.322   2.115   5.858  1.9429 -0.3450  2.0284
 4985TIP3    H236447   4.198   2.168   5.927  0.9489 -1.4926  1.1565
 4986TIP3   OH236448   2.223   1.664   4.001  0.1275 -0.0677 -0.3178
 4986TIP3    H136449   2.254   1.610   3.929  0.5203 -0.3254  0.0441
 4986TIP3    H236450   2.152   1.614   4.041 -1.0719  0.6932 -1.3917
 4987TIP3   OH236451   6.145   3.638   4.636  0.2888 -0.3020  0.6527
 4987TIP3    H136452   6.150   3.642   4.731 -0.8550 -1.5828  0.8025
 4987TIP3    H236453   6.054   3.663   4.616  0.8788  1.2737 -0.2266
 4988TIP3   OH236454   3.112   4.784  14.812 -0.6744 -0.4000 -0.0346
 4988TIP3    H136455   3.175   4.788  14.740  1.1630 -0.6676  1.4960
 4988TIP3    H236456   3.149   4.841  14.880 -1.6506 -1.2308  1.2388
 4989TIP3   OH236457   1.856   3.203   5.425  0.3391  0.3179 -0.4509
 4989TIP3    H136458   1.839   3.166   5.338 -0.7577 -1.5983  0.5314
 4989TIP3    H236459   1.941   3.247   5.416  1.3186 -1.7127 -1.9368
 4990TIP3   OH236460   4.009   1.224   2.081  0.0297 -0.3544 -0.2892
 4990TIP3    H136461   3.999   1.194   2.171  1.3376 -1.1862 -0.3859
 4990TIP3    H236462   4.068   1.299   2.086 -2.0488  1.3894 -0.2141
 4991TIP3   OH236463   5.737   2.381   0.915 -0.0766 -0.3168 -0.1246
 4991TIP3    H136464   5.675   2.323   0.870  1.2982 -2.0750  0.1710
 4991TIP3    H236465   5.769   2.439   0.846 -1.3736  0.0458 -0.4550
 4992TIP3   OH236466   4.430   1.336   2.978 -0.5306 -0.0575 -0.3695
 4992TIP3    H136467   4.397   1.417   2.939 -0.2604  1.4031  2.1909
 4992TIP3    H236468   4.356   1.300   3.026 -0.5860 -1.2586 -1.3178
 4993TIP3   OH236469   5.298   0.206   2.126 -0.7840  0.0044  0.0859
 4993TIP3    H136470   5.243   0.285   2.131  0.4431  0.9664 -0.8256
 4993TIP3    H236471   5.310   0.192   2.032 -0.0991 -0.6296  0.2675
 4994TIP3   OH236472   3.261   4.995  17.041 -0.7065 -0.4321  0.0317
 4994TIP3    H136473   3.240   5.003  16.948  0.1171 -0.1434 -0.1401
 4994TIP3    H236474   3.280   5.085  17.068 -2.2459 -0.3086  0.8200
 4995TIP3   OH236475   4.084   0.933   6.085  0.3511 -0.1415  0.0462
 4995TIP3    H136476   4.084   1.026   6.105 -1.5355  0.0414 -0.6095
 4995TIP3    H236477   4.047   0.892   6.163  1.2230 -0.3600  0.3530
 4996TIP3   OH236478   3.181   1.192   5.258  1.0656  0.1912 -0.4485
 4996TIP3    H136479   3.149   1.102   5.269  0.4749  0.0705 -2.6796
 4996TIP3    H236480   3.264   1.194   5.305 -0.0556 -0.7967  1.6935
 4997TIP3   OH236481   0.096   2.654  15.772 -0.1235  0.3674  0.6132
 4997TIP3    H136482   0.123   2.743  15.749  0.1641  0.3112  0.7272
 4997TIP3    H236483   0.130   2.600  15.700  0.5745  0.2209  1.0424
 4998TIP3   OH236484   4.909   5.608   5.391  0.4396  0.4534  0.8080
 4998TIP3    H136485   4.824   5.648   5.372 -0.2733  0.2658  3.3277
 4998TIP3    H236486   4.889   5.530   5.442  2.0534 -0.9335 -0.5352
 4999TIP3   OH236487   2.221   0.139  11.141 -0.2965  0.0708  0.0126
 4999TIP3    H136488   2.304   0.181  11.118 -0.1392  0.1247  0.6620
 4999TIP3    H236489   2.156   0.183  11.086 -0.3766  2.2294  1.6631
 5000TIP3   OH236490   3.816   5.079  15.661  0.1664  0.1178 -0.2631
 5000TIP3    H136491   3.905   5.088  15.628 -0.1512 -3.7165 -2.8647
 5000TIP3    H236492   3.760   5.102  15.587 -0.7816 -2.0751 -0.3135
 5001TIP3   OH236493   0.178   2.278  16.324  0.2158  0.2309 -0.0164
 5001TIP3    H136494   0.168   2.330  16.404 -0.2511 -0.1054  0.1511
 5001TIP3    H236495   0.273   2.272  16.312  0.3325 -0.6629  1.1435
 5002TIP3   OH236496   5.122   4.718  17.153 -0.1776  0.2702  0.2982
 5002TIP3    H136497   5.187   4.744  17.218  0.3473  0.0580 -0.1407
 5002TIP3    H236498   5.082   4.801  17.124 -0.4306  0.3630  0.9026
 5003TIP3   OH236499   6.762   6.532   0.740  0.0386 -0.1527  0.6057
 5003TIP3    H136500   6.704   6.526   0.816  0.6370 -1.6214  0.9930
 5003TIP3    H236501   6.711   6.494   0.668  0.5182 -1.5216  0.9645
 5004TIP3   OH236502   6.224   0.306  12.603 -0.1461  0.6674 -0.1173
 5004TIP3    H136503   6.163   0.347  12.665 -0.8801  0.7795 -0.8866
 5004TIP3    H236504   6.169   0.247  12.552  0.4064  0.7247 -0.7879
 5005TIP3   OH236505   0.332   3.240   1.871  0.1852  0.3078 -0.2578
 5005TIP3    H136506   0.244   3.276   1.859 -0.4781 -1.0322  0.4201
 5005TIP3    H236507   0.323   3.148   1.846  0.8130 -0.4414  2.0403
 5006TIP3   OH236508   1.561   1.783   2.047 -0.4578  0.2197 -0.4189
 5006TIP3    H136509   1.468   1.764   2.036 -0.1518 -0.4366 -2.2467
 5006TIP3    H236510   1.584   1.837   1.971  0.8987 -0.6584 -0.6756
 5007TIP3   OH236511   1.613   5.777   3.034 -0.8390 -0.2734  0.2260
 5007TIP3    H136512   1.629   5.801   3.125  0.2587 -0.7389  0.1781
 5007TIP3    H236513   1.546   5.838   3.004 -0.1717  0.8270  0.9149
 5008TIP3   OH236514   1.786   2.589  16.499  0.2060  0.5576 -0.8378
 5008TIP3    H136515   1.872   2.550  16.515 -0.2615 -0.7933 -1.4339
 5008TIP3    H236516   1.763   2.562  16.410 -1.7281 -0.9327  0.0257
 5009TIP3   OH236517   0.840   3.232  13.413  0.2186  0.2852  0.3198
 5009TIP3    H136518   0.766   3.181  13.381  0.9568  0.0991 -1.1844
 5009TIP3    H236519   0.911   3.169  13.422  1.2802  1.0227 -2.0334
 5010TIP3   OH236520   3.976   3.145   5.467  0.3538 -0.5987 -0.3085
 5010TIP3    H136521   4.010   3.225   5.509 -1.9118  0.8626 -1.0649
 5010TIP3    H236522   4.013   3.074   5.519 -1.7895  1.0304  3.9252
 5011TIP3   OH236523   0.997   1.561   3.142 -0.1299 -0.1396  0.1628
 5011TIP3    H136524   0.931   1.560   3.074 -0.6609 -1.6676  0.6500
 5011TIP3    H236525   0.976   1.638   3.195 -1.8099 -0.8228  0.5560
 5012TIP3   OH236526   2.390   5.569  12.255  0.1534  0.2012  0.1233
 5012TIP3    H136527   2.401   5.597  12.346  0.3079  0.2267  0.0968
 5012TIP3    H236528   2.467   5.602  12.210  0.7584 -0.9789  0.2663
 5013TIP3   OH236529   4.892   6.046   0.108 -0.2533 -0.1367  0.7443
 5013TIP3    H136530   4.836   6.000   0.045  0.6112 -0.4885  0.2232
 5013TIP3    H236531   4.904   5.983   0.180  0.5570 -0.5664  0.2411
 5014TIP3   OH236532   0.260   4.294  12.620 -0.4643  0.4663  0.1505
 5014TIP3    H136533   0.186   4.299  12.560 -0.7440  1.3778  0.5570
 5014TIP3    H236534   0.223   4.319  12.705 -0.0565 -0.7186  0.6954
 5015TIP3   OH236535   2.158   1.596  14.761  0.2854 -0.4777 -0.3496
 5015TIP3    H136536   2.226   1.661  14.779  0.0223 -0.5814  1.2179
 5015TIP3    H236537   2.081   1.648  14.740  0.4288 -0.3197 -0.4885
 5016TIP3   OH236538   4.924   2.776   6.724 -0.5425 -0.1029  0.4514
 5016TIP3    H136539   4.837   2.816   6.733 -0.2583  0.7176 -0.2773
 5016TIP3    H236540   4.984   2.850   6.718  0.3423 -0.6540  1.9333
 5017TIP3   OH236541   2.878   1.586  10.970  0.0605 -0.1348 -0.2889
 5017TIP3    H136542   2.830   1.663  11.000  3.6601  1.9751  0.8051
 5017TIP3    H236543   2.861   1.519  11.035 -2.4109 -0.0042 -0.7357
 5018TIP3   OH236544   3.783   3.088   0.609 -0.5039 -0.4679  0.1181
 5018TIP3    H136545   3.820   3.169   0.643  0.5535 -1.6177  1.8912
 5018TIP3    H236546   3.691   3.109   0.591  0.2941  1.7368 -1.8335
 5019TIP3   OH236547   6.070   1.470  13.932  0.0511  0.2331  0.0668
 5019TIP3    H136548   6.054   1.377  13.944  0.9967  0.0850  0.1998
 5019TIP3    H236549   5.985   1.505  13.905 -0.3497 -0.6333  0.1703
 5020TIP3   OH236550   0.201   2.400   2.973 -0.4958 -0.0759  0.4084
 5020TIP3    H136551   0.121   2.389   2.922  0.4974  0.0953 -1.2472
 5020TIP3    H236552   0.233   2.488   2.950  1.5907 -1.1492 -1.1357
 5021TIP3   OH236553   0.247   1.993   1.815  0.2001 -0.2558  0.5092
 5021TIP3    H136554   0.211   1.957   1.734  1.0862  0.6691 -0.3357
 5021TIP3    H236555   0.300   1.922   1.852 -1.5113 -1.2328  1.1712
 5022TIP3   OH236556   5.825   6.735   2.007 -0.2312  0.0563 -0.5125
 5022TIP3    H136557   5.826   6.732   2.102  0.4961 -1.1710 -0.5374
 5022TIP3    H236558   5.743   6.779   1.985  0.1962  1.5465  0.6819
 5023TIP3   OH236559   6.713   0.455  13.375 -0.2586 -0.0645 -0.3180
 5023TIP3    H136560   6.739   0.449  13.467  0.0420  1.0577 -0.3079
 5023TIP3    H236561   6.751   0.378  13.334 -0.3993 -0.5769  0.4961
 5024TIP3   OH236562   5.371   4.905  12.197  0.2059  0.3236 -0.2600
 5024TIP3    H136563   5.416   4.834  12.244 -1.3072 -0.2102  0.4628
 5024TIP3    H236564   5.409   4.903  12.109  0.5681 -1.0589 -0.1063
 5025TIP3   OH236565   0.759   2.522   4.123  0.2513  0.0421 -0.3953
 5025TIP3    H136566   0.764   2.618   4.123 -0.4908  0.0891  0.0751
 5025TIP3    H236567   0.684   2.502   4.179  1.5677 -0.8806  1.1353
 5026TIP3   OH236568   0.070   4.550  15.565 -0.3373 -0.1234 -0.4410
 5026TIP3    H136569   0.068   4.541  15.470  1.4082  0.9460 -0.6274
 5026TIP3    H236570   0.074   4.644  15.580 -2.3042 -0.1900  0.7910
 5027TIP3   OH236571   0.288   2.557  15.228 -0.2034 -0.2228 -0.2019
 5027TIP3    H136572   0.331   2.472  15.235  0.0337 -0.2285 -1.4202
 5027TIP3    H236573   0.359   2.620  15.241  0.1684 -0.2326 -1.9687
 5028TIP3   OH236574   0.339   3.135   1.321 -0.0047  0.7996 -0.5173
 5028TIP3    H136575   0.377   3.068   1.379  0.8406  0.7071 -1.1494
 5028TIP3    H236576   0.251   3.103   1.302 -0.4311  1.0154  0.9871
 5029TIP3   OH236577   4.169   6.257  13.848 -0.3388 -0.4383 -0.5555
 5029TIP3    H136578   4.120   6.205  13.783  0.0162 -1.8183  0.2373
 5029TIP3    H236579   4.135   6.227  13.933 -0.4370  0.9740 -0.0724
 5030TIP3   OH236580   5.759   5.137  16.348 -0.4712 -0.5462 -0.0904
 5030TIP3    H136581   5.744   5.224  16.312  1.0051 -0.4272 -0.4887
 5030TIP3    H236582   5.763   5.150  16.443 -1.0309 -0.3150 -0.0981
 5031TIP3   OH236583   0.638   0.995   4.720 -0.0682  0.0765  0.0653
 5031TIP3    H136584   0.599   0.919   4.763 -0.0583  0.3223  0.5146
 5031TIP3    H236585   0.564   1.054   4.704 -0.1900 -0.3078 -0.9104
 5032TIP3   OH236586   3.233   4.972  14.981  0.2718  0.1594  0.2196
 5032TIP3    H136587   3.242   5.066  14.961  0.0941  0.2146  0.3931
 5032TIP3    H236588   3.198   4.970  15.070  2.7760 -0.0962  1.2616
 5033TIP3   OH236589   1.187   5.904  11.285  0.4760  0.4687  0.8480
 5033TIP3    H136590   1.215   5.897  11.194 -0.6107 -0.5808  0.5661
 5033TIP3    H236591   1.268   5.896  11.335  1.2410  2.2356 -0.0247
 5034TIP3   OH236592   2.228   2.394  13.008 -0.2139 -0.3648  0.3658
 5034TIP3    H136593   2.185   2.371  13.091  1.9533 -1.0026  1.3848
 5034TIP3    H236594   2.181   2.343  12.942 -1.7419 -0.1355  1.2294
 5035TIP3   OH236595   1.964   5.872   3.055 -0.6600  0.2930 -0.1434
 5035TIP3    H136596   1.922   5.933   2.994 -1.4069  0.2928  0.3636
 5035TIP3    H236597   2.049   5.853   3.015 -0.9181  0.7174 -0.9091
 5036TIP3   OH236598   4.811   3.623  15.059 -0.2566  0.1992 -0.1892
 5036TIP3    H136599   4.731   3.673  15.074 -0.7364 -0.7426  0.5137
 5036TIP3    H236600   4.782   3.532  15.053  0.9733 -0.5315  2.7853
 5037TIP3   OH236601   5.401   1.081  14.146 -0.1646  0.1465 -0.6953
 5037TIP3    H136602   5.490   1.116  14.143  0.0793 -0.5214 -2.2756
 5037TIP3    H236603   5.391   1.033  14.064 -1.8641 -0.1099 -0.3835
 5038TIP3   OH236604   3.375   6.118  14.946  0.0590 -0.6024 -0.3159
 5038TIP3    H136605   3.333   6.138  14.863 -0.4559 -0.2311  0.0264
 5038TIP3    H236606   3.469   6.127  14.929 -0.1163  1.6729 -0.3138
 5039TIP3   OH236607   6.461   2.986  12.423  0.5311  0.3693 -0.4891
 5039TIP3    H136608   6.460   2.962  12.515  0.1840 -1.3390 -0.9139
 5039TIP3    H236609   6.381   3.037  12.410  0.1695 -0.0677 -0.0060
 5040TIP3   OH236610   3.943   2.125   3.987 -0.4019 -0.3222  0.3302
 5040TIP3    H136611   3.943   2.030   3.987 -1.4790 -0.3344 -0.2518
 5040TIP3    H236612   3.962   2.149   4.078  3.0164 -1.0236 -0.0850
 5041TIP3   OH236613   5.483   4.096   5.500 -0.2703 -0.1496  0.2800
 5041TIP3    H136614   5.486   4.146   5.418  0.4887 -0.2488  0.2349
 5041TIP3    H236615   5.502   4.006   5.473 -0.3782 -0.2442  0.5170
 5042TIP3   OH236616   1.363   1.941   0.501  0.2391  0.1434  0.2860
 5042TIP3    H136617   1.435   1.882   0.477  0.1976  0.2714 -0.1619
 5042TIP3    H236618   1.387   1.973   0.588  1.5791  1.4803 -0.5242
 5043TIP3   OH236619   5.539   5.450  12.282 -0.2584 -0.2767 -0.2840
 5043TIP3    H136620   5.514   5.404  12.362  1.6531  1.7083  1.5903
 5043TIP3    H236621   5.504   5.396  12.211 -2.7179 -1.7192  1.8652
 5044TIP3   OH236622   1.165   5.731   6.150  0.4393 -0.5034 -0.5302
 5044TIP3    H136623   1.255   5.756   6.173  0.3157  0.1889 -0.7732
 5044TIP3    H236624   1.170   5.709   6.057  0.4599 -0.9777 -0.4184
 5045TIP3   OH236625   2.587   6.026   1.522  0.1425  0.1634  0.3666
 5045TIP3    H136626   2.594   5.934   1.497  0.0642 -0.0045  0.9488
 5045TIP3    H236627   2.678   6.054   1.536  0.1939  0.2872 -0.1969
 5046TIP3   OH236628   1.097   1.795  14.736  0.0592 -0.6931 -0.2132
 5046TIP3    H136629   1.133   1.815  14.822 -0.8913 -0.0878  0.0576
 5046TIP3    H236630   1.090   1.699  14.735  1.6099 -0.8342 -0.2693
 5047TIP3   OH236631   6.622   0.477   2.716 -0.2146  0.0100  0.6232
 5047TIP3    H136632   6.692   0.432   2.763 -0.0962 -0.1137  0.3294
 5047TIP3    H236633   6.641   0.570   2.728 -0.7435  0.0004  1.6609
 5048TIP3   OH236634   3.014   6.478   1.201  0.3352  0.0691  0.0974
 5048TIP3    H136635   2.965   6.475   1.119  0.8454  1.2226 -0.2771
 5048TIP3    H236636   3.043   6.388   1.216  2.3395  0.2015 -2.3180
 5049TIP3   OH236637   5.743   5.687   1.761 -0.3236  0.1253 -0.0385
 5049TIP3    H136638   5.690   5.707   1.684  0.0816  2.4536  0.2207
 5049TIP3    H236639   5.809   5.625   1.729 -2.1522 -1.5649 -0.7240
 5050TIP3   OH236640   5.690   2.115  11.811 -0.0818  0.0474  0.0569
 5050TIP3    H136641   5.719   2.098  11.901 -0.0845  0.5230  0.1516
 5050TIP3    H236642   5.607   2.069  11.803  0.6793 -1.3093 -0.2067
 5051TIP3   OH236643   1.732   2.717  11.363  0.4133  0.0053 -0.1983
 5051TIP3    H136644   1.760   2.808  11.348  2.3251 -0.4323  0.4059
 5051TIP3    H236645   1.735   2.707  11.459 -1.6130 -0.1833 -0.1215
 5052TIP3   OH236646   3.334   3.145   2.187  0.0227  0.0394 -0.0044
 5052TIP3    H136647   3.350   3.087   2.261  0.6893  0.4047  0.1429
 5052TIP3    H236648   3.265   3.205   2.218  0.5879  0.4519  0.4708
 5053TIP3   OH236649   4.752   0.187   1.417 -0.2736 -0.2133  0.7135
 5053TIP3    H136650   4.774   0.142   1.335 -0.7873  1.6979 -0.5193
 5053TIP3    H236651   4.690   0.128   1.460  1.2594 -2.0309  0.5812
 5054TIP3   OH236652   6.357   2.918  14.782 -0.2326  0.7425  0.2965
 5054TIP3    H136653   6.444   2.886  14.809 -0.4325  1.9800  2.6645
 5054TIP3    H236654   6.297   2.852  14.815 -0.3852  1.6324  1.9190
 5055TIP3   OH236655   4.335   0.860   2.484 -0.8994 -0.6868  0.0945
 5055TIP3    H136656   4.301   0.774   2.509  1.6844 -1.9271 -0.3109
 5055TIP3    H236657   4.395   0.884   2.554  0.1041 -0.2940 -0.8681
 5056TIP3   OH236658   3.495   4.325   3.193  0.3826 -0.3245  0.3937
 5056TIP3    H136659   3.486   4.339   3.287 -0.5930 -1.4113  0.4952
 5056TIP3    H236660   3.569   4.265   3.184 -0.4501 -1.4207  0.6170
 5057TIP3   OH236661   1.363   1.334  12.209 -0.3531  0.3132  0.6261
 5057TIP3    H136662   1.397   1.423  12.216  2.2092 -0.5879  0.6291
 5057TIP3    H236663   1.378   1.310  12.117  0.0536 -0.4938  0.8944
 5058TIP3   OH236664   3.108   1.449  11.660  0.5904 -0.2523 -0.1386
 5058TIP3    H136665   3.046   1.378  11.643  1.1102 -0.6417 -0.4473
 5058TIP3    H236666   3.191   1.416  11.627  0.7412  0.7001 -0.7617
 5059TIP3   OH236667   0.855   6.506   3.923 -0.3097  0.2578 -0.1348
 5059TIP3    H136668   0.898   6.488   4.007  0.1335  0.1565 -0.3788
 5059TIP3    H236669   0.785   6.441   3.918  1.0189 -1.1896 -0.8124
 5060TIP3   OH236670   0.890   0.753   4.730  0.4736  0.1747  0.7827
 5060TIP3    H136671   0.860   0.836   4.766 -1.5434 -0.4308  0.6520
 5060TIP3    H236672   0.861   0.687   4.793  2.0992 -0.4449  0.9173
 5061TIP3   OH236673   5.256   6.667   4.983 -0.1261  0.1389  0.4953
 5061TIP3    H136674   5.180   6.618   4.950 -1.6071  1.2456  2.0600
 5061TIP3    H236675   5.242   6.672   5.078  2.6965 -0.8483  1.0647
 5062TIP3   OH236676   5.360   0.817   3.248 -0.0026 -0.0765  0.1684
 5062TIP3    H136677   5.310   0.883   3.199  0.7490  0.7580  0.4843
 5062TIP3    H236678   5.350   0.843   3.340  1.3010  0.3427  0.2163
 5063TIP3   OH236679   5.528   3.560   1.131 -0.1980  0.1311  0.1883
 5063TIP3    H136680   5.516   3.495   1.201 -0.8327  0.6084  0.5243
 5063TIP3    H236681   5.594   3.620   1.165 -1.3175  1.0113  0.8554
 5064TIP3   OH236682   4.577   3.271  15.347  0.5091  0.4983  0.6905
 5064TIP3    H136683   4.570   3.193  15.403  1.6474 -0.4824 -0.4772
 5064TIP3    H236684   4.619   3.239  15.268 -0.3334  2.0249 -0.4132
 5065TIP3   OH236685   3.363   3.830  14.752  0.0898  0.1882 -0.2498
 5065TIP3    H136686   3.451   3.805  14.781  0.5491 -0.8277 -2.3259
 5065TIP3    H236687   3.375   3.915  14.711 -0.5908  1.7092  2.4581
 5066TIP3   OH236688   0.650   1.777   1.590  0.3871 -0.7894  0.7326
 5066TIP3    H136689   0.582   1.727   1.546 -0.5347  1.8149 -1.0811
 5066TIP3    H236690   0.711   1.801   1.520 -0.1748  2.0232  1.0973
 5067TIP3   OH236691   1.437   3.886  12.549 -0.1178 -0.3492 -0.5329
 5067TIP3    H136692   1.528   3.882  12.578 -0.0915 -1.7186 -0.7398
 5067TIP3    H236693   1.442   3.919  12.459  0.3196 -1.8031 -1.0668
 5068TIP3   OH236694   4.121   1.465  15.761  0.3112 -0.4643  0.0117
 5068TIP3    H136695   4.208   1.439  15.792  0.5904  0.2030 -0.1923
 5068TIP3    H236696   4.093   1.392  15.706 -1.1956 -2.7969  3.5517
 5069TIP3   OH236697   2.591   0.777  12.040  0.1101 -0.4524 -0.5288
 5069TIP3    H136698   2.623   0.705  11.985 -0.2684 -0.0788 -1.2587
 5069TIP3    H236699   2.549   0.837  11.978 -2.6356 -1.2502  0.4165
 5070TIP3   OH236700   3.814   3.530  14.438 -0.1316  0.2889 -0.7176
 5070TIP3    H136701   3.797   3.619  14.471  1.2713 -0.4155  2.2144
 5070TIP3    H236702   3.883   3.542  14.372 -0.5497  1.4232 -0.9806
 5071TIP3   OH236703   3.534   2.284   0.069 -0.7095  0.1770 -0.7324
 5071TIP3    H136704   3.591   2.358   0.090 -0.6811  0.4754 -1.8179
 5071TIP3    H236705   3.551   2.266  -0.024  0.8171 -2.4912 -0.0534
 5072TIP3   OH236706   2.800   2.848  13.777  0.9432 -0.4522  0.3613
 5072TIP3    H136707   2.812   2.758  13.810  1.3801 -0.4482  0.2227
 5072TIP3    H236708   2.705   2.858  13.769  0.9180 -1.2149 -0.4778
 5073TIP3   OH236709   4.128   1.701   2.179 -0.2055  0.7593  0.1488
 5073TIP3    H136710   4.193   1.766   2.151  1.7758 -1.2202 -0.1190
 5073TIP3    H236711   4.144   1.626   2.123 -0.9604 -0.7638  1.8902
 5074TIP3   OH236712   3.645   3.461   4.808 -0.2260 -0.1590 -0.2057
 5074TIP3    H136713   3.562   3.432   4.771 -0.2957  0.3532 -0.4540
 5074TIP3    H236714   3.682   3.519   4.742  2.0118 -3.0603 -1.7284
 5075TIP3   OH236715   4.170   4.138   5.713  0.1785  0.3282  0.6391
 5075TIP3    H136716   4.159   4.080   5.789  2.0579  1.0939  1.5530
 5075TIP3    H236717   4.080   4.161   5.688 -0.5459 -1.5614  1.3261
 5076TIP3   OH236718   6.403   0.849  15.185  0.6215  0.3964 -0.1764
 5076TIP3    H136719   6.454   0.928  15.164  0.9598 -0.0669 -1.1827
 5076TIP3    H236720   6.313   0.873  15.165  0.7660  0.4240 -0.8188
 5077TIP3   OH236721   1.938   1.164   1.417 -0.5878  0.8800 -0.0291
 5077TIP3    H136722   1.939   1.113   1.336 -1.3047  0.4073  0.2484
 5077TIP3    H236723   1.850   1.202   1.420 -1.3457 -0.8536  1.5832
 5078TIP3   OH236724   5.945   5.461  16.779 -0.0226 -0.4945  0.0694
 5078TIP3    H136725   5.911   5.372  16.784  1.2007 -1.1500 -1.9306
 5078TIP3    H236726   6.034   5.455  16.813  0.8282 -0.5552 -2.0342
 5079TIP3   OH236727   4.027   2.716   5.733  0.9097 -0.3867 -0.1961
 5079TIP3    H136728   4.086   2.643   5.750 -1.2761 -1.9347  1.3364
 5079TIP3    H236729   3.967   2.717   5.809  0.7253  2.9152 -0.2142
 5080TIP3   OH236730   2.956   0.240  11.975  0.4113 -0.1747 -0.0080
 5080TIP3    H136731   2.913   0.203  11.898  0.2959 -0.4643  0.1969
 5080TIP3    H236732   3.033   0.185  11.989  0.1728 -0.4120  0.3694
 5081TIP3   OH236733   1.921   0.228  11.608  0.2786 -0.0140 -0.3039
 5081TIP3    H136734   1.869   0.195  11.535  1.9683 -0.2161 -1.4714
 5081TIP3    H236735   2.011   0.202  11.588  0.8695  0.3635  1.6158
 5082TIP3   OH236736   5.520   0.666   2.847 -0.9027 -0.4197 -0.2507
 5082TIP3    H136737   5.515   0.699   2.757 -1.8201 -1.1801 -0.4910
 5082TIP3    H236738   5.452   0.715   2.894 -0.6564 -0.2704 -0.0463
 5083TIP3   OH236739   2.618   6.299   3.097  0.2148 -0.1838  0.5455
 5083TIP3    H136740   2.622   6.380   3.148 -1.3845  0.2754 -0.0070
 5083TIP3    H236741   2.611   6.328   3.006  2.3911 -0.9932  0.0490
 5084TIP3   OH236742   3.525   5.024  16.884  0.6499  0.1962 -0.1382
 5084TIP3    H136743   3.485   4.955  16.937  0.0940  0.7484  0.1758
 5084TIP3    H236744   3.508   5.104  16.933  0.5714  0.6558 -0.9037
 5085TIP3   OH236745   2.658   3.531   5.113 -0.1122  1.5570  0.8345
 5085TIP3    H136746   2.693   3.612   5.075  0.0059  0.6370 -1.1158
 5085TIP3    H236747   2.586   3.507   5.056  0.0770  0.0824  1.1889
 5086TIP3   OH236748   4.440   4.138   4.457  0.2791  0.7683 -0.0161
 5086TIP3    H136749   4.396   4.080   4.394  1.3629 -0.4716  0.2992
 5086TIP3    H236750   4.410   4.107   4.542  0.4128  1.0530  0.1325
 5087TIP3   OH236751   2.232   3.123  11.848 -0.1607  0.3353 -0.0853
 5087TIP3    H136752   2.328   3.120  11.846  0.0762  2.3198  2.6496
 5087TIP3    H236753   2.206   3.034  11.872  1.0961  0.1447  0.6557
 5088TIP3   OH236754   0.528   6.142   2.277 -0.3012 -0.2686  0.0746
 5088TIP3    H136755   0.598   6.125   2.214 -0.3941 -0.4355  0.0162
 5088TIP3    H236756   0.487   6.222   2.245 -0.9627 -0.8760 -0.6285
 5089TIP3   OH236757   0.058   4.268   3.026  0.0508  0.2446 -0.6774
 5089TIP3    H136758   0.077   4.220   3.107 -0.0762 -0.1684 -0.8910
 5089TIP3    H236759   0.019   4.203   2.968 -1.9400  1.0290 -0.2855
 5090TIP3   OH236760   3.735   1.166  10.253  0.5209  0.7489 -0.0026
 5090TIP3    H136761   3.741   1.258  10.226  1.4516  1.1931  1.5961
 5090TIP3    H236762   3.747   1.168  10.348  1.8994 -1.1407 -0.0783
 5091TIP3   OH236763   5.146   1.280  16.997 -0.1452  0.2764 -0.3490
 5091TIP3    H136764   5.142   1.190  16.965  1.2261  1.2058 -3.5548
 5091TIP3    H236765   5.226   1.283  17.049 -0.6823 -0.5106  0.5751
 5092TIP3   OH236766   6.274   5.333   4.571  0.3534  0.3895 -0.0353
 5092TIP3    H136767   6.314   5.256   4.612 -1.8080 -1.9132 -1.9401
 5092TIP3    H236768   6.182   5.326   4.593 -0.0527  1.8590 -1.1532
 5093TIP3   OH236769   0.686   1.468   5.938 -0.2721  0.6589  0.4268
 5093TIP3    H136770   0.627   1.475   6.013 -1.8675  1.6327 -0.8540
 5093TIP3    H236771   0.634   1.426   5.870  1.2524 -0.5103 -0.0590
 5094TIP3   OH236772   2.794   4.397   0.129  0.8613 -0.1143 -0.0874
 5094TIP3    H136773   2.748   4.441   0.057  3.3431 -0.4046 -1.9792
 5094TIP3    H236774   2.725   4.346   0.173 -1.1072  1.6156 -0.9770
 5095TIP3   OH236775   4.768   2.335  15.770 -0.1397 -0.4238  0.2050
 5095TIP3    H136776   4.779   2.241  15.779 -1.7902 -0.6115  0.4894
 5095TIP3    H236777   4.834   2.372  15.828 -0.5020 -1.4424  1.3110
 5096TIP3   OH236778   1.259   4.528   2.719  0.7846  0.8822  0.0468
 5096TIP3    H136779   1.212   4.490   2.794  0.5153 -0.8147 -0.9312
 5096TIP3    H236780   1.208   4.501   2.643  3.2893 -1.1325 -1.0865
 5097TIP3   OH236781   5.979   1.643   4.143 -0.2009  0.3001  0.2963
 5097TIP3    H136782   5.993   1.652   4.238  2.1413 -0.9709  0.1418
 5097TIP3    H236783   5.932   1.560   4.134  1.7390 -0.8499  0.2682
 5098TIP3   OH236784   6.359   2.279  12.431 -0.2243 -0.1152  0.3120
 5098TIP3    H136785   6.294   2.227  12.479 -0.1278 -0.1111  0.4477
 5098TIP3    H236786   6.443   2.255  12.471 -0.3702  1.9299  2.0273
 5099TIP3   OH236787   0.694   4.922  14.689 -0.1238 -0.4483 -0.2063
 5099TIP3    H136788   0.759   4.864  14.728  0.9118 -1.1212 -2.7296
 5099TIP3    H236789   0.716   5.009  14.723  1.5400 -0.8039 -0.2773
 5100TIP3   OH236790   1.669   1.572   4.247  0.4936  0.0978 -0.1994
 5100TIP3    H136791   1.595   1.539   4.299  0.2708  2.0802  0.8610
 5100TIP3    H236792   1.702   1.495   4.200 -1.0040 -1.2329  0.8139
 5101TIP3   OH236793   0.929   2.335  16.901  0.3599 -0.2204 -0.0580
 5101TIP3    H136794   0.962   2.298  16.819  2.0956 -0.0466  0.5045
 5101TIP3    H236795   0.981   2.414  16.914 -1.0749  0.6845  0.3855
 5102TIP3   OH236796   4.144   6.220  17.171 -0.1257  0.4150 -0.0783
 5102TIP3    H136797   4.198   6.200  17.247  0.5485  0.8955 -0.4170
 5102TIP3    H236798   4.055   6.200  17.199 -0.3339  3.4596  1.9640
 5103TIP3   OH236799   4.375   0.385   4.356  0.8986  0.6101  0.3334
 5103TIP3    H136800   4.353   0.382   4.449 -2.0206 -1.6103 -0.2864
 5103TIP3    H236801   4.438   0.314   4.345  1.0513  0.7081  0.5523
 5104TIP3   OH236802   3.122   2.565  11.018 -0.3829 -0.4220  0.5915
 5104TIP3    H136803   3.094   2.482  11.056 -1.3405 -0.0627  0.6877
 5104TIP3    H236804   3.126   2.547  10.923  1.2108 -1.0815  0.7431
 5105TIP3   OH236805   2.197   4.381  12.049 -0.2474  0.0302  0.0968
 5105TIP3    H136806   2.284   4.343  12.043  0.3021  0.5377  3.2284
 5105TIP3    H236807   2.188   4.435  11.970  1.0676 -2.2236 -1.7047
 5106TIP3   OH236808   0.399   4.200   4.155 -0.2285  0.0714 -0.1032
 5106TIP3    H136809   0.428   4.292   4.148  1.0377 -0.1411  1.5687
 5106TIP3    H236810   0.445   4.156   4.084  1.8417  0.1923  1.0584
 5107TIP3   OH236811   5.041   5.906   1.365 -0.1117 -0.5889 -0.8074
 5107TIP3    H136812   5.052   5.815   1.338 -0.7184 -0.6929 -0.7226
 5107TIP3    H236813   5.126   5.931   1.402 -0.9575 -2.3254  2.7549
 5108TIP3   OH236814   6.365   0.654   1.310  0.1282 -0.6307  0.8895
 5108TIP3    H136815   6.313   0.590   1.358  1.7029 -1.4214  1.6342
 5108TIP3    H236816   6.456   0.630   1.329  0.7799  1.5801  0.8465
 5109TIP3   OH236817   0.911   2.431   4.671 -0.0161  0.1895  0.1617
 5109TIP3    H136818   0.846   2.481   4.721 -1.3239 -1.3664  0.1426
 5109TIP3    H236819   0.919   2.476   4.588 -0.9400  0.5331  0.2524
 5110TIP3   OH236820   0.644   5.165  12.063  0.6253  0.4064 -0.4851
 5110TIP3    H136821   0.571   5.227  12.068  0.5196  0.7175 -3.5673
 5110TIP3    H236822   0.610   5.084  12.101 -1.6046  0.3918 -2.2493
 5111TIP3   OH236823   3.472   5.763   0.148 -0.4670  0.8190  0.5459
 5111TIP3    H136824   3.550   5.723   0.185  0.2955  1.4225 -0.3437
 5111TIP3    H236825   3.407   5.761   0.218  0.3578  0.3260  1.3051
 5112TIP3   OH236826   0.891   6.052  10.921 -0.2716  0.2107 -0.6180
 5112TIP3    H136827   0.848   6.050  10.835 -0.4606 -0.9007 -0.5220
 5112TIP3    H236828   0.982   6.027  10.902 -0.5419 -1.0297 -0.4036
 5113TIP3   OH236829   2.933   5.092   5.785  0.6468 -0.4899  0.3320
 5113TIP3    H136830   2.866   5.068   5.721  1.5116 -2.4960  0.1109
 5113TIP3    H236831   2.889   5.080   5.870 -0.4706  2.0854  0.1946
 5114TIP3   OH236832   4.812   0.852  15.031  0.3553  0.1921 -0.1176
 5114TIP3    H136833   4.752   0.799  14.979  1.9071 -2.3946  0.5584
 5114TIP3    H236834   4.805   0.818  15.120  1.2593  1.2963  0.4145
 5115TIP3   OH236835   0.320   0.892   3.126  0.2952  0.2274  0.0939
 5115TIP3    H136836   0.259   0.946   3.077 -2.5525 -0.7357  2.2866
 5115TIP3    H236837   0.273   0.809   3.140  2.0992 -0.5910  1.8991
 5116TIP3   OH236838   5.731   5.678  11.000  0.0207  0.8619  0.0597
 5116TIP3    H136839   5.827   5.686  11.002  0.0027  1.1362 -0.0623
 5116TIP3    H236840   5.708   5.687  10.908 -0.0379 -0.3349 -0.0502
 5117TIP3   OH236841   1.442   0.422   0.995  1.0189 -0.3325  0.2063
 5117TIP3    H136842   1.393   0.341   1.007 -0.1633  0.3614  0.1950
 5117TIP3    H236843   1.453   0.456   1.084 -1.3613  1.1193  0.0198
 5118TIP3   OH236844   6.712   3.600  14.608  0.2442  0.1582 -0.2279
 5118TIP3    H136845   6.623   3.591  14.643  0.5555 -2.5811  0.0456
 5118TIP3    H236846   6.719   3.530  14.543  1.6709  1.4341 -1.5409
 5119TIP3   OH236847   5.499   3.891  17.161 -0.0028 -0.0086 -0.1040
 5119TIP3    H136848   5.576   3.886  17.218 -0.5793  0.5643  0.7524
 5119TIP3    H236849   5.432   3.839  17.207 -1.1017  2.0804  0.8092
 5120TIP3   OH236850   2.534   0.301   5.959  0.3443  0.8101 -0.3677
 5120TIP3    H136851   2.595   0.290   5.886 -0.0435  1.9086 -0.8837
 5120TIP3    H236852   2.453   0.258   5.930  0.5071  0.3596 -0.1597
 5121TIP3   OH236853   4.111   2.484   4.098  0.1236  0.1841 -0.4701
 5121TIP3    H136854   4.043   2.424   4.128 -1.0599 -0.4294 -3.8713
 5121TIP3    H236855   4.063   2.564   4.074  0.9408  0.6290 -0.6438
 5122TIP3   OH236856   2.538   2.627   2.390 -0.1403  0.5657 -0.1225
 5122TIP3    H136857   2.511   2.685   2.319 -1.3260 -0.1319 -0.2739
 5122TIP3    H236858   2.586   2.557   2.347 -0.5007  0.3617 -0.2011
 5123TIP3   OH236859   0.387   3.127   4.450  0.3128  0.7656  0.4145
 5123TIP3    H136860   0.326   3.061   4.484  0.9296  0.3942  0.8166
 5123TIP3    H236861   0.347   3.156   4.368 -0.1890  0.2048  0.4498
 5124TIP3   OH236862   5.707   4.362  12.504  0.0625 -0.5771 -0.1002
 5124TIP3    H136863   5.649   4.435  12.527  0.2608 -0.6611  0.7102
 5124TIP3    H236864   5.670   4.287  12.552  1.5255 -0.3717  1.4308
 5125TIP3   OH236865   2.640   1.795   1.214  0.5322  0.5127  0.9566
 5125TIP3    H136866   2.687   1.863   1.261 -1.0346  2.1999  0.2256
 5125TIP3    H236867   2.590   1.749   1.281 -0.0125  1.4847  1.2333
 5126TIP3   OH236868   3.182   6.673  15.583 -0.2445  0.2258  0.3657
 5126TIP3    H136869   3.175   6.708  15.672 -0.1281 -0.3746  0.6121
 5126TIP3    H236870   3.203   6.581  15.594  0.2901  0.2579 -0.2969
 5127TIP3   OH236871   5.782   1.600  15.879 -0.1304  0.6279  0.3952
 5127TIP3    H136872   5.851   1.630  15.820 -1.5208  0.6609 -1.2972
 5127TIP3    H236873   5.790   1.505  15.879 -0.8552  0.5526 -0.8234
 5128TIP3   OH236874   4.134   1.770  11.059  0.2368  0.4032  0.2530
 5128TIP3    H136875   4.126   1.675  11.050  2.0337  0.2840 -0.3779
 5128TIP3    H236876   4.068   1.806  11.000 -0.6073 -0.4375  0.6629
 5129TIP3   OH236877   1.243   2.416   0.447 -0.5308  0.1098  0.2706
 5129TIP3    H136878   1.310   2.347   0.442 -0.3935  0.1604  1.2434
 5129TIP3    H236879   1.202   2.415   0.361 -2.1957 -2.8608  0.9595
 5130TIP3   OH236880   5.250   3.833   4.216  0.4591 -0.4999  0.3538
 5130TIP3    H136881   5.233   3.927   4.219  1.2883 -0.2866 -1.0029
 5130TIP3    H236882   5.183   3.798   4.156  0.3101 -0.7539  0.6587
 5131TIP3   OH236883   0.833   1.187  13.663 -0.0628  0.3150 -0.1929
 5131TIP3    H136884   0.813   1.100  13.697 -1.9978  0.5550 -0.6247
 5131TIP3    H236885   0.922   1.204  13.694  0.8343 -2.2796 -1.1042
 5132TIP3   OH236886   1.236   1.673  15.390  0.7833  0.8195 -0.3484
 5132TIP3    H136887   1.169   1.742  15.396 -0.3139 -0.1786 -0.7394
 5132TIP3    H236888   1.193   1.602  15.342  1.4124 -0.6993  1.2502
 5133TIP3   OH236889   2.609   5.045  10.814 -0.0495  0.3711  0.5446
 5133TIP3    H136890   2.677   4.997  10.768  0.3499  1.0760  0.3973
 5133TIP3    H236891   2.538   4.981  10.823  0.5411 -0.3077  0.5228
 5134TIP3   OH236892   0.759   2.387   2.445  0.1878 -0.0366 -0.2020
 5134TIP3    H136893   0.710   2.363   2.366  0.6064 -0.2274 -0.4081
 5134TIP3    H236894   0.820   2.455   2.416 -0.4798  0.7641  0.2215
 5135TIP3   OH236895   3.340   3.877   3.804 -0.1226 -0.0351  0.2410
 5135TIP3    H136896   3.406   3.815   3.835  0.5396 -0.6603 -2.1944
 5135TIP3    H236897   3.372   3.962   3.835  0.7535 -0.5515  0.8093
 5136TIP3   OH236898   6.726   1.110  12.657 -0.0073  0.4873  0.1194
 5136TIP3    H136899   6.730   1.051  12.582 -1.7197 -0.6605  0.8708
 5136TIP3    H236900   6.817   1.134  12.674  0.3447  2.0459 -3.2400
 5137TIP3   OH236901   4.558   3.292   1.246  0.2609 -0.2767  0.1397
 5137TIP3    H136902   4.615   3.364   1.222 -0.5374  0.5768  0.7252
 5137TIP3    H236903   4.532   3.252   1.162 -0.2109  0.8562 -0.2723
 5138TIP3   OH236904   4.801   1.668   2.937 -0.4030 -0.0898 -0.1613
 5138TIP3    H136905   4.764   1.580   2.925 -0.9849  0.2610 -1.0320
 5138TIP3    H236906   4.855   1.682   2.859 -0.0605  0.1987  0.1278
 5139TIP3   OH236907   0.142   5.823  13.909  0.2110 -0.3112  0.3210
 5139TIP3    H136908   0.235   5.801  13.902  0.0952 -0.5088 -0.7571
 5139TIP3    H236909   0.114   5.782  13.991  1.4846  1.3154  1.6521
 5140TIP3   OH236910   3.445   5.993   1.563  0.4533  0.0676 -0.4592
 5140TIP3    H136911   3.359   6.029   1.586  0.7239  0.7879 -0.5301
 5140TIP3    H236912   3.485   6.062   1.510  1.1474 -0.1862 -0.2699
 5141TIP3   OH236913   4.723   4.168  17.050 -0.2711  0.0901 -0.2184
 5141TIP3    H136914   4.684   4.248  17.085  0.6792 -0.1654  1.5520
 5141TIP3    H236915   4.669   4.097  17.087  1.4019 -0.2363  1.7753
 5142TIP3   OH236916   3.089   1.802  15.964 -0.2249 -0.3937  0.8890
 5142TIP3    H136917   3.068   1.882  16.011 -1.1244 -0.7929  1.1968
 5142TIP3    H236918   3.144   1.752  16.024 -0.7496 -0.5712  1.2344
 5143TIP3   OH236919   1.946   6.143   1.703 -0.3063 -0.0583 -0.0054
 5143TIP3    H136920   1.885   6.114   1.771 -1.4793  1.6845 -0.2262
 5143TIP3    H236921   1.993   6.217   1.744  0.7451 -0.5580 -0.2832
 5144TIP3   OH236922   5.055   0.450  16.491 -0.0181  0.4186  0.5174
 5144TIP3    H136923   4.993   0.406  16.433 -0.4936  0.9414  0.6154
 5144TIP3    H236924   5.011   0.532  16.515 -0.7891 -0.7091  3.3471
 5145TIP3   OH236925   1.864   5.018   3.868  0.9188  0.3976 -0.4157
 5145TIP3    H136926   1.953   5.051   3.857  2.4924 -2.0939  3.0033
 5145TIP3    H236927   1.873   4.923   3.866 -1.5526  0.0699  0.6284
 5146TIP3   OH236928   2.031   5.525   6.032 -0.0745  0.2293 -0.0728
 5146TIP3    H136929   1.937   5.512   6.017 -0.0748  0.0215  0.0988
 5146TIP3    H236930   2.035   5.566   6.119  0.0875 -1.7536  0.9347
 5147TIP3   OH236931   6.317   2.593  13.396 -0.1418 -0.1855 -0.0042
 5147TIP3    H136932   6.313   2.634  13.483  0.8714  0.1563 -0.1080
 5147TIP3    H236933   6.246   2.529  13.397 -1.3054  1.0544  0.4260
 5148TIP3   OH236934   4.462   4.198  10.981  0.3421  0.4060  0.4991
 5148TIP3    H136935   4.478   4.113  11.022 -0.3468  0.1727  0.2974
 5148TIP3    H236936   4.522   4.258  11.026  0.3691 -0.0535  1.0905
 5149TIP3   OH236937   2.401   2.510   2.600 -0.1634 -0.0173  0.2541
 5149TIP3    H136938   2.444   2.526   2.516 -0.5508  0.3225  0.1172
 5149TIP3    H236939   2.324   2.568   2.599 -0.7891 -0.8307  0.3656
 5150TIP3   OH236940   4.575   0.283  11.478  0.2350 -0.6687  0.0402
 5150TIP3    H136941   4.506   0.349  11.479  0.4847 -0.3622 -1.0887
 5150TIP3    H236942   4.532   0.202  11.503 -0.0311 -0.0562  1.6765
 5151TIP3   OH236943   2.725   2.329   2.109 -0.5825 -0.6292 -0.3506
 5151TIP3    H136944   2.633   2.315   2.084 -0.8536  0.2817  0.0921
 5151TIP3    H236945   2.723   2.329   2.205 -0.2090 -0.0498 -0.3421
 5152TIP3   OH236946   5.802   4.294  15.880  0.6821  0.1740 -0.1334
 5152TIP3    H136947   5.755   4.280  15.962  0.3238 -1.9792 -0.6498
 5152TIP3    H236948   5.826   4.387  15.882  2.0088 -0.0973  3.0851
 5153TIP3   OH236949   0.806   0.866   1.085 -0.1411 -0.0258 -0.3524
 5153TIP3    H136950   0.902   0.865   1.086 -0.0918  1.5958 -0.1409
 5153TIP3    H236951   0.781   0.815   1.162  0.4748 -2.0370 -1.4078
 5154TIP3   OH236952   1.451   0.503   2.457 -0.0357 -0.0742 -0.6352
 5154TIP3    H136953   1.452   0.482   2.550 -0.8359 -0.8164 -0.7854
 5154TIP3    H236954   1.480   0.594   2.452 -1.6140  0.5277  0.4875
 5155TIP3   OH236955   0.828   6.483   0.879  0.6610 -0.1387 -0.8477
 5155TIP3    H136956   0.754   6.543   0.887  0.6518 -0.4420  2.2689
 5155TIP3    H236957   0.795   6.411   0.825 -0.0991  1.3852 -2.5334
 5156TIP3   OH236958   2.729   0.268   6.192 -0.4415 -0.1237 -0.3438
 5156TIP3    H136959   2.798   0.216   6.150 -0.3005 -1.0574  0.9711
 5156TIP3    H236960   2.676   0.301   6.119  0.3972 -0.8066 -1.2913
 5157TIP3   OH236961   3.430   1.971   2.236 -0.5007  0.2230 -0.5197
 5157TIP3    H136962   3.393   1.969   2.148 -1.1223 -1.6472 -0.2684
 5157TIP3    H236963   3.417   2.061   2.266  1.0131  1.3038 -2.8155
 5158TIP3   OH236964   1.489   2.988   6.587 -0.0528 -0.7456 -0.0583
 5158TIP3    H136965   1.576   2.970   6.552 -1.2900 -1.4405 -3.0567
 5158TIP3    H236966   1.431   2.986   6.511 -2.5757  0.7605  1.6528
 5159TIP3   OH236967   0.596   2.632  16.213  0.1799 -0.3436 -0.0996
 5159TIP3    H136968   0.680   2.587  16.227  0.5896  0.2621 -0.5655
 5159TIP3    H236969   0.550   2.576  16.150  0.3866 -0.4827 -0.1291
 5160TIP3   OH236970   5.710   3.090   2.181 -0.3775 -0.5238 -0.0071
 5160TIP3    H136971   5.777   3.037   2.224 -1.3328 -2.0286 -0.3091
 5160TIP3    H236972   5.629   3.070   2.228 -0.6428  1.3859  0.4579
 5161TIP3   OH236973   1.723   4.342   1.852 -0.4191 -0.5135  0.5724
 5161TIP3    H136974   1.637   4.315   1.884 -0.7652  1.0472  1.0767
 5161TIP3    H236975   1.740   4.425   1.897  1.2495 -0.6631  0.2951
 5162TIP3   OH236976   3.682   3.057  12.319 -0.0093  0.0804 -0.3343
 5162TIP3    H136977   3.615   3.112  12.278 -0.9901  1.1307  2.4302
 5162TIP3    H236978   3.637   2.975  12.339  0.2676 -0.1657 -0.7090
 5163TIP3   OH236979   5.872   2.681   1.603  0.2731 -0.3946  0.1704
 5163TIP3    H136980   5.937   2.704   1.537  0.0533 -0.6627 -0.1422
 5163TIP3    H236981   5.830   2.764   1.625 -0.0468 -0.3890 -0.4504
 5164TIP3   OH236982   6.610   2.727   1.522  0.1446 -0.1815 -0.2497
 5164TIP3    H136983   6.592   2.821   1.519 -0.4470 -0.2738 -3.6756
 5164TIP3    H236984   6.547   2.692   1.585 -1.1743  1.4887 -0.5850
 5165TIP3   OH236985   3.240   4.114   1.972 -0.4860  0.0688 -0.4031
 5165TIP3    H136986   3.323   4.139   1.931  0.6437 -1.3188  0.8874
 5165TIP3    H236987   3.231   4.173   2.046  0.0334 -0.5932  0.2026
 5166TIP3   OH236988   2.599   3.317  11.756 -0.0548  0.0383 -0.2834
 5166TIP3    H136989   2.608   3.369  11.676 -1.1866 -1.1056 -1.1875
 5166TIP3    H236990   2.684   3.324  11.799  0.5088  0.8270 -1.4860
 5167TIP3   OH236991   3.302   5.274  17.055  0.3766 -0.5683 -0.3213
 5167TIP3    H136992   3.317   5.265  17.149  3.6149  1.7892 -0.4459
 5167TIP3    H236993   3.261   5.360  17.046  1.8530  0.0837 -1.1193
 5168TIP3   OH236994   4.226   1.692   1.156  0.3470 -0.3290  0.8651
 5168TIP3    H136995   4.260   1.774   1.120  1.5976 -1.8814 -1.7984
 5168TIP3    H236996   4.145   1.677   1.107 -0.1658 -0.4566  1.7294
 5169TIP3   OH236997   0.263   0.422   5.269  0.5466  0.6067 -0.1760
 5169TIP3    H136998   0.176   0.455   5.293 -0.0325 -0.7450 -0.3421
 5169TIP3    H236999   0.247   0.333   5.240  2.1805 -0.1966  1.2161
 5170TIP3   OH237000   3.854   6.434  15.551 -0.2645 -0.0178  0.4254
 5170TIP3    H137001   3.852   6.461  15.459  1.2931 -0.0753  0.3414
 5170TIP3    H237002   3.880   6.342  15.549 -1.5824 -0.4324  0.8920
 5171TIP3   OH237003   4.337   1.536  14.649 -0.1701 -0.0181 -0.3047
 5171TIP3    H137004   4.316   1.444  14.631  4.0689 -1.0701 -0.9164
 5171TIP3    H237005   4.347   1.539  14.744  0.2499 -0.3251 -0.3389
 5172TIP3   OH237006   4.871   1.170  12.946  0.0085  0.3949  0.1116
 5172TIP3    H137007   4.954   1.171  12.897 -0.9712 -0.0889 -1.6531
 5172TIP3    H237008   4.897   1.149  13.035  1.6563 -1.9289 -0.7958
 5173TIP3   OH237009   4.422   5.383  14.535 -0.5468  0.1409 -0.2415
 5173TIP3    H137010   4.391   5.474  14.537 -1.7154 -0.2524  1.1588
 5173TIP3    H237011   4.365   5.340  14.472 -0.0318  0.3495 -0.8607
 5174TIP3   OH237012   1.428   3.953   1.767 -0.1019  0.4320 -0.1285
 5174TIP3    H137013   1.416   3.887   1.699  0.4406 -0.2801  0.4651
 5174TIP3    H237014   1.506   3.926   1.814 -1.1295  0.2377  1.5545
 5175TIP3   OH237015   5.096   0.407   5.765  0.1615  0.0965  1.1624
 5175TIP3    H137016   5.126   0.494   5.789 -0.4531  0.5905  0.2338
 5175TIP3    H237017   5.110   0.402   5.670 -1.5507 -0.0725  0.8731
 5176TIP3   OH237018   4.257   5.729   0.038  0.1464 -0.4429  0.1642
 5176TIP3    H137019   4.214   5.674  -0.028 -0.8164 -0.0960  0.4949
 5176TIP3    H237020   4.331   5.676   0.068 -2.1234 -2.6820  2.2696
 5177TIP3   OH237021   3.157   4.974   5.134  0.1207 -0.0007 -0.3372
 5177TIP3    H137022   3.143   5.000   5.043  0.3174  1.4745  0.0167
 5177TIP3    H237023   3.248   4.944   5.136 -0.1740 -0.9488 -0.8088
 5178TIP3   OH237024   0.498   4.973  13.931 -0.3808  0.0568  0.1637
 5178TIP3    H137025   0.433   5.044  13.934 -0.8617 -0.2733 -1.2936
 5178TIP3    H237026   0.483   4.931  13.846  0.1925 -1.5177  0.8003
 5179TIP3   OH237027   3.583   3.796  16.337 -0.0056 -0.1819  0.3806
 5179TIP3    H137028   3.643   3.868  16.321 -0.5327  0.6540  1.9100
 5179TIP3    H237029   3.498   3.838  16.350 -0.7331 -1.2487 -0.6848
 5180TIP3   OH237030   5.628   6.249   0.086 -0.0658  0.3638 -0.0034
 5180TIP3    H137031   5.594   6.337   0.104  1.6449  0.9060  0.8238
 5180TIP3    H237032   5.661   6.219   0.171 -0.3804 -0.9920 -0.3326
 5181TIP3   OH237033   0.109   2.932  16.961  0.3303  0.4709  0.1629
 5181TIP3    H137034   0.137   3.008  16.910 -0.0579  0.9373  0.6366
 5181TIP3    H237035   0.163   2.860  16.928 -0.3735  0.6069 -1.3935
 5182TIP3   OH237036   0.991   5.006  11.902  0.8650 -0.0369  0.1551
 5182TIP3    H137037   1.080   4.971  11.902  1.5433  1.4893 -1.6832
 5182TIP3    H237038   0.942   4.946  11.847  1.2835  0.2253 -0.5163
 5183TIP3   OH237039   2.311   6.152   0.930 -0.6064  0.3160  0.0928
 5183TIP3    H137040   2.343   6.232   0.971 -3.1871  1.3044  0.3838
 5183TIP3    H237041   2.304   6.089   1.001 -0.6218  0.5321  0.2816
 5184TIP3   OH237042   5.750   0.343  10.572  0.0619  0.2196  0.1342
 5184TIP3    H137043   5.829   0.382  10.532  1.7946 -1.4737  1.7077
 5184TIP3    H237044   5.778   0.316  10.659 -2.1669 -0.8754  0.5849
 5185TIP3   OH237045   2.012   3.302   2.111  0.2065 -0.1932  0.2090
 5185TIP3    H137046   2.015   3.293   2.206 -0.2326  0.0666  0.2488
 5185TIP3    H237047   1.932   3.352   2.094  1.5101  1.9199 -0.1158
 5186TIP3   OH237048   1.109   2.565   5.909 -0.5503 -0.1159 -0.5823
 5186TIP3    H137049   1.013   2.562   5.916 -0.5142 -1.5402 -0.3198
 5186TIP3    H237050   1.126   2.613   5.828 -1.5155 -0.4873 -1.0195
 5187TIP3   OH237051   2.871   4.016   6.216 -0.2070 -0.4345 -0.2615
 5187TIP3    H137052   2.857   4.004   6.122 -1.2234  1.0731 -0.3384
 5187TIP3    H237053   2.858   3.928   6.253 -2.1231 -0.6474 -1.2979
 5188TIP3   OH237054   1.344   3.198  12.418 -0.1844  0.2227 -0.2640
 5188TIP3    H137055   1.261   3.173  12.379  0.4954  0.8164 -2.2313
 5188TIP3    H237056   1.400   3.122  12.407 -0.2337  0.0873  0.3754
 5189TIP3   OH237057   5.501   2.872   0.406 -0.3756 -0.0224  0.2899
 5189TIP3    H137058   5.438   2.924   0.456  0.1944 -1.2322  2.4103
 5189TIP3    H237059   5.577   2.930   0.396  0.4015 -0.4220  2.9499
 5190TIP3   OH237060   1.612   3.793   1.036 -0.3612 -0.0182 -0.5362
 5190TIP3    H137061   1.676   3.797   1.107  0.7096  1.4528 -1.5409
 5190TIP3    H237062   1.647   3.727   0.976  0.9795  1.7259 -1.7476
 5191TIP3   OH237063   5.922   5.055   5.580 -0.1385  0.3494  0.1789
 5191TIP3    H137064   5.868   5.127   5.610 -1.7271 -1.2436  1.3547
 5191TIP3    H237065   5.914   4.988   5.649  4.7489  0.5835  1.3926
 5192TIP3   OH237066   6.105   2.974  14.419  0.2575 -0.2114 -0.1325
 5192TIP3    H137067   6.023   3.021  14.408  0.3638  0.3026  1.0700
 5192TIP3    H237068   6.079   2.887  14.451  0.0780 -0.9171 -2.0714
 5193TIP3   OH237069   5.923   6.613  11.656 -0.8069  0.3365  0.8964
 5193TIP3    H137070   5.830   6.631  11.666 -0.8329  0.2071  0.8927
 5193TIP3    H237071   5.967   6.683  11.705 -0.8474  1.4764 -0.6505
 5194TIP3   OH237072   2.399   5.490   2.656 -0.4812  0.1709 -0.1525
 5194TIP3    H137073   2.375   5.487   2.563  1.2091 -0.3906 -0.6187
 5194TIP3    H237074   2.315   5.494   2.702 -1.3458  1.6691 -1.7148
 5195TIP3   OH237075   2.209   3.054  12.416 -0.2716 -0.2321 -0.0846
 5195TIP3    H137076   2.210   3.050  12.512 -1.2182  1.1982  0.0160
 5195TIP3    H237077   2.116   3.054  12.393 -0.0675  0.4534 -0.9479
 5196TIP3   OH237078   2.820   4.678   3.103  0.0388 -0.4027  0.1610
 5196TIP3    H137079   2.775   4.620   3.042 -0.1611 -0.5355  0.4347
 5196TIP3    H237080   2.859   4.746   3.047 -0.9340  0.0142 -0.0364
 5197TIP3   OH237081   6.726   3.106  14.211 -0.0765  0.0193  0.3461
 5197TIP3    H137082   6.800   3.066  14.257 -0.5979  0.1173  1.3012
 5197TIP3    H237083   6.766   3.163  14.145  0.7264  0.9301  1.5856
 5198TIP3   OH237084   4.486   0.736  10.904  0.1059  0.0285 -0.4594
 5198TIP3    H137085   4.452   0.649  10.882  0.2121 -0.1554  0.0791
 5198TIP3    H237086   4.577   0.735  10.873  0.1947 -0.1573 -0.1985
 5199TIP3   OH237087   2.768   3.169   2.586  0.2146  0.3251 -0.2253
 5199TIP3    H137088   2.756   3.226   2.510  0.7490  1.8023  0.7548
 5199TIP3    H237089   2.848   3.200   2.627 -0.5779  0.2051  1.5015
 5200TIP3   OH237090   1.327   0.475  13.399 -0.4803  0.2237  0.4363
 5200TIP3    H137091   1.383   0.502  13.326 -1.2525  0.5258 -0.0554
 5200TIP3    H237092   1.240   0.466  13.360 -0.8666  0.2152  1.2871
 5201TIP3   OH237093   1.725   6.338   0.980  0.2718  0.4534  0.3604
 5201TIP3    H137094   1.734   6.395   0.903  1.1404  1.4084  1.1252
 5201TIP3    H237095   1.638   6.358   1.015  1.0912  2.4724  1.4413
 5202TIP3   OH237096   5.104   4.196  11.996 -0.1790 -0.6424 -0.1919
 5202TIP3    H137097   5.047   4.137  11.947 -0.1545  0.4120 -1.5570
 5202TIP3    H237098   5.066   4.283  11.981 -0.6801 -0.3131  2.3967
 5203TIP3   OH237099   4.331   5.586   1.785 -0.2374 -0.1475 -0.3922
 5203TIP3    H137100   4.301   5.675   1.806  1.2818 -0.1142  2.0310
 5203TIP3    H237101   4.261   5.529   1.815 -0.6934  0.1616 -0.8489
 5204TIP3   OH237102   2.707   3.492  12.703 -0.8673  1.1676  0.6786
 5204TIP3    H137103   2.739   3.526  12.786 -0.5409 -0.4673  1.2549
 5204TIP3    H237104   2.776   3.514  12.640  0.4145 -0.3491  1.4756
 5205TIP3   OH237105   1.525   6.606   6.006 -0.2628  0.3012  0.6562
 5205TIP3    H137106   1.492   6.675   5.950 -0.6014 -1.8038 -1.9568
 5205TIP3    H237107   1.446   6.557   6.033  0.1318 -0.4675  0.4461
 5206TIP3   OH237108   4.494   4.315  12.474 -0.0508  0.3980 -0.5383
 5206TIP3    H137109   4.412   4.304  12.425  0.1135  1.2314 -1.0182
 5206TIP3    H237110   4.484   4.257  12.549 -1.3861  1.0002 -0.2136
 5207TIP3   OH237111   2.555   3.307   2.724  0.4791  0.3748 -0.1742
 5207TIP3    H137112   2.612   3.369   2.679  0.9425 -0.2428 -0.4631
 5207TIP3    H237113   2.591   3.221   2.700  0.1843  0.0149  0.6545
 5208TIP3   OH237114   2.319   2.823  11.539  0.1407  0.1490 -0.2723
 5208TIP3    H137115   2.363   2.802  11.622  0.3479 -1.5240 -0.7835
 5208TIP3    H237116   2.229   2.842  11.565  0.6652  1.6586  0.5522
 5209TIP3   OH237117   6.078   2.787  13.250 -0.2631 -0.0204  0.0007
 5209TIP3    H137118   6.165   2.826  13.263 -0.4947  0.8032 -0.8284
 5209TIP3    H237119   6.018   2.848  13.292 -0.3850 -1.1044  1.4807
 5210TIP3   OH237120   6.682   0.002   2.220 -0.4260  0.7760 -0.3281
 5210TIP3    H137121   6.704   0.066   2.287  1.5227  1.3377 -1.4235
 5210TIP3    H237122   6.747  -0.068   2.231 -2.0834 -0.7389  0.3984
 5211TIP3   OH237123   5.362   1.015  10.612  0.1351 -0.3774  0.6990
 5211TIP3    H137124   5.434   1.035  10.671  0.0584 -1.1153  1.0478
 5211TIP3    H237125   5.397   0.947  10.554 -0.4348 -1.1091  1.1964
 5212TIP3   OH237126   5.846   6.373  11.482  0.0210  0.4007  0.3444
 5212TIP3    H137127   5.890   6.289  11.475 -0.5806  0.1224 -0.2615
 5212TIP3    H237128   5.894   6.431  11.423  1.2160  0.8527  1.7012
 5213TIP3   OH237129   2.164   2.261  11.148  0.5416  0.0046  0.0889
 5213TIP3    H137130   2.216   2.182  11.167  1.4501  0.8133  1.1249
 5213TIP3    H237131   2.105   2.234  11.078  2.0575 -1.1113 -0.8492
 5214TIP3   OH237132   0.361   1.348  14.555 -0.1609 -0.7267 -0.3354
 5214TIP3    H137133   0.417   1.282  14.514 -1.6725 -0.8308 -2.3802
 5214TIP3    H237134   0.274   1.332  14.518 -1.0816  0.8747  0.9964
 5215TIP3   OH237135   5.018   2.827   0.213 -0.5074 -0.1469 -0.2807
 5215TIP3    H137136   5.106   2.804   0.243 -1.6116  0.3501  4.1799
 5215TIP3    H237137   5.007   2.918   0.240 -1.7374  0.4661 -2.6579
 5216TIP3   OH237138   1.275   3.117  15.878  0.0793  0.3969 -0.4797
 5216TIP3    H137139   1.346   3.178  15.896  0.1972 -0.0985  0.8326
 5216TIP3    H237140   1.250   3.135  15.787 -0.3508  2.8643  0.0728
 5217TIP3   OH237141   5.487   6.335  13.108 -0.2116 -0.3630 -0.3780
 5217TIP3    H137142   5.464   6.295  13.193 -0.4040  1.8830  0.7004
 5217TIP3    H237143   5.581   6.321  13.100 -0.0214  0.1706  0.6713
 5218TIP3   OH237144   4.136   6.079   4.527  0.3812 -0.0007 -0.1456
 5218TIP3    H137145   4.094   6.019   4.466  0.4833 -1.1692  0.9032
 5218TIP3    H237146   4.215   6.108   4.481 -0.8146  1.1629 -1.5832
 5219TIP3   OH237147   5.944   5.149   0.808  0.0044  0.5563  0.1744
 5219TIP3    H137148   5.922   5.197   0.887 -0.0282 -0.6714  0.9416
 5219TIP3    H237149   6.012   5.201   0.765  0.9766  0.5944  1.6913
 5220TIP3   OH237150   1.827   3.040   1.337  0.3933  0.1516  0.4341
 5220TIP3    H137151   1.903   2.981   1.338  1.1745  1.0767 -0.9023
 5220TIP3    H237152   1.828   3.078   1.249 -1.2896  0.6348  0.5924
 5221TIP3   OH237153   1.409   4.903  15.740  0.0230  0.0824  0.5953
 5221TIP3    H137154   1.426   4.863  15.655  2.2152 -0.8357  1.4008
 5221TIP3    H237155   1.344   4.846  15.781  1.3166 -1.3419  0.7545
 5222TIP3   OH237156   1.955   5.208  15.946  0.5845  0.0517 -0.1082
 5222TIP3    H137157   1.957   5.272  16.017  1.8552  0.1790 -0.2398
 5222TIP3    H237158   1.988   5.127  15.986  1.1600  0.0858 -0.5018
 5223TIP3   OH237159   4.534   4.091  15.133 -0.5140  0.7488 -0.2829
 5223TIP3    H137160   4.467   4.112  15.067 -1.2010 -0.9144 -0.1609
 5223TIP3    H237161   4.606   4.053  15.084 -0.3940  0.9028 -0.2276
 5224TIP3   OH237162   1.512   4.970  16.605  0.0721 -0.1285  0.3907
 5224TIP3    H137163   1.530   5.029  16.678 -1.0527 -0.0551  0.6292
 5224TIP3    H237164   1.473   5.026  16.538 -0.6430 -0.5186  0.4708
 5225TIP3   OH237165   2.750   5.143   6.538  0.0380  0.0456  0.0627
 5225TIP3    H137166   2.670   5.193   6.524  0.5246  0.8322  0.0372
 5225TIP3    H237167   2.720   5.055   6.562 -0.8242  0.4257  0.4003
 5226TIP3   OH237168   1.327   2.046  16.667  0.2890  0.0182 -0.2013
 5226TIP3    H137169   1.401   2.091  16.706 -0.2978  0.7577  0.0798
 5226TIP3    H237170   1.352   1.954  16.667  1.8205  0.4020 -1.4709
 5227TIP3   OH237171   2.245   6.396   2.923 -0.2615  0.6464 -0.1807
 5227TIP3    H137172   2.286   6.450   2.856 -0.1330  1.1181  0.2778
 5227TIP3    H237173   2.179   6.453   2.963 -0.5811  0.2559 -0.1436
 5228TIP3   OH237174   3.308   5.781  10.866 -0.7823  0.5551  0.2532
 5228TIP3    H137175   3.306   5.766  10.961  0.3300  1.0410  0.3719
 5228TIP3    H237176   3.216   5.793  10.842 -1.0291  1.1183  1.3933
 5229TIP3   OH237177   0.044   1.618   0.183 -0.4286  0.4494  0.3517
 5229TIP3    H137178   0.083   1.579   0.261  0.6975  2.7030  0.9939
 5229TIP3    H237179  -0.048   1.591   0.186  0.2961 -2.2038  0.6300
 5230TIP3   OH237180   3.899   5.882   1.076  0.3489 -0.1066  0.0111
 5230TIP3    H137181   3.907   5.973   1.106 -0.1224 -0.1056  0.1502
 5230TIP3    H237182   3.835   5.843   1.136 -0.5561 -0.1290 -0.9339
 5231TIP3   OH237183   3.795   1.292   5.704  0.0803 -0.2748 -0.1581
 5231TIP3    H137184   3.815   1.328   5.617 -2.4234  0.5185 -0.4863
 5231TIP3    H237185   3.733   1.353   5.741 -0.6974 -1.8467  1.2424
 5232TIP3   OH237186   6.078   6.510   5.701  0.0612 -0.0680  0.1064
 5232TIP3    H137187   6.163   6.501   5.659  0.3729  0.1727  0.6669
 5232TIP3    H237188   6.096   6.494   5.794 -0.5038 -0.0202  0.2275
 5233TIP3   OH237189   5.518   2.500  15.522  0.4186  0.1846 -0.1051
 5233TIP3    H137190   5.574   2.537  15.590  2.1544 -1.1229 -0.7587
 5233TIP3    H237191   5.531   2.557  15.447  1.2126 -0.3449 -0.3785
 5234TIP3   OH237192   0.219   6.031   5.143 -0.2459 -0.2004 -0.0618
 5234TIP3    H137193   0.132   6.054   5.177  0.6820  1.6567  1.2477
 5234TIP3    H237194   0.206   5.947   5.099 -2.4953 -0.4510  0.9343
 5235TIP3   OH237195   6.192   5.601   1.122 -0.6331  0.2311  0.1175
 5235TIP3    H137196   6.191   5.681   1.070  1.3663  0.6447  0.6231
 5235TIP3    H237197   6.244   5.540   1.070  0.5294  0.3151  1.1399
 5236TIP3   OH237198   2.283   5.277  16.053 -0.4049  0.0649  0.1828
 5236TIP3    H137199   2.271   5.182  16.051  2.9036 -0.4658 -0.7308
 5236TIP3    H237200   2.292   5.299  16.145  1.6064 -1.0539  0.3195
 5237TIP3   OH237201   3.198   6.374  16.901 -0.2232 -0.0147 -0.3264
 5237TIP3    H137202   3.197   6.286  16.862 -1.9283 -0.3524  0.3944
 5237TIP3    H237203   3.108   6.389  16.929 -0.3716  2.6138 -1.8308
 5238TIP3   OH237204   4.171   0.040  14.999 -0.0927  0.1794  0.3726
 5238TIP3    H137205   4.264   0.060  14.994  0.0001 -0.0382  1.2072
 5238TIP3    H237206   4.145   0.064  15.088 -0.9224  0.5967  0.0340
 5239TIP3   OH237207   4.458   4.860   0.650 -0.4536 -0.1207  0.0377
 5239TIP3    H137208   4.486   4.798   0.583 -0.6319 -1.6534  1.3208
 5239TIP3    H237209   4.420   4.933   0.601  1.3379 -0.1956 -1.5802
 5240TIP3   OH237210   0.452   4.649  12.243  0.4086  0.5430  0.1197
 5240TIP3    H137211   0.417   4.616  12.326 -0.3851 -0.0970 -0.4457
 5240TIP3    H237212   0.376   4.689  12.200  0.4990 -0.2629 -0.8380
 5241TIP3   OH237213   5.980   6.017   0.101 -0.2110  0.0762  0.1411
 5241TIP3    H137214   6.013   5.991   0.015 -0.7721  1.2405 -0.4451
 5241TIP3    H237215   6.034   6.092   0.126  0.5324 -0.7804  1.2311
 5242TIP3   OH237216   3.101   0.039   5.456  0.6510 -0.4869  0.6564
 5242TIP3    H137217   3.125  -0.044   5.497  1.3667 -0.4714  0.2715
 5242TIP3    H237218   3.157   0.045   5.379 -3.0308 -2.3153 -2.5632
 5243TIP3   OH237219   2.166   4.073  17.413 -0.2262 -0.2357  0.4788
 5243TIP3    H137220   2.206   4.006  17.358  0.3022 -1.2482  2.0022
 5243TIP3    H237221   2.140   4.142  17.353  1.6311 -0.6340 -0.8597
 5244TIP3   OH237222   5.130   3.709  15.390  0.5314  0.3260 -0.3971
 5244TIP3    H137223   5.178   3.785  15.357 -0.8236  0.4372 -2.2626
 5244TIP3    H237224   5.040   3.741  15.400  0.3259 -0.5376  0.6498
 5245TIP3   OH237225   4.044   4.640  16.831  0.0171 -0.0508 -0.0652
 5245TIP3    H137226   3.970   4.657  16.773  0.6836  0.8996 -0.6707
 5245TIP3    H237227   4.049   4.544  16.836  0.0989 -0.1820 -1.8113
 5246TIP3   OH237228   5.401   5.168  17.199 -0.1417 -0.8127 -0.0480
 5246TIP3    H137229   5.444   5.090  17.234  1.2651 -0.5688 -1.1600
 5246TIP3    H237230   5.410   5.160  17.104  1.1157  1.2663 -0.1776
 5247TIP3   OH237231   6.644   5.616   3.870 -0.1921  0.2276 -0.1948
 5247TIP3    H137232   6.735   5.608   3.901 -1.0078 -1.7903  1.9761
 5247TIP3    H237233   6.645   5.575   3.783  0.8013 -0.6929  0.2252
 5248TIP3   OH237234   3.494   0.356   1.929 -0.2576 -0.0350 -0.2998
 5248TIP3    H137235   3.487   0.321   2.018 -1.0847  1.5399  0.2890
 5248TIP3    H237236   3.585   0.341   1.904  0.2066  0.2529  1.1446
 5249TIP3   OH237237   5.615   5.837   2.849 -0.1095 -0.3934 -0.0995
 5249TIP3    H137238   5.664   5.919   2.856 -2.0456  0.8115  0.1223
 5249TIP3    H237239   5.604   5.808   2.940  0.7979 -1.0474 -0.1952
 5250TIP3   OH237240   5.663   5.592   0.139 -0.3421 -0.6436  0.0921
 5250TIP3    H137241   5.678   5.583   0.045  0.2462 -2.7971  0.3214
 5250TIP3    H237242   5.593   5.657   0.147  0.6153  0.6937 -1.7243
 5251TIP3   OH237243   3.512   1.530  11.897 -0.2324 -0.9642 -0.2344
 5251TIP3    H137244   3.544   1.619  11.910 -1.6417 -0.5318  0.4522
 5251TIP3    H237245   3.449   1.516  11.967 -0.6125 -2.2299 -0.7894
 5252TIP3   OH237246   2.416   4.036   4.607  0.6754  0.8339 -0.1286
 5252TIP3    H137247   2.331   4.020   4.566  0.8907  0.5647 -0.4779
 5252TIP3    H237248   2.437   4.127   4.584  0.6609  0.7764 -0.3804
 5253TIP3   OH237249   6.683   4.042  12.395  0.1516  0.3883 -0.0190
 5253TIP3    H137250   6.778   4.041  12.380  0.0523 -0.8305 -0.6991
 5253TIP3    H237251   6.673   4.082  12.482  1.3744 -0.5583  0.5975
 5254TIP3   OH237252   2.891   0.627  16.062  0.3212  0.5574 -0.2492
 5254TIP3    H137253   2.909   0.693  15.995  1.6416 -0.0669 -0.5450
 5254TIP3    H237254   2.973   0.618  16.110  0.5118 -1.5809 -0.8685
 5255TIP3   OH237255   2.150   4.707   2.569  0.1971  0.2499  0.1880
 5255TIP3    H137256   2.089   4.709   2.642  0.3334  0.1449  0.3059
 5255TIP3    H237257   2.167   4.614   2.554 -0.4681  0.2391 -0.5161
 5256TIP3   OH237258   2.088   5.462  11.539  0.5550  0.0531  0.2284
 5256TIP3    H137259   2.159   5.525  11.554  0.3841  0.7521 -1.6519
 5256TIP3    H237260   2.008   5.513  11.553  0.4226  0.0952 -0.6157
 5257TIP3   OH237261   2.003   1.050  15.952 -0.0828 -0.7631 -0.4093
 5257TIP3    H137262   2.037   0.995  16.022 -0.3409 -1.4945 -0.8383
 5257TIP3    H237263   2.077   1.060  15.892 -0.7341 -3.0096 -1.7434
 5258TIP3   OH237264   6.580   1.722  16.739  0.0653 -0.2943 -0.5004
 5258TIP3    H137265   6.572   1.816  16.726  0.8578 -0.3610 -1.5898
 5258TIP3    H237266   6.506   1.685  16.690  0.0063 -0.2585 -0.4371
 5259TIP3   OH237267   0.280   0.936  12.916 -0.7412  0.5171 -0.3842
 5259TIP3    H137268   0.241   0.972  12.996 -0.3394  2.2216 -0.9010
 5259TIP3    H237269   0.232   0.980  12.845  0.3534  0.6751 -1.0471
 5260TIP3   OH237270   2.503   2.040  13.854 -0.6092  0.5854 -0.4479
 5260TIP3    H137271   2.439   2.001  13.914  0.9042 -0.2494  0.7073
 5260TIP3    H237272   2.505   1.980  13.780 -0.6764  0.2509 -0.1830
 5261TIP3   OH237273   6.637   5.943   0.374  0.2026  0.5694  0.6107
 5261TIP3    H137274   6.710   5.882   0.383 -1.6969 -1.7355  1.4949
 5261TIP3    H237275   6.644   5.976   0.284  1.1011 -1.2394 -0.0247
 5262TIP3   OH237276   5.222   6.094   0.264  0.1815 -0.0191 -0.4205
 5262TIP3    H137277   5.137   6.133   0.282  0.5245  1.3898 -1.6285
 5262TIP3    H237278   5.238   6.035   0.337 -0.5349  1.8444  1.3198
 5263TIP3   OH237279   3.505   4.617   5.879 -0.3658  0.3689  0.6765
 5263TIP3    H137280   3.519   4.526   5.904  1.3770 -0.0548 -1.5621
 5263TIP3    H237281   3.441   4.613   5.808 -0.9623  0.9943  1.1654
 5264TIP3   OH237282   4.638   5.724   5.403  0.5430 -0.2499  0.6605
 5264TIP3    H137283   4.598   5.808   5.426  1.4155 -0.1055  1.7739
 5264TIP3    H237284   4.575   5.658   5.433  0.1005 -0.0076  0.2792
 5265TIP3   OH237285   6.761   5.519   2.797 -0.0042  0.2845 -0.0478
 5265TIP3    H137286   6.789   5.443   2.848 -2.5003  0.3164  1.5544
 5265TIP3    H237287   6.779   5.594   2.854  1.8927  0.9212 -1.3784
 5266TIP3   OH237288   1.896   2.340  11.304  0.1417  0.3824 -0.9885
 5266TIP3    H137289   1.974   2.289  11.280  1.0795  1.4083 -0.2184
 5266TIP3    H237290   1.866   2.377  11.220  1.1804  0.9145 -1.1444
 5267TIP3   OH237291   0.414   3.749   2.933 -0.0479 -0.1549  0.2503
 5267TIP3    H137292   0.417   3.743   3.028 -3.0068  1.2805  0.5738
 5267TIP3    H237293   0.342   3.691   2.907 -0.8272  1.1968 -0.7935
 5268TIP3   OH237294   3.077   1.879  13.843  0.0150 -0.0821  0.8336
 5268TIP3    H137295   3.157   1.927  13.823  0.9126 -0.6326  2.8285
 5268TIP3    H237296   3.098   1.788  13.823 -1.2385  0.0980 -1.6695
 5269TIP3   OH237297   2.458   5.731  16.361  0.0854 -0.1279  0.1063
 5269TIP3    H137298   2.503   5.683  16.292 -0.0750  0.7362 -0.6211
 5269TIP3    H237299   2.529   5.764  16.417  0.3726  0.9913 -0.8772
 5270TIP3   OH237300   5.805   5.609   4.965  0.5200  0.1161  0.7534
 5270TIP3    H137301   5.764   5.533   5.008  1.1723  0.0718  1.3030
 5270TIP3    H237302   5.749   5.625   4.889 -1.6685  1.2435  2.4930
 5271TIP3   OH237303   0.194   1.245   0.244 -0.0598 -0.4392  0.2965
 5271TIP3    H137304   0.122   1.182   0.240 -0.3741 -0.1571  1.3651
 5271TIP3    H237305   0.169   1.306   0.313  0.8968  0.0452  0.2241
 5272TIP3   OH237306   6.761   2.284  16.140 -0.3720  0.4267 -0.1165
 5272TIP3    H137307   6.765   2.376  16.114 -0.2595  0.3989 -0.2028
 5272TIP3    H237308   6.849   2.265  16.172 -0.0569  0.0351 -1.1846
 5273TIP3   OH237309   3.908   0.784   1.705 -0.4724 -0.1135  0.1248
 5273TIP3    H137310   3.886   0.843   1.777  2.7818 -0.2058  1.3675
 5273TIP3    H237311   3.930   0.842   1.632  0.3418  0.1662  0.5789
 5274TIP3   OH237312   2.813   6.550  12.641 -0.1634  0.1822  0.1958
 5274TIP3    H137313   2.820   6.568  12.735  0.2579  1.0522  0.0052
 5274TIP3    H237314   2.864   6.469  12.629  0.6050  0.5982  0.5684
 5275TIP3   OH237315   3.816   6.052   5.119  0.3224 -0.5267 -0.0689
 5275TIP3    H137316   3.819   6.008   5.204  0.0358  1.9195  1.2904
 5275TIP3    H237317   3.836   6.143   5.139 -2.7748  0.7696 -2.1444
 5276TIP3   OH237318   5.790   6.356   2.306 -0.0021  0.2799 -0.4716
 5276TIP3    H137319   5.701   6.381   2.279  0.4995  1.1708 -1.3625
 5276TIP3    H237320   5.825   6.309   2.230  0.1237 -0.5114  0.0692
 5277TIP3   OH237321   5.615   6.461   0.505 -0.2478  0.5991  0.1512
 5277TIP3    H137322   5.668   6.395   0.459  0.0565  0.4671  0.6755
 5277TIP3    H237323   5.525   6.430   0.496 -0.1411  0.3032  0.0856
 5278TIP3   OH237324   3.046   5.103  16.204 -0.7034  0.1347  0.4688
 5278TIP3    H137325   3.142   5.111  16.205 -0.7028  0.8658 -1.5541
 5278TIP3    H237326   3.015   5.194  16.209 -1.3421 -0.1460  2.0338
 5279TIP3   OH237327   4.880   1.189   3.091 -0.4498 -0.3601 -0.0231
 5279TIP3    H137328   4.961   1.206   3.140 -0.2210  0.5026 -0.6783
 5279TIP3    H237329   4.843   1.111   3.132  0.2685 -0.2540  0.8494
 5280TIP3   OH237330   1.285   1.855   0.881  0.1844 -0.2351  0.9303
 5280TIP3    H137331   1.218   1.789   0.865 -0.2146  0.2746  0.4407
 5280TIP3    H237332   1.252   1.905   0.955 -0.9875  1.2754 -0.5342
 5281TIP3   OH237333   1.797   1.578   4.625  0.0625  0.5583  0.5159
 5281TIP3    H137334   1.739   1.510   4.589 -0.5705  0.8960  0.8747
 5281TIP3    H237335   1.830   1.541   4.707  0.1190  0.4797  0.4570
 5282TIP3   OH237336   2.946   4.577   5.816  0.2257 -0.2040  0.0577
 5282TIP3    H137337   2.979   4.487   5.809  1.0053 -0.3653  3.8569
 5282TIP3    H237338   2.863   4.568   5.863  0.9798  1.0817  1.7365
 5283TIP3   OH237339   2.848   3.274   4.224  0.1142 -0.4758 -0.7165
 5283TIP3    H137340   2.869   3.303   4.313 -0.6070  0.9983 -0.9971
 5283TIP3    H237341   2.907   3.201   4.208  1.5378  0.3924  0.3232
 5284TIP3   OH237342   5.292   0.656   6.354 -0.2343  0.0893 -0.0841
 5284TIP3    H137343   5.320   0.726   6.295  0.4864 -0.4343 -0.3826
 5284TIP3    H237344   5.361   0.590   6.346 -0.8599 -0.6117  0.2609
 5285TIP3   OH237345   3.618   4.001   0.243  0.4328  0.2979  0.4950
 5285TIP3    H137346   3.673   3.970   0.315  2.0193  0.8269 -0.4585
 5285TIP3    H237347   3.597   3.923   0.193  2.7224  0.3878 -0.7356
 5286TIP3   OH237348   4.827   2.983  15.606 -0.0333  0.4639  0.0591
 5286TIP3    H137349   4.813   2.964  15.699  2.7679  0.8784  0.6483
 5286TIP3    H237350   4.880   2.910  15.574 -0.2260  0.7739 -1.0146
 5287TIP3   OH237351   5.100   0.287   5.283  0.0022  0.7938 -0.1949
 5287TIP3    H137352   5.192   0.281   5.309 -0.0299  1.5857  0.1421
 5287TIP3    H237353   5.101   0.344   5.206 -0.2437  1.1269  0.0458
 5288TIP3   OH237354   4.301   4.090   1.236  0.0001  0.5345  0.1557
 5288TIP3    H137355   4.325   4.012   1.186 -0.9159  0.7680 -0.6728
 5288TIP3    H237356   4.235   4.134   1.182 -1.6619  0.3566  1.9358
 5289TIP3   OH237357   0.961   1.644   1.937  0.2452  0.4739  0.4846
 5289TIP3    H137358   1.027   1.626   1.871  2.1802  1.3947  2.0717
 5289TIP3    H237359   0.927   1.730   1.914 -0.3049  0.0761 -0.2318
 5290TIP3   OH237360   3.221   4.757  15.539 -1.0225  0.2855 -0.3979
 5290TIP3    H137361   3.133   4.750  15.577 -0.4359  1.4887  1.2835
 5290TIP3    H237362   3.258   4.837  15.577  0.5537  0.1902 -1.6183
 5291TIP3   OH237363   4.788   6.278  16.375  0.4401 -0.1048 -0.9075
 5291TIP3    H137364   4.858   6.307  16.435  1.4330  0.7972 -2.4266
 5291TIP3    H237365   4.832   6.220  16.314 -0.2627  0.0576 -1.5790
 5292TIP3   OH237366   3.311   5.947   1.899  0.3929 -0.4329  0.3572
 5292TIP3    H137367   3.231   5.938   1.849  0.4429 -1.6072  0.4570
 5292TIP3    H237368   3.290   5.913   1.986  0.5652  0.7186  0.8693
 5293TIP3   OH237369   0.616   0.564   3.068  0.1177 -0.2498 -0.2960
 5293TIP3    H137370   0.568   0.507   3.009  0.7138  0.1196 -1.1564
 5293TIP3    H237371   0.570   0.557   3.151  0.1531 -1.9545 -0.3813
 5294TIP3   OH237372   1.683   6.189  14.450 -0.1729  0.3465  0.6034
 5294TIP3    H137373   1.638   6.146  14.377  0.5206  0.4316  0.1058
 5294TIP3    H237374   1.700   6.278  14.419  4.4815 -0.8583 -1.2695
 5295TIP3   OH237375   5.402   5.595  13.601  0.0272  0.0513 -0.8134
 5295TIP3    H137376   5.328   5.604  13.541 -0.1507  0.0418 -0.5993
 5295TIP3    H237377   5.362   5.566  13.683  0.4964 -2.1852 -1.3059
 5296TIP3   OH237378   0.970   6.430   4.728  0.7715 -0.3503 -0.2764
 5296TIP3    H137379   0.994   6.505   4.782 -0.7010  0.6476 -0.9395
 5296TIP3    H237380   0.912   6.466   4.661  1.1989 -1.8371 -1.5158
 5297TIP3   OH237381   0.639   2.599   1.206 -0.2649 -0.5954  0.2561
 5297TIP3    H137382   0.660   2.604   1.300  1.0352 -0.2367 -0.0260
 5297TIP3    H237383   0.601   2.513   1.194  0.0376 -0.8459  1.0380
 5298TIP3   OH237384   2.812   4.396  15.296  0.4020  0.4995 -0.0042
 5298TIP3    H137385   2.730   4.421  15.337  0.4320 -0.4311  0.6505
 5298TIP3    H237386   2.796   4.405  15.202 -1.0683 -1.4403  0.0057
 5299TIP3   OH237387   2.983   6.208   5.842 -0.0443 -0.1269 -0.2278
 5299TIP3    H137388   2.902   6.258   5.848  0.5049  0.7091  0.5802
 5299TIP3    H237389   2.958   6.126   5.799 -1.2784  0.1732 -0.1222
 5300TIP3   OH237390   1.146   1.648   0.365 -0.4377  0.0019  0.7046
 5300TIP3    H137391   1.226   1.660   0.314 -0.7853 -0.3816  0.0568
 5300TIP3    H237392   1.076   1.683   0.309 -0.6227  1.1827  1.6479
 5301TIP3   OH237393   3.552   2.337  15.620 -0.2956  0.1343  0.0937
 5301TIP3    H137394   3.487   2.273  15.650  1.5706 -1.2069  1.5930
 5301TIP3    H237395   3.559   2.399  15.692  0.1554  0.1887  0.0058
 5302TIP3   OH237396   1.623   6.428  13.416  0.0222  0.0894  0.0973
 5302TIP3    H137397   1.550   6.469  13.370  0.2612  1.0364  0.5383
 5302TIP3    H237398   1.684   6.500  13.434  1.4794 -0.8060 -1.0206
 5303TIP3   OH237399   1.929   1.648  14.119 -0.1871 -0.0355 -0.2368
 5303TIP3    H137400   1.968   1.735  14.104  0.2974  0.2390  2.2255
 5303TIP3    H237401   1.991   1.587  14.079  1.6140  0.5533  1.4795
 5304TIP3   OH237402   0.532   3.499   4.046 -0.5709  0.0225 -0.4644
 5304TIP3    H137403   0.617   3.525   4.010 -0.0683  0.9637  1.2671
 5304TIP3    H237404   0.550   3.418   4.093 -1.0188 -0.6923 -1.4939
 5305TIP3   OH237405   5.402   2.564  16.799 -0.5274  0.2081  0.0488
 5305TIP3    H137406   5.315   2.564  16.839  0.0634  1.7627  1.4140
 5305TIP3    H237407   5.452   2.627  16.850  0.9577  0.5162 -1.6995
 5306TIP3   OH237408   1.439   2.729  14.284 -0.2115  0.3767  0.1415
 5306TIP3    H137409   1.496   2.795  14.325  0.2514 -0.3572  0.6902
 5306TIP3    H237410   1.351   2.767  14.292  0.1106  1.2125 -0.1108
 5307TIP3   OH237411   6.378   4.331  13.623  0.2900 -0.0850  0.0690
 5307TIP3    H137412   6.434   4.379  13.561 -0.6332  0.7427 -0.1640
 5307TIP3    H237413   6.343   4.258  13.572  0.9580 -0.4633  0.1461
 5308TIP3   OH237414   0.239   0.189   2.862 -0.0061  0.0114  0.1539
 5308TIP3    H137415   0.183   0.266   2.878 -1.0538 -0.9384  1.2032
 5308TIP3    H237416   0.232   0.175   2.767  0.6693  1.5437 -0.1501
 5309TIP3   OH237417   0.254   2.734  11.833  0.6079 -0.3940 -0.3370
 5309TIP3    H137418   0.346   2.728  11.808  1.3351 -1.8492  2.2996
 5309TIP3    H237419   0.254   2.790  11.911 -1.0772  1.2785 -1.4314
 5310TIP3   OH237420   6.475   4.659   5.639 -0.2263 -0.0678 -0.0053
 5310TIP3    H137421   6.387   4.631   5.665 -0.1134 -0.1986  0.2434
 5310TIP3    H237422   6.465   4.687   5.548 -1.2378  3.0186  0.9258
 5311TIP3   OH237423   0.456   3.156  13.123 -0.7745  0.1544 -0.4435
 5311TIP3    H137424   0.368   3.158  13.085 -0.2620 -1.6033 -1.8569
 5311TIP3    H237425   0.460   3.072  13.170 -0.7280  1.4174  1.9478
 5312TIP3   OH237426   6.340   4.065   0.900 -0.0312  0.1234  0.1730
 5312TIP3    H137427   6.317   3.973   0.912 -0.7698  0.5221  2.1705
 5312TIP3    H237428   6.428   4.072   0.937 -1.0141  0.6940  2.5843
 5313TIP3   OH237429   0.154   6.764  14.317  0.1662 -0.1796 -1.0592
 5313TIP3    H137430   0.228   6.820  14.339 -0.4071  0.2646 -0.2133
 5313TIP3    H237431   0.081   6.825  14.304 -0.4880 -0.7275 -0.0353
 5314TIP3   OH237432   3.528   0.046   0.803  0.6176  0.3950 -0.9694
 5314TIP3    H137433   3.464   0.102   0.847 -0.1110  0.5692 -2.2017
 5314TIP3    H237434   3.505  -0.042   0.830  1.7260  0.6430  0.9269
 5315TIP3   OH237435   2.578   4.198   3.177  0.0120  0.5887 -0.5531
 5315TIP3    H137436   2.601   4.119   3.129  0.5444 -1.1798  2.3654
 5315TIP3    H237437   2.656   4.253   3.170  0.2886  0.1197 -1.2386
 5316TIP3   OH237438   4.124   1.220   6.118  0.1361  0.1184 -0.2390
 5316TIP3    H137439   4.041   1.239   6.075 -0.9868 -1.8909  0.9004
 5316TIP3    H237440   4.133   1.289   6.185 -0.0213  0.9876 -1.0946
 5317TIP3   OH237441   0.883   3.013  15.236 -0.2285 -0.1703  0.7335
 5317TIP3    H137442   0.922   3.029  15.321  1.2588 -0.9419  0.2333
 5317TIP3    H237443   0.947   3.046  15.173 -1.2514  0.2980 -0.1139
 5318TIP3   OH237444   4.036   6.714  14.599 -0.6519  0.2531 -0.1181
 5318TIP3    H137445   3.951   6.747  14.627 -0.9492  0.9170 -1.7079
 5318TIP3    H237446   4.029   6.619  14.609 -1.5751  0.3004 -0.2151
 5319TIP3   OH237447   0.752   5.147  15.743  0.0864 -0.1866 -1.0771
 5319TIP3    H137448   0.765   5.241  15.738 -1.0666  0.0681  0.0690
 5319TIP3    H237449   0.837   5.109  15.722  1.1001  1.1618  0.3954
 5320TIP3   OH237450   4.780   1.484   4.418 -0.6182  0.1090  0.7384
 5320TIP3    H137451   4.863   1.461   4.376  0.3502  0.8301  2.1714
 5320TIP3    H237452   4.748   1.559   4.367 -0.6719 -0.5015 -0.1440
 5321TIP3   OH237453   6.093   2.972   1.677 -0.9180 -0.0167  0.0053
 5321TIP3    H137454   6.099   3.041   1.611 -0.5819  0.2303  0.2881
 5321TIP3    H237455   6.114   2.891   1.630 -0.1729  0.2212 -0.0816
 5322TIP3   OH237456   2.949   3.168  14.289  0.2241  0.3753 -0.0757
 5322TIP3    H137457   2.857   3.157  14.265  0.2419  1.5992 -0.7910
 5322TIP3    H237458   2.989   3.083  14.269 -0.5612  0.1379 -0.6989
 5323TIP3   OH237459   3.822   6.653   3.421 -0.2416  0.0558 -0.4489
 5323TIP3    H137460   3.837   6.680   3.330  0.7897  0.9416 -0.0331
 5323TIP3    H237461   3.893   6.694   3.471 -1.6891  0.9098  1.0044
 5324TIP3   OH237462   0.219   2.909  14.608  0.4305  0.0771 -0.6638
 5324TIP3    H137463   0.235   2.978  14.543 -0.0904 -0.3461 -1.2521
 5324TIP3    H237464   0.274   2.933  14.682 -0.4496  1.6756 -0.4678
 5325TIP3   OH237465   3.793   4.732  12.098  0.1476  0.8409 -0.3182
 5325TIP3    H137466   3.703   4.699  12.090  0.2658  0.8328 -1.9207
 5325TIP3    H237467   3.794   4.812  12.046  0.1929  2.8218  2.5164
 5326TIP3   OH237468   4.367   2.089  17.328  0.4715 -0.1026 -0.3202
 5326TIP3    H137469   4.343   2.061  17.240  0.0948 -2.3455  0.4285
 5326TIP3    H237470   4.295   2.144  17.356  0.8371  1.0579 -1.5770
 5327TIP3   OH237471   2.784   3.887  14.243  0.0328 -0.7511 -0.2148
 5327TIP3    H137472   2.806   3.905  14.334 -0.9568 -0.1752 -0.0775
 5327TIP3    H237473   2.842   3.815  14.218  0.5439 -0.6963  0.7615
 5328TIP3   OH237474   4.626   3.189  13.738 -0.5838 -0.0816 -0.1371
 5328TIP3    H137475   4.706   3.200  13.790  0.1930 -0.6510 -1.1519
 5328TIP3    H237476   4.576   3.268  13.754  1.0108  1.1358 -0.8564
 5329TIP3   OH237477   3.193   3.668  16.313 -0.2895  0.2176 -0.0438
 5329TIP3    H137478   3.278   3.632  16.291 -0.9864 -0.6616 -1.4496
 5329TIP3    H237479   3.211   3.758  16.341  1.1920 -0.3268  0.8288
 5330TIP3   OH237480   2.950   5.346   2.658 -0.2242  0.3939  0.2834
 5330TIP3    H137481   3.003   5.396   2.719 -1.6250  2.4733 -0.0945
 5330TIP3    H237482   2.863   5.344   2.698 -0.7409  0.2872 -0.7974
 5331TIP3   OH237483   6.261   1.559  14.124 -0.7565  0.2807  0.7561
 5331TIP3    H137484   6.336   1.502  14.139  0.7421  2.1327  0.7113
 5331TIP3    H237485   6.218   1.522  14.046  2.2253  1.1419 -1.4709
 5332TIP3   OH237486   0.080   0.469   1.252 -0.0490 -0.2847  1.0109
 5332TIP3    H137487   0.123   0.548   1.218 -1.9952  0.5450  0.3182
 5332TIP3    H237488   0.036   0.432   1.176 -1.0847 -0.7242  1.8086
 5333TIP3   OH237489   1.014   0.044  12.738  0.0433 -0.0434  0.5843
 5333TIP3    H137490   0.953   0.112  12.711 -0.4911 -0.4434  0.7666
 5333TIP3    H237491   0.978  -0.036  12.700  0.5626 -0.2532  0.5287
 5334TIP3   OH237492   0.496   5.762  11.650 -0.4459  0.6514 -0.1671
 5334TIP3    H137493   0.431   5.744  11.582 -0.2482  0.2652 -0.2550
 5334TIP3    H237494   0.500   5.858  11.654  1.2512  0.7600 -2.3713
 5335TIP3   OH237495   6.200   3.517  13.487  0.3035 -0.3935 -0.6641
 5335TIP3    H137496   6.256   3.448  13.451 -0.8376 -0.7325 -1.8661
 5335TIP3    H237497   6.114   3.477  13.496 -0.3312  0.7896 -1.1912
 5336TIP3   OH237498   5.224   1.461  11.497  0.2112  0.3511 -0.0836
 5336TIP3    H137499   5.190   1.417  11.420 -0.1748  0.5195 -0.0127
 5336TIP3    H237500   5.154   1.454  11.562  0.9065 -0.6752  0.6030
 5337TIP3   OH237501   0.963   5.432  11.989  0.4743  0.0212 -0.2033
 5337TIP3    H137502   0.890   5.378  11.958 -0.4583  1.2730 -0.2642
 5337TIP3    H237503   1.041   5.386  11.960 -0.3238 -0.0584 -2.4214
 5338TIP3   OH237504   0.929   6.187   2.071 -0.1683 -0.2799 -0.4893
 5338TIP3    H137505   0.849   6.140   2.050 -1.0595  1.4467 -1.1049
 5338TIP3    H237506   0.914   6.222   2.159  0.1398 -0.4154 -0.3809
 5339TIP3   OH237507   2.615   1.122  14.085 -0.4895  0.0659  0.2801
 5339TIP3    H137508   2.693   1.112  14.031 -0.4286 -0.5524  0.4797
 5339TIP3    H237509   2.543   1.095  14.029 -0.5987  0.8998  0.0040
 5340TIP3   OH237510   5.408   3.210  11.656  0.3164  0.2388 -0.4185
 5340TIP3    H137511   5.358   3.129  11.649  0.6038  0.1818 -1.9964
 5340TIP3    H237512   5.455   3.218  11.573  1.4193  1.2881  0.2663
 5341TIP3   OH237513   4.735   4.435  15.174  0.5216  0.0706  0.7289
 5341TIP3    H137514   4.717   4.497  15.104 -0.4593 -0.8225  0.1657
 5341TIP3    H237515   4.734   4.488  15.254 -1.1635  0.6556  0.3574
 5342TIP3   OH237516   4.824   5.813  11.463  0.0072  0.1393 -0.1712
 5342TIP3    H137517   4.812   5.860  11.380 -1.9612  0.2300  0.1096
 5342TIP3    H237518   4.832   5.882  11.528 -1.6057  0.1443  0.0747
 5343TIP3   OH237519   0.284   2.578  16.138  0.1137  0.7601  0.2463
 5343TIP3    H137520   0.369   2.547  16.105  0.6795 -0.0398  2.2996
 5343TIP3    H237521   0.276   2.538  16.224 -1.4675  2.4261  0.9342
 5344TIP3   OH237522   3.094   3.016   1.711 -0.1430 -0.4183  0.0258
 5344TIP3    H137523   3.154   3.026   1.785  0.6265 -0.6506 -0.5560
 5344TIP3    H237524   3.007   3.009   1.752  0.3367 -1.2930  0.9558
 5345TIP3   OH237525   5.971   0.766  10.860 -0.0990 -0.0425 -0.1259
 5345TIP3    H137526   5.890   0.799  10.899  0.1904  0.1391  0.3238
 5345TIP3    H237527   6.010   0.843  10.819  1.2181  0.5123  2.0116
 5346TIP3   OH237528   0.937   0.194   3.037 -0.5153 -0.2293 -0.1971
 5346TIP3    H137529   0.843   0.213   3.035 -0.2001  1.5377  0.0632
 5346TIP3    H237530   0.946   0.113   2.988 -1.9320  0.6628 -2.0624
 5347TIP3   OH237531   6.469   1.339   2.742  0.0617 -0.2632  0.2112
 5347TIP3    H137532   6.547   1.284   2.736 -0.0049 -0.2385 -1.3085
 5347TIP3    H237533   6.496   1.422   2.704 -0.6747 -0.2437 -0.2940
 5348TIP3   OH237534   0.399   2.368   3.828 -0.2820  0.1373 -0.3655
 5348TIP3    H137535   0.333   2.437   3.820 -0.2409  0.3163  0.6756
 5348TIP3    H237536   0.411   2.336   3.739 -1.1886  0.6494 -0.6880
 5349TIP3   OH237537   6.585   5.744   4.160  0.0851 -0.7021  0.0900
 5349TIP3    H137538   6.532   5.750   4.081  1.4280  1.2830 -0.7526
 5349TIP3    H237539   6.552   5.814   4.217 -1.7436 -2.9069  1.9677
 5350TIP3   OH237540   5.322   3.006   0.581 -0.6973  0.2429 -0.1589
 5350TIP3    H137541   5.293   3.085   0.535 -0.0041 -0.8344 -2.6123
 5350TIP3    H237542   5.242   2.954   0.590 -0.7322  0.1970 -0.7152
 5351TIP3   OH237543   3.155   2.558  14.269 -0.4859  0.1253  0.0510
 5351TIP3    H137544   3.107   2.593  14.344 -0.9913  3.2324 -1.5399
 5351TIP3    H237545   3.178   2.469  14.294 -1.5120  0.6788  3.4418
 5352TIP3   OH237546   4.105   5.563  15.175 -0.4481  0.9540 -0.0482
 5352TIP3    H137547   4.150   5.486  15.211 -0.9067  0.9626  0.5493
 5352TIP3    H237548   4.109   5.550  15.080  0.4469  0.7492  0.0026
 5353TIP3   OH237549   2.910   3.800   4.852  0.5767 -0.2280  0.1015
 5353TIP3    H137550   2.910   3.721   4.906  0.0785 -0.0859  0.3218
 5353TIP3    H237551   2.990   3.847   4.878  0.4254 -0.2401  0.6032
 5354TIP3   OH237552   0.665   1.868   2.419 -0.1078 -0.1597 -0.3088
 5354TIP3    H137553   0.719   1.791   2.402 -1.0873 -1.0215  0.2991
 5354TIP3    H237554   0.726   1.936   2.446  0.5569 -1.9033  3.2554
 5355TIP3   OH237555   4.822   1.108   6.074 -0.1222  1.2196  0.5923
 5355TIP3    H137556   4.842   1.063   6.156 -0.3956 -1.5214 -0.7278
 5355TIP3    H237557   4.766   1.182   6.100  0.7340  1.1278  2.9417
 5356TIP3   OH237558   0.297   3.913   3.250  0.1299 -0.9126 -0.1749
 5356TIP3    H137559   0.310   3.993   3.301  0.1774 -0.3073 -1.1215
 5356TIP3    H237560   0.303   3.941   3.159  1.7314 -2.2544 -0.5364
 5357TIP3   OH237561   3.535   1.599  15.095 -0.7080  1.0250  0.1265
 5357TIP3    H137562   3.540   1.607  15.000 -0.6819  2.4280  0.2275
 5357TIP3    H237563   3.491   1.679  15.124 -0.1663  0.9092  1.3325
 5358TIP3   OH237564   0.236   6.189   5.763 -0.4778 -0.1173 -0.0736
 5358TIP3    H137565   0.321   6.171   5.802  0.0351 -1.4718 -1.6895
 5358TIP3    H237566   0.175   6.189   5.837  0.6216 -1.2556  0.8845
 5359TIP3   OH237567   0.107   1.487   5.450 -0.0703 -0.6100 -0.2150
 5359TIP3    H137568   0.189   1.452   5.416 -0.8433 -0.8706 -1.8845
 5359TIP3    H237569   0.109   1.580   5.428 -0.1091 -0.5565  0.0000
 5360TIP3   OH237570   4.748   4.734   2.362  0.2264  0.7739 -0.3343
 5360TIP3    H137571   4.807   4.792   2.409  0.1899  1.7336 -1.4244
 5360TIP3    H237572   4.661   4.766   2.382  0.0719 -0.2467  0.7571
 5361TIP3   OH237573   2.083   4.728  17.110 -0.0882  0.8193 -0.5001
 5361TIP3    H137574   2.114   4.651  17.062 -0.5983  0.5406 -0.3927
 5361TIP3    H237575   2.152   4.747  17.173 -0.2160  0.0943 -0.1349
 5362TIP3   OH237576   1.653   0.370  11.333 -0.5402  0.0929 -0.4886
 5362TIP3    H137577   1.657   0.396  11.241  0.7424  0.0366 -0.4749
 5362TIP3    H237578   1.722   0.304  11.342 -3.3491 -3.0247 -0.4057
 5363TIP3   OH237579   5.575   2.877   2.619  0.0693 -0.3763 -0.2065
 5363TIP3    H137580   5.535   2.904   2.702  0.8511 -2.3980  0.8821
 5363TIP3    H237581   5.665   2.911   2.624 -0.2921  0.7697 -0.9281
 5364TIP3   OH237582   4.369   6.458  16.085  0.4155 -0.2463  0.2877
 5364TIP3    H137583   4.330   6.387  16.035  1.2318 -1.0154  0.7226
 5364TIP3    H237584   4.434   6.416  16.141  1.3767  0.9153  0.0955
 5365TIP3   OH237585   3.161   4.217   4.823 -0.3776  0.1214 -0.2221
 5365TIP3    H137586   3.083   4.243   4.774  0.0128  0.7620 -0.5112
 5365TIP3    H237587   3.126   4.177   4.903 -1.0123  1.5060  0.2259
 5366TIP3   OH237588   1.021   4.646   4.913 -0.0299  0.6466  0.4545
 5366TIP3    H137589   0.944   4.609   4.870  0.4858  1.3085 -1.1441
 5366TIP3    H237590   0.987   4.690   4.990 -0.9860 -0.7798  0.8834
 5367TIP3   OH237591   2.163   4.084  16.911  0.0823  1.4075 -0.2875
 5367TIP3    H137592   2.078   4.077  16.955  0.5005  0.5024  0.3867
 5367TIP3    H237593   2.228   4.074  16.981  0.7883 -1.3908 -1.2043
 5368TIP3   OH237594   4.704   3.084   5.255 -0.2594  0.0458 -0.2788
 5368TIP3    H137595   4.702   3.144   5.330 -1.4333 -0.0406 -0.2268
 5368TIP3    H237596   4.659   3.130   5.185 -1.1966 -0.7735 -0.2338
 5369TIP3   OH237597   4.650   2.488   0.403 -0.5282 -0.2306  0.4345
 5369TIP3    H137598   4.562   2.464   0.373 -0.8565  2.3858 -0.9686
 5369TIP3    H237599   4.635   2.530   0.488 -0.1716 -2.7825  1.8689
 5370TIP3   OH237600   2.682   4.454   1.133 -0.4906  0.6614 -0.4390
 5370TIP3    H137601   2.731   4.536   1.147 -0.2241  0.7676 -1.9037
 5370TIP3    H237602   2.620   4.452   1.206 -1.5022  2.9222 -1.1180
 5371TIP3   OH237603   0.927   3.488   4.789 -0.0587 -0.3125  0.0603
 5371TIP3    H137604   1.006   3.525   4.828  0.1408 -0.9001  0.2360
 5371TIP3    H237605   0.957   3.406   4.749 -0.3262  0.1073 -1.0370
 5372TIP3   OH237606   6.344   5.911   6.051 -0.0128  0.1140 -0.2389
 5372TIP3    H137607   6.354   5.857   5.973 -0.2824  0.8578 -0.8009
 5372TIP3    H237608   6.377   5.857   6.123 -2.9018 -1.9212 -0.3061
 5373TIP3   OH237609   2.188   3.188   3.096 -0.0229 -0.0076 -0.5553
 5373TIP3    H137610   2.267   3.243   3.102 -0.4234  0.6343 -1.0987
 5373TIP3    H237611   2.162   3.192   3.004 -1.5830  1.0720 -0.1034
 5374TIP3   OH237612   3.735   1.842   5.095 -0.0879 -0.6691 -1.0483
 5374TIP3    H137613   3.639   1.842   5.100 -0.0409 -1.3842  1.3942
 5374TIP3    H237614   3.756   1.762   5.047 -0.7660 -2.6637  1.6835
 5375TIP3   OH237615   6.507   3.035  12.701  0.0035  0.0573 -0.2751
 5375TIP3    H137616   6.455   3.063  12.776 -0.5223  0.0336 -0.6282
 5375TIP3    H237617   6.585   3.091  12.703  0.4217 -0.5355  0.7993
 5376TIP3   OH237618   0.537   6.166   4.345  0.2524 -0.1268  0.2330
 5376TIP3    H137619   0.506   6.095   4.402  0.1993  1.0127  1.6751
 5376TIP3    H237620   0.595   6.122   4.283  1.4267 -1.2577  2.0209
 5377TIP3   OH237621   1.289   4.181  11.127 -0.0160 -0.2402  0.4136
 5377TIP3    H137622   1.375   4.197  11.088 -0.0098 -2.0246 -0.4327
 5377TIP3    H237623   1.301   4.199  11.220  0.9002  0.8228  0.1112
 5378TIP3   OH237624   0.323   5.806  12.315  0.0976  0.4322 -0.5276
 5378TIP3    H137625   0.378   5.783  12.390  0.0640  0.3028 -0.5419
 5378TIP3    H237626   0.320   5.902  12.315  0.3271  0.4383 -0.5314
 5379TIP3   OH237627   0.912   6.760  15.375  0.0542  0.7152  0.0606
 5379TIP3    H137628   1.005   6.758  15.398 -0.2267  1.4248  1.3423
 5379TIP3    H237629   0.886   6.668  15.375  0.4511  0.5870  1.0603
 5380TIP3   OH237630   0.345   3.866  17.312 -0.0201 -0.0577 -0.3892
 5380TIP3    H137631   0.288   3.918  17.369 -1.8000 -1.6287 -0.6123
 5380TIP3    H237632   0.396   3.931  17.263 -0.9695  1.4144  0.4834
 5381TIP3   OH237633   4.100   0.157   2.899 -0.5552  0.5158  0.2862
 5381TIP3    H137634   4.020   0.105   2.909 -0.6568  0.4911 -0.5996
 5381TIP3    H237635   4.153   0.133   2.975 -1.5529  0.8436  1.1156
 5382TIP3   OH237636   5.424   0.076  12.240 -0.0405  0.6723 -0.3096
 5382TIP3    H137637   5.506   0.028  12.250 -0.3172  0.2566 -0.0233
 5382TIP3    H237638   5.364   0.036  12.303 -0.6636  0.5368 -0.9689
 5383TIP3   OH237639   5.809   5.226  17.130  0.1580  0.2098 -0.4801
 5383TIP3    H137640   5.893   5.209  17.173  1.2509  1.9376 -1.7940
 5383TIP3    H237641   5.780   5.140  17.101  1.7384 -0.3857 -0.4418
 5384TIP3   OH237642   3.975   0.072  13.826  0.4098  0.4764 -0.1274
 5384TIP3    H137643   3.888   0.052  13.792  0.2725 -0.7451  0.8735
 5384TIP3    H237644   3.971   0.164  13.851 -0.0085  0.9380 -1.7667
 5385TIP3   OH237645   5.875   3.716  15.285 -0.1828 -0.2557  0.7872
 5385TIP3    H137646   5.795   3.704  15.233 -0.2486  2.4421  0.1379
 5385TIP3    H237647   5.946   3.692  15.225 -0.4192 -0.9061  0.7613
 5386TIP3   OH237648   4.270   4.730  12.225 -0.4103  0.2769 -0.4209
 5386TIP3    H137649   4.307   4.666  12.163 -0.2628 -0.5594  0.5130
 5386TIP3    H237650   4.319   4.810  12.207 -0.2343 -0.0008 -1.2542
 5387TIP3   OH237651   1.027   4.391   5.790 -0.4078  0.0531 -0.8933
 5387TIP3    H137652   0.990   4.396   5.878  0.2555  0.5784 -0.6398
 5387TIP3    H237653   0.950   4.384   5.733 -0.9053  0.9480 -0.3627
 5388TIP3   OH237654   1.937   1.869   6.019  0.1524 -0.4146 -0.1356
 5388TIP3    H137655   1.927   1.815   5.940  1.5035 -3.2157  1.4549
 5388TIP3    H237656   1.875   1.833   6.081  0.2259  0.7187  0.6264
 5389TIP3   OH237657   1.214   0.732  11.821 -0.2818 -0.6709  0.1666
 5389TIP3    H137658   1.199   0.722  11.915 -1.1038  0.2385  0.1458
 5389TIP3    H237659   1.159   0.665  11.781 -2.0800  0.6983  0.2360
 5390TIP3   OH237660   5.179   0.887  15.995  0.4501  0.7515  0.6588
 5390TIP3    H137661   5.274   0.886  15.980  0.4337  1.3259  0.4959
 5390TIP3    H237662   5.143   0.833  15.925  0.6968  0.0480  1.0604
 5391TIP3   OH237663   4.235   2.776   3.877  0.9666  0.1047  0.5627
 5391TIP3    H137664   4.262   2.835   3.948  2.1904  1.6934 -1.1260
 5391TIP3    H237665   4.288   2.803   3.802  0.3782 -2.1251 -0.7323
 5392TIP3   OH237666   2.871   3.276  11.842 -0.9365 -0.3263  0.2364
 5392TIP3    H137667   2.856   3.185  11.866 -0.8578  0.1260  2.0897
 5392TIP3    H237668   2.966   3.280  11.825 -0.9776 -0.6279 -0.0897
 5393TIP3   OH237669   4.561   0.651  10.394 -0.2089 -0.7529  0.3884
 5393TIP3    H137670   4.591   0.717  10.457  0.2796 -0.1447 -0.4604
 5393TIP3    H237671   4.634   0.590  10.387 -0.6740 -1.4365  1.2010
 5394TIP3   OH237672   3.915   5.800   3.440  0.4696 -0.3665 -0.1100
 5394TIP3    H137673   3.832   5.790   3.486  0.4973 -1.3772 -0.2643
 5394TIP3    H237674   3.936   5.893   3.449 -0.5244 -0.1593  0.1866
 5395TIP3   OH237675   2.713   5.668  13.122 -0.1133  0.1297 -0.4013
 5395TIP3    H137676   2.666   5.668  13.038  0.1380  0.9766 -0.5493
 5395TIP3    H237677   2.645   5.689  13.187 -0.2790 -0.3789 -0.4074
 5396TIP3   OH237678   0.036   4.515   4.743 -0.2004  0.6842  0.0799
 5396TIP3    H137679   0.089   4.467   4.807 -0.9991 -1.0906 -0.5258
 5396TIP3    H237680  -0.046   4.533   4.788 -0.8411 -0.7471 -0.4743
 5397TIP3   OH237681   6.495   6.253  13.728 -0.4186 -0.2387 -0.9617
 5397TIP3    H137682   6.444   6.292  13.657  0.2941  0.8888 -0.8881
 5397TIP3    H237683   6.540   6.179  13.687 -2.3870 -1.4989 -0.9256
 5398TIP3   OH237684   6.428   1.633  16.494  0.0877  0.1643 -0.8486
 5398TIP3    H137685   6.497   1.691  16.464 -1.3421  1.8176 -1.0511
 5398TIP3    H237686   6.356   1.645  16.432 -1.3932  0.5447  0.8469
 5399TIP3   OH237687   4.071   4.057   4.477 -0.1598 -0.0933 -0.0023
 5399TIP3    H137688   4.119   4.068   4.394  0.6968  1.1395  0.6211
 5399TIP3    H237689   4.137   4.072   4.544 -1.1893  0.4764  0.9023
 5400TIP3   OH237690   1.241   5.563   5.837  0.1286 -0.3514 -0.4498
 5400TIP3    H137691   1.242   5.651   5.799 -0.7476 -0.9120 -1.8042
 5400TIP3    H237692   1.156   5.527   5.813 -0.1571 -1.0367  1.4022
 5401TIP3   OH237693   2.902   5.788  13.830  0.3827  0.0375 -0.5151
 5401TIP3    H137694   2.940   5.814  13.746  1.1218  0.7926  0.0260
 5401TIP3    H237695   2.845   5.714  13.810 -0.7789  1.2635 -1.9426
 5402TIP3   OH237696   1.369   4.711  11.634  0.1800  0.1369 -0.1706
 5402TIP3    H137697   1.286   4.703  11.681  0.1013  1.0031 -0.1328
 5402TIP3    H237698   1.360   4.655  11.558 -0.1801 -0.2998  0.1889
 5403TIP3   OH237699   1.025   2.624   5.110 -0.5968 -0.4064  0.3615
 5403TIP3    H137700   1.066   2.707   5.136  0.7221 -1.0325  0.3919
 5403TIP3    H237701   1.089   2.583   5.052 -1.7066 -0.9178 -0.5353
 5404TIP3   OH237702   0.933   2.931  12.141  0.6855 -0.8115  0.5611
 5404TIP3    H137703   1.026   2.951  12.128  0.6576 -0.4081  0.9778
 5404TIP3    H237704   0.932   2.865  12.210  0.6902 -1.1714  0.2184
 5405TIP3   OH237705   1.502   6.115  11.110 -0.3367  0.0733 -0.1604
 5405TIP3    H137706   1.517   6.205  11.138 -3.1659  0.7365 -0.4154
 5405TIP3    H237707   1.494   6.065  11.191 -1.0539  0.5388  0.0669
 5406TIP3   OH237708   5.669   3.788   1.245 -0.6355  0.2982  0.6116
 5406TIP3    H137709   5.694   3.877   1.268 -2.0666  0.4962  1.5143
 5406TIP3    H237710   5.584   3.796   1.201 -0.5018 -0.5777  0.1470
 5407TIP3   OH237711   4.824   3.951  16.614  0.3713 -0.0354  0.3762
 5407TIP3    H137712   4.808   4.027  16.558 -0.5444 -1.4263 -1.3323
 5407TIP3    H237713   4.919   3.941  16.614  0.3983  0.0160 -0.9581
 5408TIP3   OH237714   6.793   4.226   2.065 -0.0162  0.0195  0.3571
 5408TIP3    H137715   6.859   4.244   1.998 -0.5059  1.0606  0.1385
 5408TIP3    H237716   6.817   4.139   2.099  1.0860  0.0979 -0.1566
 5409TIP3   OH237717   1.608   2.138   1.312  0.8630  0.2577  0.5295
 5409TIP3    H137718   1.596   2.195   1.236 -0.1902  0.6223  0.9486
 5409TIP3    H237719   1.547   2.066   1.297  2.4074 -0.9761 -0.1547
 5410TIP3   OH237720   1.331   6.684   5.402 -0.0703 -0.3658 -0.3366
 5410TIP3    H137721   1.296   6.682   5.491 -1.7728 -0.9825 -0.9759
 5410TIP3    H237722   1.426   6.689   5.414 -0.3327  2.0865  1.4871
 5411TIP3   OH237723   3.052   3.704   6.005  0.4083 -0.6636 -0.4435
 5411TIP3    H137724   3.098   3.755   6.072  0.7865 -0.9861 -0.4540
 5411TIP3    H237725   3.119   3.644   5.971  0.5192  0.1944 -1.8394
 5412TIP3   OH237726   2.711   6.441   1.859  0.6196  0.3776 -0.0522
 5412TIP3    H137727   2.776   6.405   1.798 -1.2726  0.9117 -2.5430
 5412TIP3    H237728   2.678   6.520   1.817 -1.2254  0.4636  1.3790
 5413TIP3   OH237729   2.841   1.704  14.768 -0.6107  0.4803 -0.0493
 5413TIP3    H137730   2.921   1.722  14.819 -2.5269  0.4173  3.2910
 5413TIP3    H237731   2.827   1.784  14.717  0.0561  1.6918  1.5534
 5414TIP3   OH237732   0.669   0.070   0.651  0.3147  0.0811 -0.4399
 5414TIP3    H137733   0.662   0.149   0.597 -1.4221  0.3858  0.1566
 5414TIP3    H237734   0.589   0.070   0.703  0.1889 -2.1852 -0.5429
 5415TIP3   OH237735   1.523   4.345   5.816  0.4435 -0.7189 -0.0770
 5415TIP3    H137736   1.516   4.260   5.773  2.0277 -1.0278  0.1837
 5415TIP3    H237737   1.438   4.360   5.856  0.0868 -2.0959 -0.2797
 5416TIP3   OH237738   6.118   2.932   4.368 -0.2813 -0.2171 -0.2269
 5416TIP3    H137739   6.041   2.967   4.324  1.4343  2.0151 -1.7253
 5416TIP3    H237740   6.138   2.851   4.322 -0.9617 -0.1057 -0.7289
 5417TIP3   OH237741   4.763   3.670  14.745  0.0890 -0.2659  0.3044
 5417TIP3    H137742   4.796   3.582  14.765 -0.8232 -1.1989 -1.9559
 5417TIP3    H237743   4.720   3.661  14.660  1.8308  2.8430 -1.0742
 5418TIP3   OH237744   4.989   1.025  16.385  0.1294 -0.1899 -0.0402
 5418TIP3    H137745   4.980   1.047  16.293 -1.2962 -2.7234 -0.5914
 5418TIP3    H237746   5.081   0.999  16.395  0.0637 -0.8576 -1.0147
 5419TIP3   OH237747   1.387   4.268   6.531  0.2161  0.2344 -0.6314
 5419TIP3    H137748   1.481   4.283   6.536  0.6775 -2.4687  0.6992
 5419TIP3    H237749   1.371   4.194   6.589 -2.4658 -0.5544 -2.1693
 5420TIP3   OH237750   4.085   4.997  17.206 -0.6106  0.0562  0.3236
 5420TIP3    H137751   4.001   5.027  17.173  0.9814  2.9942 -1.5047
 5420TIP3    H237752   4.114   4.932  17.142 -0.0436  1.6000 -1.0689
 5421TIP3   OH237753   3.888   1.296  15.247 -0.3830 -0.8366 -0.1521
 5421TIP3    H137754   3.915   1.271  15.335 -1.1211  0.2030  0.3902
 5421TIP3    H237755   3.888   1.392  15.248  1.7759 -0.7386 -1.9652
 5422TIP3   OH237756   0.911   1.386   1.428 -0.6306  0.0292  0.4658
 5422TIP3    H137757   0.887   1.296   1.407  0.6086  0.0441 -1.2583
 5422TIP3    H237758   1.006   1.388   1.420 -0.5927  1.3645  1.0075
 5423TIP3   OH237759   1.423   5.775  15.058  0.1463  0.0909  0.2187
 5423TIP3    H137760   1.419   5.860  15.103 -0.9731 -0.6765  1.6597
 5423TIP3    H237761   1.333   5.757  15.032  0.4767 -0.3873 -0.6267
 5424TIP3   OH237762   2.779   5.765   3.173 -0.4624  0.2117  0.1201
 5424TIP3    H137763   2.764   5.858   3.157 -0.6343 -0.2704 -3.3308
 5424TIP3    H237764   2.744   5.750   3.261 -1.9584  3.0743  0.1518
 5425TIP3   OH237765   6.549   0.330  16.378 -0.0353  0.0879  0.1199
 5425TIP3    H137766   6.638   0.295  16.373  0.5516  1.5866 -0.6071
 5425TIP3    H237767   6.558   0.421  16.349 -1.2346  1.2872  3.1232
 5426TIP3   OH237768   0.835   3.680   4.136  0.2747  0.0653 -0.0920
 5426TIP3    H137769   0.800   3.674   4.047 -1.4917  0.3599  0.5526
 5426TIP3    H237770   0.892   3.604   4.144  0.7885  0.2548 -1.6045
 5427TIP3   OH237771   4.370   4.498  16.291 -0.1076  0.2910 -0.2641
 5427TIP3    H137772   4.292   4.554  16.288 -0.0755  0.3156 -0.7499
 5427TIP3    H237773   4.337   4.410  16.273  0.2126  0.5679 -2.4678
 5428TIP3   OH237774   3.985   2.738   4.114  0.8762  0.2830  0.1756
 5428TIP3    H137775   3.971   2.792   4.037 -3.3460 -0.0438  0.4976
 5428TIP3    H237776   4.018   2.799   4.181 -1.7350  2.1305 -0.0761
 5429TIP3   OH237777   5.288   5.961   5.570 -0.1049 -0.3587 -0.7858
 5429TIP3    H137778   5.218   5.925   5.516 -2.0444  2.5884 -0.4370
 5429TIP3    H237779   5.246   5.978   5.655  0.9222  1.7468 -0.6513
 5430TIP3   OH237780   1.226   1.852  11.318  0.4262  0.3950  0.3558
 5430TIP3    H137781   1.151   1.891  11.272  0.9589  0.4446 -0.4939
 5430TIP3    H237782   1.267   1.795  11.253  2.1387  1.6828  0.2246
 5431TIP3   OH237783   4.710   4.741  16.776 -0.1977  0.0908  0.5980
 5431TIP3    H137784   4.763   4.662  16.781 -0.1063  0.2068  2.2712
 5431TIP3    H237785   4.663   4.734  16.693  3.1698  0.5084 -1.5258
 5432TIP3   OH237786   4.766   6.117  15.961 -0.3835  0.7548  0.0882
 5432TIP3    H137787   4.805   6.111  16.048  1.0631  0.5383 -0.5430
 5432TIP3    H237788   4.726   6.031  15.946 -1.4181  1.0811  0.8638
 5433TIP3   OH237789   4.896   1.351   5.058  0.2338 -0.5133 -0.1350
 5433TIP3    H137790   4.946   1.269   5.056 -0.4523 -1.0154  1.5898
 5433TIP3    H237791   4.867   1.359   5.149 -0.4622  1.2071 -0.4763
 5434TIP3   OH237792   4.310   4.397  11.752  0.2163  0.1654  0.2885
 5434TIP3    H137793   4.270   4.318  11.788 -0.1815 -0.1441 -0.7918
 5434TIP3    H237794   4.373   4.365  11.687  1.6547  0.6798  1.3961
 5435TIP3   OH237795   2.814   4.999  15.719 -0.5045 -0.0955  0.4562
 5435TIP3    H137796   2.760   4.947  15.659  0.5680 -0.6141 -0.0844
 5435TIP3    H237797   2.834   4.939  15.791 -1.3783  0.3758  1.1145
 5436TIP3   OH237798   6.189   0.385  16.318 -0.0337 -0.2424 -0.1452
 5436TIP3    H137799   6.195   0.295  16.351 -1.1444  0.5092  2.3264
 5436TIP3    H237800   6.195   0.440  16.396  1.1582  1.8997 -1.6417
 5437TIP3   OH237801   1.079   0.430   0.682 -0.0278  0.8931 -0.3884
 5437TIP3    H137802   1.081   0.399   0.591  0.2357 -2.5983  0.6640
 5437TIP3    H237803   1.032   0.361   0.730  2.4431  1.0770  2.6170
 5438TIP3   OH237804   6.117   0.713   5.006  0.6412  0.1193  0.2902
 5438TIP3    H137805   6.094   0.665   5.085  2.1518 -3.5438 -1.2642
 5438TIP3    H237806   6.211   0.699   4.996  0.5344  0.6322 -2.0225
 5439TIP3   OH237807   5.429   6.751  11.237  0.4001  0.0527 -0.1641
 5439TIP3    H137808   5.358   6.751  11.302 -1.1163  0.7190 -1.7423
 5439TIP3    H237809   5.436   6.660  11.209 -1.1247  0.2458 -1.2869
 5440TIP3   OH237810   2.060   3.720  12.302  0.1830 -0.2936 -0.2325
 5440TIP3    H137811   1.983   3.777  12.312 -0.7184 -1.3246 -1.0785
 5440TIP3    H237812   2.129   3.765  12.352 -0.6152  1.2872 -0.4749
 5441TIP3   OH237813   1.773   0.609  14.955 -0.6327 -0.0360 -0.0986
 5441TIP3    H137814   1.795   0.627  15.047 -1.8708  0.8617  0.0373
 5441TIP3    H237815   1.679   0.620  14.950 -0.3779  1.8264 -1.9053
 5442TIP3   OH237816   3.246   3.706  13.630  0.5016 -0.9056  0.2810
 5442TIP3    H137817   3.155   3.734  13.639  0.8483  0.3637  0.0253
 5442TIP3    H237818   3.241   3.611  13.622 -0.8755 -0.7766 -0.7541
 5443TIP3   OH237819   6.486   6.398  11.180  1.0500 -0.0485 -0.1498
 5443TIP3    H137820   6.488   6.402  11.084  1.3555 -1.3174 -0.2204
 5443TIP3    H237821   6.416   6.458  11.205 -0.2205 -0.9983 -1.2753
 5444TIP3   OH237822   3.777   4.904   5.601  0.0294 -0.2976  0.2634
 5444TIP3    H137823   3.794   4.942   5.687  0.7113  0.9956 -0.4008
 5444TIP3    H237824   3.864   4.893   5.562 -0.3031  0.0065 -0.5978
 5445TIP3   OH237825   5.311   0.989   0.832 -0.5386 -0.2109  0.2128
 5445TIP3    H137826   5.261   1.033   0.764 -0.9110 -1.8608 -0.6232
 5445TIP3    H237827   5.362   0.923   0.786 -0.5711 -1.1696  1.4843
 5446TIP3   OH237828   4.274   2.479   6.523  0.2875 -0.4384  0.3665
 5446TIP3    H137829   4.346   2.432   6.483  0.1963 -1.3602  1.2541
 5446TIP3    H237830   4.198   2.423   6.510 -0.2169  0.3844 -0.2977
 5447TIP3   OH237831   1.858   3.891  13.916  0.5887  0.7217 -0.3851
 5447TIP3    H137832   1.903   3.826  13.862  0.5622 -0.8396  1.3987
 5447TIP3    H237833   1.787   3.843  13.958  0.5786  1.8864  1.0029
 5448TIP3   OH237834   3.222   0.571  14.005 -0.2600 -0.2257 -0.7243
 5448TIP3    H137835   3.307   0.613  14.011  0.6279 -2.0910  1.3957
 5448TIP3    H237836   3.172   0.608  14.078 -0.2904 -1.0781 -0.2981
 5449TIP3   OH237837   6.214   5.835   2.322 -0.1839 -0.1636  0.1434
 5449TIP3    H137838   6.262   5.818   2.404 -0.9337  1.5650  0.9843
 5449TIP3    H237839   6.136   5.780   2.329  0.1480 -0.6329  0.2075
 5450TIP3   OH237840   2.044   6.657  10.683 -0.0919  0.5062 -0.0675
 5450TIP3    H137841   2.082   6.590  10.740  1.7721  3.0024  1.9161
 5450TIP3    H237842   1.986   6.609  10.624 -0.7557 -2.5165  2.7382
 5451TIP3   OH237843   1.393   5.639  16.421  0.1612 -0.0478  0.0140
 5451TIP3    H137844   1.488   5.628  16.415  0.1081 -1.2897  1.0340
 5451TIP3    H237845   1.369   5.679  16.337  1.6363  0.8609 -0.0303
 5452TIP3   OH237846   0.934   0.878  13.484  0.3199 -0.1020  0.2952
 5452TIP3    H137847   0.967   0.808  13.428  0.2442 -0.6759  0.9583
 5452TIP3    H237848   0.852   0.844  13.519  0.0791  0.4811  0.3138
 5453TIP3   OH237849   5.406   2.571   6.632 -0.3544  0.4145  0.0571
 5453TIP3    H137850   5.376   2.655   6.598  1.1988  0.7997 -0.4256
 5453TIP3    H237851   5.478   2.592   6.692 -0.0348 -0.5499  0.0419
 5454TIP3   OH237852   5.174   6.726   5.911  0.0471 -0.2218 -0.0355
 5454TIP3    H137853   5.106   6.758   5.971  0.6398 -0.4594  0.7775
 5454TIP3    H237854   5.182   6.795   5.845  0.7313  0.9599  1.2292
 5455TIP3   OH237855   2.056   0.255   1.404 -0.5076 -0.3621 -0.2363
 5455TIP3    H137856   2.076   0.347   1.422  2.2897 -0.7336 -0.9520
 5455TIP3    H237857   2.135   0.208   1.430 -1.1164 -2.3308 -1.7310
 5456TIP3   OH237858   4.610   6.636   5.227 -0.4856  0.2359 -0.2297
 5456TIP3    H137859   4.704   6.627   5.244 -0.2990  0.7390 -0.9424
 5456TIP3    H237860   4.574   6.669   5.309 -0.2370 -1.0894  0.4340
 5457TIP3   OH237861   0.850   2.586  16.023 -0.0090  0.3398  0.2312
 5457TIP3    H137862   0.792   2.663  16.015 -0.5574 -0.1492 -0.6527
 5457TIP3    H237863   0.938   2.622  16.018 -0.2488  0.9826  0.4720
 5458TIP3   OH237864   5.379   0.568  13.493 -0.6120 -0.1070  0.1582
 5458TIP3    H137865   5.371   0.646  13.548 -2.1918 -0.3888  0.3902
 5458TIP3    H237866   5.418   0.599  13.411 -1.2240  0.9384  0.2497
 5459TIP3   OH237867   3.574   2.240   2.488  0.4963 -0.0948  0.0881
 5459TIP3    H137868   3.586   2.146   2.497 -0.3042 -0.1073  1.1960
 5459TIP3    H237869   3.546   2.270   2.574 -0.9632  0.8921 -0.6907
 5460TIP3   OH237870   4.798   0.762  15.297  0.2269  0.3971  0.0239
 5460TIP3    H137871   4.802   0.685  15.353 -0.3992  0.8543  0.7105
 5460TIP3    H237872   4.801   0.836  15.357  1.1110  0.9274 -0.6389
 5461TIP3   OH237873   5.360   0.528   1.252  0.6583 -0.3184  0.3485
 5461TIP3    H137874   5.390   0.583   1.324  2.0491 -1.3392  0.5905
 5461TIP3    H237875   5.274   0.496   1.280 -0.5157  2.1964 -0.0945
 5462TIP3   OH237876   5.172   2.277  15.093 -0.0498  0.1496 -0.1130
 5462TIP3    H137877   5.178   2.193  15.047 -0.4719 -0.2123  0.4726
 5462TIP3    H237878   5.226   2.337  15.041 -0.4709 -0.2524 -1.0505
 5463TIP3   OH237879   6.630   4.445   3.419  0.5308  0.2946  0.2682
 5463TIP3    H137880   6.553   4.436   3.364 -1.1852  0.4356  2.5032
 5463TIP3    H237881   6.679   4.519   3.382 -1.4549  1.5084 -0.0497
 5464TIP3   OH237882   3.177   2.807  11.849 -0.2707  0.6808 -0.5754
 5464TIP3    H137883   3.225   2.845  11.775  0.7193  0.3128 -0.1492
 5464TIP3    H237884   3.101   2.765  11.810  0.0433  0.8017 -1.3397
 5465TIP3   OH237885   3.749   6.249  16.228  0.3824  0.1556  0.2033
 5465TIP3    H137886   3.832   6.209  16.252 -0.0122 -0.7204  0.1356
 5465TIP3    H237887   3.756   6.261  16.133  0.2556 -0.3465  0.1270
 5466TIP3   OH237888   6.294   6.723  15.602 -0.7507 -0.6296  0.0400
 5466TIP3    H137889   6.347   6.650  15.637 -1.6932 -0.5294  1.7893
 5466TIP3    H237890   6.344   6.801  15.624 -0.1367 -0.6712 -1.1170
 5467TIP3   OH237891   3.286   2.221  16.201  0.2097 -0.0863  0.1437
 5467TIP3    H137892   3.329   2.298  16.165  1.6361  0.0301  1.9314
 5467TIP3    H237893   3.249   2.251  16.284  0.3167 -1.1880  0.6063
 5468TIP3   OH237894   3.570   2.923  12.758  0.0167 -0.2114  0.3251
 5468TIP3    H137895   3.649   2.936  12.810  0.7198 -0.2238 -0.7216
 5468TIP3    H237896   3.534   2.840  12.791  0.9952 -0.7360  0.1204
 5469TIP3   OH237897   0.877   3.488  11.849 -0.0331 -0.2681 -0.1487
 5469TIP3    H137898   0.916   3.490  11.936 -1.8044  1.5687  0.6810
 5469TIP3    H237899   0.799   3.434  11.859 -0.3121  0.0556 -0.5610
 5470TIP3   OH237900   2.418   4.794  14.287  0.3741 -0.8629 -0.5791
 5470TIP3    H137901   2.497   4.743  14.267  2.3656  2.1625 -1.0341
 5470TIP3    H237902   2.387   4.823  14.201  1.0644  1.1000 -0.2065
 5471TIP3   OH237903   2.003   0.604   2.476  0.2806 -0.0986 -0.2311
 5471TIP3    H137904   1.923   0.557   2.503 -0.1691  1.3574  1.1055
 5471TIP3    H237905   2.000   0.604   2.381 -1.2667 -0.1708 -0.2051
 5472TIP3   OH237906   4.156   6.737   3.871 -0.4153 -0.3126 -0.2779
 5472TIP3    H137907   4.093   6.781   3.813 -0.0765 -0.5892 -0.8613
 5472TIP3    H237908   4.159   6.792   3.949 -2.1711 -0.8205  0.2183
 5473TIP3   OH237909   0.451   2.737   3.673  0.1746  0.2087 -0.5176
 5473TIP3    H137910   0.456   2.695   3.587  0.0160 -0.0274 -0.4135
 5473TIP3    H237911   0.376   2.795   3.668  0.4553  0.5605 -0.6958
 5474TIP3   OH237912   6.703   1.638  17.234 -0.0299  0.2090  0.0822
 5474TIP3    H137913   6.756   1.626  17.155 -2.2066 -0.9862 -1.3093
 5474TIP3    H237914   6.716   1.556  17.283 -1.5041 -0.6556 -0.9000
 5475TIP3   OH237915   1.511   1.645  16.149 -0.2875  0.0362  0.1159
 5475TIP3    H137916   1.513   1.737  16.123  1.4440  0.3143  1.0911
 5475TIP3    H237917   1.603   1.620  16.158 -0.6485 -2.2459 -1.5268
 5476TIP3   OH237918   5.622   0.459   1.635 -0.2315 -0.1314 -0.0283
 5476TIP3    H137919   5.587   0.467   1.724  0.3746  0.5446  0.1591
 5476TIP3    H237920   5.600   0.542   1.593 -2.3863 -1.2183 -1.2243
 5477TIP3   OH237921   5.360   3.232   0.901  0.2864 -0.6011 -0.0321
 5477TIP3    H137922   5.306   3.188   0.966  1.7431 -0.6610  1.2012
 5477TIP3    H237923   5.399   3.161   0.850  0.7315 -0.6498  0.3694
 5478TIP3   OH237924   4.923   4.389   1.715  0.2045  0.4599 -0.2315
 5478TIP3    H137925   5.002   4.417   1.668 -1.4308  0.5204 -3.1223
 5478TIP3    H237926   4.852   4.436   1.673 -1.5021 -0.1354  1.8315
 5479TIP3   OH237927   1.086   5.493  12.995  0.0292 -0.0409  0.0112
 5479TIP3    H137928   1.048   5.567  12.948  0.4711  1.3956  1.8065
 5479TIP3    H237929   1.096   5.524  13.085  2.4569 -1.4536  0.3077
 5480TIP3   OH237930   5.768   4.974   0.012  0.1931 -0.5776 -0.0194
 5480TIP3    H137931   5.809   4.933   0.088  1.5351  0.0018 -0.4040
 5480TIP3    H237932   5.833   5.037  -0.019 -0.9627  0.3112 -0.7201
 5481TIP3   OH237933   3.272   6.420   3.762 -0.3256  0.3810 -0.2608
 5481TIP3    H137934   3.309   6.414   3.674  0.4355  0.1485  0.0685
 5481TIP3    H237935   3.346   6.406   3.821 -1.1900 -1.8795  0.4031
 5482TIP3   OH237936   6.415   1.020   5.334 -0.2938 -0.0779 -0.2428
 5482TIP3    H137937   6.468   0.966   5.276  0.9484 -0.8687  1.5412
 5482TIP3    H237938   6.409   1.105   5.290  1.5350 -0.3268 -1.0139
 5483TIP3   OH237939   2.995   2.141  11.779 -0.3606  0.0903 -0.0711
 5483TIP3    H137940   2.972   2.208  11.715  0.9329 -0.4720 -1.1596
 5483TIP3    H237941   3.016   2.064  11.727  0.1295 -0.5745  1.0677
 5484TIP3   OH237942   0.801   6.649   6.205 -0.3734  0.0710 -0.4762
 5484TIP3    H137943   0.772   6.631   6.294 -0.7216  1.6930 -0.2345
 5484TIP3    H237944   0.880   6.595   6.194  0.4730  0.8773  1.2999
 5485TIP3   OH237945   5.473   0.169   3.199  0.1764  0.9967  0.0142
 5485TIP3    H137946   5.450   0.210   3.282  1.2324 -0.0635  0.8638
 5485TIP3    H237947   5.537   0.102   3.222 -0.2900 -0.0338 -1.5272
 5486TIP3   OH237948   6.796   5.420  13.112 -0.3947 -0.4215  0.3192
 5486TIP3    H137949   6.754   5.355  13.056 -1.3358 -1.2390  1.9007
 5486TIP3    H237950   6.836   5.482  13.051 -2.1140 -0.7823 -1.2791
 5487TIP3   OH237951   6.264   0.561   5.581  0.8074 -0.3480  0.3660
 5487TIP3    H137952   6.225   0.478   5.555 -0.2037 -0.1197  1.0660
 5487TIP3    H237953   6.290   0.602   5.499 -0.5130 -0.4904 -0.1512
 5488TIP3   OH237954   3.379   5.481  15.815 -0.5509 -0.1293 -0.0907
 5488TIP3    H137955   3.412   5.542  15.750  0.6569 -0.3129  0.3227
 5488TIP3    H237956   3.389   5.526  15.899 -0.6098 -0.4855  0.1126
 5489TIP3   OH237957   5.496   1.890   4.779 -0.0368 -0.6876  0.0676
 5489TIP3    H137958   5.432   1.822   4.800 -0.1755 -0.4243  0.4988
 5489TIP3    H237959   5.580   1.843   4.776 -0.2653 -1.0624 -0.6797
 5490TIP3   OH237960   5.954   5.756  12.388  0.1898  0.0751  0.7833
 5490TIP3    H137961   5.932   5.838  12.432 -0.1101 -0.1167  0.9891
 5490TIP3    H237962   5.915   5.688  12.442 -0.3618 -0.1559  0.1156
 5491TIP3   OH237963   2.846   1.735   6.265  0.4867 -0.3692 -0.3927
 5491TIP3    H137964   2.827   1.821   6.302  1.1739  0.1581 -1.2474
 5491TIP3    H237965   2.760   1.703   6.235 -0.0616 -0.7528  1.4806
 5492TIP3   OH237966   2.380   3.345   0.802  0.4394 -0.0523 -0.1200
 5492TIP3    H137967   2.428   3.425   0.781 -0.1425 -0.1342 -1.8756
 5492TIP3    H237968   2.415   3.279   0.742  1.5277 -1.4181  1.8600
 5493TIP3   OH237969   4.878   0.866  14.680  0.3274  0.7578 -0.3338
 5493TIP3    H137970   4.962   0.834  14.711 -0.0266 -0.3476 -0.4783
 5493TIP3    H237971   4.813   0.817  14.731 -0.2530 -0.4607 -2.1360
 5494TIP3   OH237972   6.027   5.599  14.597  0.4339 -0.3778 -0.1770
 5494TIP3    H137973   6.115   5.605  14.561 -0.5189 -0.6322 -2.7917
 5494TIP3    H237974   5.978   5.668  14.552 -0.5318  0.3503  1.8818
 5495TIP3   OH237975   3.206   4.125   4.560 -0.3534 -0.1652 -0.5393
 5495TIP3    H137976   3.161   4.193   4.610  1.8205  1.8265 -1.1482
 5495TIP3    H237977   3.268   4.087   4.622 -1.0788 -1.1633 -0.3992
 5496TIP3   OH237978   4.378   4.917   1.349  0.2021 -0.2748  0.2879
 5496TIP3    H137979   4.425   4.959   1.421 -2.0076  1.1475  0.9730
 5496TIP3    H237980   4.290   4.955   1.352 -0.7454 -2.1682 -1.5008
 5497TIP3   OH237981   4.214   0.209  13.288  0.1049  0.2850  0.1670
 5497TIP3    H137982   4.154   0.149  13.333  0.9465 -0.2526  0.5911
 5497TIP3    H237983   4.170   0.294  13.294 -0.5678 -0.0759  0.5632
 5498TIP3   OH237984   5.133   5.560   4.664 -0.0258  0.2384  0.0720
 5498TIP3    H137985   5.183   5.537   4.743  0.1608  0.3560 -0.0097
 5498TIP3    H237986   5.080   5.483   4.646  0.8428 -0.2745 -0.3943
 5499TIP3   OH237987   4.066   2.448  16.397 -0.1476 -0.3077  0.5353
 5499TIP3    H137988   3.972   2.433  16.407 -0.3952  0.1690 -0.8820
 5499TIP3    H237989   4.104   2.360  16.394 -0.7382 -0.5419 -0.4632
 5500TIP3   OH237990   2.792   5.031  16.410 -0.5815  0.2571 -0.0739
 5500TIP3    H137991   2.878   5.060  16.379  0.1820 -3.4352 -1.9527
 5500TIP3    H237992   2.731   5.061  16.343 -0.3263  0.3174 -0.2826
 5501TIP3   OH237993   2.002   6.084   5.300 -0.2351 -0.5617  0.0532
 5501TIP3    H137994   1.915   6.077   5.262 -0.7582 -3.0853  1.4526
 5501TIP3    H237995   2.062   6.086   5.225 -1.3366 -2.6280 -0.9649
 5502TIP3   OH237996   4.671   4.948   1.281  0.5293  0.2802  0.4654
 5502TIP3    H137997   4.695   4.865   1.323  1.5498  0.3002 -0.0657
 5502TIP3    H237998   4.579   4.936   1.256  0.1812 -0.0809  1.8369
 5503TIP3   OH237999   2.823   2.686  11.567 -0.2841 -0.0877  0.4777
 5503TIP3    H138000   2.734   2.650  11.567 -1.2028  2.0639 -0.1875
 5503TIP3    H238001   2.812   2.781  11.568  1.9962  0.2779 -0.5683
 5504TIP3   OH238002   1.957   4.077  11.002  0.1781 -0.2342  0.2815
 5504TIP3    H138003   1.989   3.997  10.960  0.5930  0.1973 -0.2374
 5504TIP3    H238004   1.862   4.072  10.992  0.2843  0.0800 -1.1702
 5505TIP3   OH238005   3.123   2.317   6.144  0.0784  0.4672 -0.0373
 5505TIP3    H138006   3.037   2.311   6.102 -0.3918  1.2112  0.7887
 5505TIP3    H238007   3.103   2.334   6.236  1.1006 -0.5433  0.3799
 5506TIP3   OH238008   4.192   2.377  12.296  0.4366 -0.2418 -0.1887
 5506TIP3    H138009   4.265   2.323  12.266  0.5321 -0.5968  0.6627
 5506TIP3    H238010   4.126   2.369  12.227  1.3114  0.3359 -1.1201
 5507TIP3   OH238011   3.598   5.784  12.302 -0.6064 -0.5031 -0.6795
 5507TIP3    H138012   3.519   5.761  12.255  0.0025 -1.4101 -1.2805
 5507TIP3    H238013   3.616   5.708  12.357 -0.3440 -0.1546 -0.2738
 5508TIP3   OH238014   3.182   0.326  15.845  0.1411 -0.1108  0.1514
 5508TIP3    H138015   3.271   0.314  15.811  0.1146  1.3077 -0.4891
 5508TIP3    H238016   3.193   0.385  15.920 -0.1883 -0.5737  0.5751
 5509TIP3   OH238017   1.307   0.064  14.781  0.5228 -0.0101  0.2316
 5509TIP3    H138018   1.389   0.114  14.786  0.2338  0.4262  0.6780
 5509TIP3    H238019   1.335  -0.027  14.775  1.0434  0.1311  0.4277
 5510TIP3   OH238020   4.975   6.658  12.781  0.2269  0.5096  0.5214
 5510TIP3    H138021   4.988   6.752  12.785  0.4250  0.5321 -0.5106
 5510TIP3    H238022   4.936   6.636  12.866  0.5219  1.4570  0.9174
 5511TIP3   OH238023   2.781   5.454  14.815  0.1483  0.3368  0.7164
 5511TIP3    H138024   2.754   5.450  14.907  2.7252 -2.5688  1.5461
 5511TIP3    H238025   2.781   5.363  14.786  2.8509  0.7500 -0.9783
 5512TIP3   OH238026   4.748   1.849  13.491 -0.2589 -0.1790  0.2741
 5512TIP3    H138027   4.714   1.894  13.414  0.1209 -0.5864 -0.1404
 5512TIP3    H238028   4.780   1.919  13.548  0.4025  0.0809 -0.3993
 5513TIP3   OH238029   1.521   3.812  16.826 -0.1754 -0.0464 -0.0086
 5513TIP3    H138030   1.491   3.887  16.878 -0.3288  0.1532 -0.3817
 5513TIP3    H238031   1.558   3.752  16.891 -0.8974 -0.0625  0.4031
 5514TIP3   OH238032   6.771   1.983   6.287  1.1496 -0.0386 -0.3943
 5514TIP3    H138033   6.717   2.049   6.331  0.3547 -2.7262  3.0507
 5514TIP3    H238034   6.839   1.962   6.350  0.8509 -3.1082 -0.9731
 5515TIP3   OH238035   4.610   1.498   3.262  0.2571 -0.3516 -0.0440
 5515TIP3    H138036   4.587   1.462   3.176  0.1864 -4.0815  1.3336
 5515TIP3    H238037   4.528   1.534   3.296  0.3250  1.3234 -1.5098
 5516TIP3   OH238038   2.651   6.439  12.190  0.4274  0.0991 -0.3957
 5516TIP3    H138039   2.621   6.494  12.118 -1.0611  0.7115  0.6473
 5516TIP3    H238040   2.590   6.457  12.261  0.8989 -1.6756  0.5175
 5517TIP3   OH238041   3.785   4.315   3.632 -0.1468  0.0271  0.0765
 5517TIP3    H138042   3.778   4.309   3.728  1.4489  2.2330  0.4245
 5517TIP3    H238043   3.815   4.229   3.605 -0.6967 -0.6719  1.5630
 5518TIP3   OH238044   3.116   5.958   1.651  0.6085  0.0291 -0.4477
 5518TIP3    H138045   3.150   6.016   1.583  2.9204 -0.8342 -0.1272
 5518TIP3    H238046   3.153   5.872   1.631  0.7125 -0.4171  1.4055
 5519TIP3   OH238047   3.003   3.220   1.062  0.0355  0.3588 -0.0459
 5519TIP3    H138048   3.072   3.213   1.128 -0.8039 -0.6988  0.7565
 5519TIP3    H238049   3.033   3.167   0.989  1.5475  2.5233 -1.1081
 5520TIP3   OH238050   6.596   1.466  12.236  0.2262 -0.0861  0.1704
 5520TIP3    H138051   6.583   1.450  12.330 -1.1926  0.1844  0.0315
 5520TIP3    H238052   6.689   1.491  12.229  0.2954  0.1062  1.5279
 5521TIP3   OH238053   3.576   3.320   1.730 -0.3472 -0.3569 -0.6038
 5521TIP3    H138054   3.490   3.349   1.758 -0.7065 -0.9844 -1.0356
 5521TIP3    H238055   3.608   3.266   1.802 -0.3092 -0.1235 -0.4438
 5522TIP3   OH238056   6.096   6.195   2.703 -0.1384 -0.0573 -0.9171
 5522TIP3    H138057   6.045   6.233   2.631  1.3992  2.3153 -0.9064
 5522TIP3    H238058   6.036   6.193   2.777 -1.0585 -0.2280 -1.6500
 5523TIP3   OH238059   2.242   4.700  13.258  0.1432 -0.6052 -0.5963
 5523TIP3    H138060   2.286   4.615  13.257  0.2954 -0.5277 -0.3993
 5523TIP3    H238061   2.154   4.681  13.290  0.3950 -0.5808  0.1161
 5524TIP3   OH238062   0.185   5.792   7.085  0.0255  0.1766 -0.6197
 5524TIP3    H138063   0.209   5.847   7.159 -0.8901  0.3019 -0.3946
 5524TIP3    H238064   0.097   5.823   7.060 -0.0482 -0.4564 -1.1851
 5525TIP3   OH238065   4.126   5.539   1.595  0.1958 -0.6624  0.2275
 5525TIP3    H138066   4.133   5.627   1.631  0.7944 -0.7580  0.3603
 5525TIP3    H238067   4.129   5.550   1.500  0.7093 -0.5730  0.2524
 5526TIP3   OH238068   6.300   5.791   2.055  0.1066 -0.2523  0.0824
 5526TIP3    H138069   6.292   5.807   2.149 -2.5786  0.2089 -0.1394
 5526TIP3    H238070   6.278   5.874   2.013  0.1518 -0.7405 -0.9661
 5527TIP3   OH238071   2.722   4.169  15.586 -0.1274  0.5048  0.0251
 5527TIP3    H138072   2.678   4.201  15.665 -0.0638 -0.6213  0.5459
 5527TIP3    H238073   2.815   4.175  15.606 -0.0816  1.0413 -0.3188
 5528TIP3   OH238074   2.881   3.433   0.826  0.5918 -0.1006  0.0972
 5528TIP3    H138075   2.815   3.386   0.878  1.2576 -0.2330  0.8377
 5528TIP3    H238076   2.833   3.506   0.787  0.1536  0.2287  1.2108
 5529TIP3   OH238077   1.629   5.121   1.359  0.3235 -0.2142 -0.0985
 5529TIP3    H138078   1.630   5.037   1.405  0.5124  0.2431  0.7456
 5529TIP3    H238079   1.629   5.097   1.266 -1.5258 -1.1635  0.0957
 5530TIP3   OH238080   4.705   2.334  17.135  0.2887  0.0666  0.5979
 5530TIP3    H138081   4.743   2.346  17.048  0.0260 -0.0522  0.4651
 5530TIP3    H238082   4.618   2.373  17.129  0.5394  0.7083  1.0200
 5531TIP3   OH238083   1.296   0.531  14.382 -0.4369 -0.3210  0.0212
 5531TIP3    H138084   1.279   0.608  14.437 -0.8779 -0.1059 -0.4115
 5531TIP3    H238085   1.280   0.561  14.293  0.9538 -0.4706 -0.3110
 5532TIP3   OH238086   5.139   6.797  15.230  0.6182  0.3873 -0.3812
 5532TIP3    H138087   5.189   6.718  15.254  0.9827  0.1464 -1.8300
 5532TIP3    H238088   5.067   6.764  15.176  0.8321  1.0406 -1.0829
 5533TIP3   OH238089   0.469   2.671   0.372  0.2130 -0.4493 -0.0730
 5533TIP3    H138090   0.375   2.682   0.384  0.3324 -0.6007  1.0868
 5533TIP3    H238091   0.507   2.692   0.458  1.3242  0.6680 -0.8004
 5534TIP3   OH238092   5.712   2.341  11.650 -0.1659 -0.2006 -0.2331
 5534TIP3    H138093   5.800   2.377  11.662  0.3509 -1.2950 -0.5256
 5534TIP3    H238094   5.692   2.300  11.735 -0.9862  1.2018  0.2905
 5535TIP3   OH238095   3.873   5.204   5.540 -0.3919  0.5418 -0.0519
 5535TIP3    H138096   3.817   5.148   5.486 -0.6187  0.7702 -0.0552
 5535TIP3    H238097   3.959   5.199   5.500  0.1481 -1.5686  1.1967
 5536TIP3   OH238098   0.463   3.309   2.119 -0.2926  0.0777  0.0338
 5536TIP3    H138099   0.555   3.332   2.124 -0.2417  0.1068 -0.8300
 5536TIP3    H238100   0.448   3.289   2.026 -0.8868 -1.0398  0.3467
 5537TIP3   OH238101   0.344   2.650   4.905 -0.0015  0.0604 -0.1070
 5537TIP3    H138102   0.370   2.561   4.929  1.2364  0.6682  0.9409
 5537TIP3    H238103   0.345   2.699   4.988 -0.3261  1.1320 -0.7078
 5538TIP3   OH238104   4.398   0.872  16.023  0.0872  0.5713 -0.2882
 5538TIP3    H138105   4.421   0.779  16.027 -1.4411  0.1321 -0.8394
 5538TIP3    H238106   4.435   0.910  16.102  1.1738 -0.4051 -0.3136
 5539TIP3   OH238107   4.822   4.138   1.655  0.0686 -0.2366  0.3039
 5539TIP3    H138108   4.893   4.076   1.640 -0.9286 -1.4243  0.2774
 5539TIP3    H238109   4.865   4.223   1.660  1.3066 -0.6949 -1.4271
 5540TIP3   OH238110   3.121   4.798  13.514 -0.1001 -0.1818  0.2165
 5540TIP3    H138111   3.141   4.808  13.421 -1.5712 -1.5107 -0.2928
 5540TIP3    H238112   3.110   4.704  13.526 -1.0698  0.0642  1.4846
 5541TIP3   OH238113   5.467   5.790  16.803  0.1402 -0.0737 -0.5837
 5541TIP3    H138114   5.472   5.701  16.768  2.4403 -0.0055 -0.5649
 5541TIP3    H238115   5.387   5.790  16.855 -0.0664 -2.0448 -0.8119
 5542TIP3   OH238116   5.922   1.036   4.372  0.2173 -0.4732 -0.2276
 5542TIP3    H138117   6.004   0.987   4.378  1.8545  2.0345 -0.9922
 5542TIP3    H238118   5.890   1.017   4.283  1.5816  0.8784 -1.0424
 5543TIP3   OH238119   6.652   1.014  12.380 -0.9823  0.2289  0.1737
 5543TIP3    H138120   6.716   1.082  12.358 -0.8326 -0.1067 -0.4717
 5543TIP3    H238121   6.655   0.954  12.305 -1.5359 -0.1727  0.4669
 5544TIP3   OH238122   0.403   4.640   3.019 -0.1330 -0.0615 -0.6586
 5544TIP3    H138123   0.391   4.552   2.984 -0.2898  0.5075 -2.0933
 5544TIP3    H238124   0.498   4.654   3.015  0.3628 -1.4412  2.9031
 5545TIP3   OH238125   3.860   2.498   1.161  0.1213 -0.7994 -0.2829
 5545TIP3    H138126   3.874   2.422   1.217 -1.5604 -1.7460 -1.0711
 5545TIP3    H238127   3.780   2.539   1.195  0.3778 -0.0522 -0.5606
 5546TIP3   OH238128   2.715   2.286  13.005  0.2037 -0.4708  0.5837
 5546TIP3    H138129   2.760   2.364  13.038 -0.1122 -0.3484  0.7296
 5546TIP3    H238130   2.622   2.308  13.010  0.1513 -0.4298 -0.4617
 5547TIP3   OH238131   3.435   4.048  12.725  0.1209 -0.4339  0.0206
 5547TIP3    H138132   3.432   3.957  12.753 -1.5174 -0.3435  0.2171
 5547TIP3    H238133   3.511   4.053  12.666  0.7872 -1.6902  0.7339
 5548TIP3   OH238134   2.393   3.636  12.081  0.4234  0.6555 -0.1104
 5548TIP3    H138135   2.442   3.698  12.135 -0.7289  0.5994  1.0421
 5548TIP3    H238136   2.394   3.554  12.131 -1.5217  0.8690  0.3700
 5549TIP3   OH238137   0.791   4.893   1.270  0.0835 -0.7231 -0.3181
 5549TIP3    H138138   0.876   4.857   1.293  0.3527  0.7476  1.1879
 5549TIP3    H238139   0.728   4.834   1.313  0.3083 -1.7900 -1.4040
 5550TIP3   OH238140   5.679   4.515  11.866  0.0417  0.2387  0.1161
 5550TIP3    H138141   5.650   4.457  11.796 -2.5000  0.2521  1.0314
 5550TIP3    H238142   5.681   4.459  11.944  0.6330  0.7162  0.4519
 5551TIP3   OH238143   2.328   2.775  14.565 -0.2001  0.0098 -0.6253
 5551TIP3    H138144   2.400   2.738  14.514 -0.0323  0.2240 -0.5472
 5551TIP3    H238145   2.326   2.723  14.646 -1.1073 -0.9776 -1.2640
 5552TIP3   OH238146   2.736   0.408  16.542 -0.2853 -0.5235  0.4255
 5552TIP3    H138147   2.681   0.330  16.554 -0.8738 -0.1525  0.2079
 5552TIP3    H238148   2.673   0.480  16.533  0.2003 -0.2431 -0.9566
 5553TIP3   OH238149   4.154   6.539  12.765  0.6487  0.2528  0.0105
 5553TIP3    H138150   4.198   6.548  12.849 -2.8520  1.0612  1.9488
 5553TIP3    H238151   4.132   6.446  12.759 -1.5789  0.6135  1.4957
 5554TIP3   OH238152   3.694   2.144  16.636 -0.4939  0.1408 -0.2151
 5554TIP3    H138153   3.630   2.115  16.702  0.9298  0.9868  1.6241
 5554TIP3    H238154   3.684   2.239  16.635  0.9907  0.3249  0.4211
 5555TIP3   OH238155   6.287   4.748  16.093 -0.6260  0.2904  0.6980
 5555TIP3    H138156   6.192   4.756  16.084 -0.7161  0.5884  1.7112
 5555TIP3    H238157   6.302   4.751  16.188  0.2374 -1.7973  0.6770
 5556TIP3   OH238158   4.538   6.207   2.890  0.3740  0.2438 -0.0033
 5556TIP3    H138159   4.594   6.171   2.959 -1.4297  0.7937  1.8228
 5556TIP3    H238160   4.449   6.190   2.919 -0.4760  1.8516 -1.4544
 5557TIP3   OH238161   1.298   2.346   4.752 -0.3230 -0.1136  0.1033
 5557TIP3    H138162   1.390   2.337   4.778 -0.2560 -1.0460 -0.4143
 5557TIP3    H238163   1.250   2.353   4.835  0.1576 -0.1641  0.3899
 5558TIP3   OH238164   5.539   3.420  13.157 -0.0773  0.4155 -0.1396
 5558TIP3    H138165   5.528   3.325  13.156  0.1636  0.2741  2.3707
 5558TIP3    H238166   5.625   3.435  13.119 -1.0526 -0.1143 -2.7113
 5559TIP3   OH238167   2.003   2.238   3.615 -0.3392  0.2930  0.4329
 5559TIP3    H138168   1.942   2.182   3.662 -0.3487 -1.2060 -1.2263
 5559TIP3    H238169   1.948   2.295   3.562 -0.4347 -1.3763 -1.4257
 5560TIP3   OH238170   1.560   0.669  11.714 -0.0607 -0.7406 -0.6003
 5560TIP3    H138171   1.619   0.635  11.647  1.8745 -0.5174  0.8971
 5560TIP3    H238172   1.505   0.595  11.738  3.7261 -3.0216  2.2690
 5561TIP3   OH238173   4.276   1.808  11.303  0.2723 -0.0863  0.7357
 5561TIP3    H138174   4.243   1.759  11.228  0.1511 -1.0979  1.4335
 5561TIP3    H238175   4.232   1.893  11.297 -1.3358 -0.8768  0.8117
 5562TIP3   OH238176   4.039   2.131  13.125 -0.4226  0.8061  0.3209
 5562TIP3    H138177   3.983   2.089  13.190  1.6419 -2.0485  0.4167
 5562TIP3    H238178   4.128   2.115  13.156  0.5806  0.8347 -2.3099
 5563TIP3   OH238179   0.063   0.179  12.905 -0.2084  0.2534 -0.4179
 5563TIP3    H138180   0.027   0.267  12.889  1.7321  0.8507 -1.8474
 5563TIP3    H238181   0.087   0.180  12.998 -1.4052  0.7501 -0.0903
 5564TIP3   OH238182   2.288   5.140  12.129  0.1121  0.1604  0.5800
 5564TIP3    H138183   2.354   5.096  12.076 -0.7986  1.3202 -1.6647
 5564TIP3    H238184   2.305   5.111  12.218  3.2730 -0.0032  0.0328
 5565TIP3   OH238185   4.101   5.330   6.215  0.0749  0.7472  1.3875
 5565TIP3    H138186   4.171   5.395   6.217  0.3658  0.5462 -0.6112
 5565TIP3    H238187   4.085   5.314   6.122  0.9598 -3.0137  1.7146
 5566TIP3   OH238188   0.665   3.698   5.803  0.2065  0.0374  0.2593
 5566TIP3    H138189   0.687   3.775   5.855 -0.1052  0.5306 -0.3278
 5566TIP3    H238190   0.633   3.634   5.867  0.6971  0.2954  0.7800
 5567TIP3   OH238191   1.879   2.477   1.788  0.0652  0.1223  0.1036
 5567TIP3    H138192   1.839   2.558   1.756 -0.8422  0.0554  1.0025
 5567TIP3    H238193   1.837   2.463   1.873  2.3268  0.2764  1.3090
 5568TIP3   OH238194   1.565   3.365   0.912  0.1954 -0.3786 -0.8823
 5568TIP3    H138195   1.490   3.414   0.878 -0.0953 -1.3841 -1.7096
 5568TIP3    H238196   1.584   3.407   0.997 -0.5784  0.6040 -1.1750
 5569TIP3   OH238197   2.365   4.061   3.441 -0.1716  0.7479 -0.6592
 5569TIP3    H138198   2.423   3.999   3.397  0.9011  1.6421 -0.5467
 5569TIP3    H238199   2.303   4.088   3.373 -1.7842 -1.7043 -0.2944
 5570TIP3   OH238200   5.585   1.619  13.658 -0.2733 -0.6424 -0.2566
 5570TIP3    H138201   5.651   1.677  13.621 -0.7478 -0.0978 -0.2521
 5570TIP3    H238202   5.531   1.592  13.583 -0.5050 -0.4850 -0.1491
 5571TIP3   OH238203   1.170   2.069   3.762  0.1556 -0.2004  0.3804
 5571TIP3    H138204   1.225   2.059   3.840 -1.7614 -0.2639  1.7955
 5571TIP3    H238205   1.166   2.163   3.748 -0.6933 -0.0781  1.3068
 5572TIP3   OH238206   0.892   6.606   2.422 -0.0660  0.1755  0.7592
 5572TIP3    H138207   0.987   6.591   2.421 -0.1438 -0.3793 -0.5771
 5572TIP3    H238208   0.855   6.526   2.460 -0.1175 -0.6413 -0.9236
 5573TIP3   OH238209   4.387   1.175   6.051 -0.3165  0.0743  0.0066
 5573TIP3    H138210   4.400   1.136   5.964 -0.5187  1.1971 -0.5365
 5573TIP3    H238211   4.295   1.158   6.071 -0.0045 -1.1673  0.5171
 5574TIP3   OH238212   2.474   5.167   2.056  0.2659  0.7677  0.2752
 5574TIP3    H138213   2.396   5.119   2.085  0.6117  0.2916  0.4248
 5574TIP3    H238214   2.542   5.143   2.119  1.0379 -0.3055 -0.9142
 5575TIP3   OH238215   0.014   1.966   5.342 -0.0462  0.2663 -0.0553
 5575TIP3    H138216   0.066   1.991   5.418  0.8034 -1.1525 -0.1311
 5575TIP3    H238217  -0.072   1.945   5.378 -0.3203  1.6968  0.1959
 5576TIP3   OH238218   2.852   0.055   5.699 -0.1706  0.0735  0.2790
 5576TIP3    H138219   2.829  -0.012   5.763 -1.7868  0.9396  0.6690
 5576TIP3    H238220   2.854   0.136   5.750 -0.1737  0.5891 -0.5307
 5577TIP3   OH238221   5.327   0.557  14.001 -0.6438 -0.0131  0.0249
 5577TIP3    H138222   5.317   0.533  13.909 -1.7355 -0.3881  0.2210
 5577TIP3    H238223   5.264   0.501  14.047 -0.6720  0.7201  0.9054
 5578TIP3   OH238224   1.671   2.037   4.783  0.5091  0.0788 -0.1092
 5578TIP3    H138225   1.697   2.061   4.694  0.7150  0.4224  0.0409
 5578TIP3    H238226   1.627   1.953   4.774  1.3667 -0.3442 -0.4101
 5579TIP3   OH238227   0.879   5.211  16.397  0.4018  0.6051 -0.5584
 5579TIP3    H138228   0.823   5.286  16.420  0.5473  0.6141 -0.2285
 5579TIP3    H238229   0.967   5.248  16.394  0.6231  0.2324  0.7063
 5580TIP3   OH238230   0.409   4.800  13.738 -0.0076  0.3876 -0.0183
 5580TIP3    H138231   0.374   4.744  13.807  2.2209  1.4556  2.1863
 5580TIP3    H238232   0.474   4.746  13.693  0.2895  0.4010  0.3871
 5581TIP3   OH238233   3.873   6.457  15.271  0.1119  0.1744 -0.2964
 5581TIP3    H138234   3.789   6.416  15.249  0.8455 -1.6540  0.1669
 5581TIP3    H238235   3.934   6.422  15.206  0.2585  2.7439 -1.6615
 5582TIP3   OH238236   4.873   4.839  11.775  0.0005 -0.2713 -0.2156
 5582TIP3    H138237   4.895   4.860  11.684  1.6771 -1.6385 -0.1781
 5582TIP3    H238238   4.864   4.744  11.777 -1.6702 -0.1240  0.7429
 5583TIP3   OH238239   3.535   2.407  17.000 -0.5733 -0.2426 -0.2147
 5583TIP3    H138240   3.550   2.502  16.995 -0.8573  0.0860  3.1855
 5583TIP3    H238241   3.619   2.370  17.024 -1.2963 -0.2880  2.5560
 5584TIP3   OH238242   1.139   1.392   2.991 -0.0044  0.3494  0.2591
 5584TIP3    H138243   1.099   1.305   2.996  0.9713 -0.1022  0.3874
 5584TIP3    H238244   1.092   1.443   3.057  0.5888 -0.5725  1.4413
 5585TIP3   OH238245   4.637   4.363  11.126  0.6243 -0.0451 -0.2999
 5585TIP3    H138246   4.610   4.445  11.166  0.6876  0.2087 -0.7629
 5585TIP3    H238247   4.729   4.377  11.102  0.2866  0.2307 -1.5430
 5586TIP3   OH238248   3.039   1.095   0.453 -0.3019 -0.3388  0.1479
 5586TIP3    H138249   3.004   1.051   0.376 -0.6399 -1.9704  1.1758
 5586TIP3    H238250   3.005   1.044   0.527  1.1155  0.3515  1.3243
 5587TIP3   OH238251   1.962   2.164  13.515 -0.3695  0.5692  0.2723
 5587TIP3    H138252   1.893   2.229  13.501  0.6189  1.7909  0.7529
 5587TIP3    H238253   2.043   2.217  13.521  0.3515 -0.6092  1.6520
 5588TIP3   OH238254   2.376   2.189  16.101 -0.3134 -0.1702 -0.1793
 5588TIP3    H138255   2.284   2.202  16.079 -0.2025 -0.1176 -0.6323
 5588TIP3    H238256   2.422   2.202  16.018  0.1623  0.4309  0.1724
 5589TIP3   OH238257   4.432   4.074  16.306 -0.1397 -0.1723 -0.0236
 5589TIP3    H138258   4.505   4.053  16.249  0.2799  0.2346  0.3562
 5589TIP3    H238259   4.457   4.039  16.392 -0.4577 -0.1677  0.0736
 5590TIP3   OH238260   0.667   4.121   2.229 -0.1218  0.0110 -0.2378
 5590TIP3    H138261   0.620   4.171   2.163 -0.2313  1.5315  0.9086
 5590TIP3    H238262   0.753   4.163   2.234 -0.4183  0.5314  1.1707
 5591TIP3   OH238263   6.134   6.719  12.688 -0.0791 -0.4663  0.1113
 5591TIP3    H138264   6.072   6.671  12.742 -1.5911  0.7082 -0.5290
 5591TIP3    H238265   6.178   6.778  12.749 -1.6669  0.7428  0.1355
 5592TIP3   OH238266   5.267   5.223   0.065 -0.0143 -0.2318  0.4443
 5592TIP3    H138267   5.340   5.285   0.055 -1.1601  0.9755 -1.1248
 5592TIP3    H238268   5.285   5.178   0.147  2.5986 -0.1423  0.0277
 5593TIP3   OH238269   2.321   6.714  17.170 -0.1548 -0.2113 -0.2386
 5593TIP3    H138270   2.342   6.778  17.102 -0.0695  1.9642  1.7104
 5593TIP3    H238271   2.388   6.728  17.238  0.6939 -3.3600 -0.2929
 5594TIP3   OH238272   2.867   5.929   2.889 -0.3975  0.1046 -0.1706
 5594TIP3    H138273   2.782   5.948   2.848 -0.5573  1.2300  0.6537
 5594TIP3    H238274   2.875   5.994   2.959  1.1814  0.0489 -0.2759
 5595TIP3   OH238275   5.220   0.025  12.060  0.0565  0.2761 -0.3972
 5595TIP3    H138276   5.225  -0.068  12.035  1.4050  0.7605 -2.1820
 5595TIP3    H238277   5.301   0.041  12.109 -1.1663  0.0651  1.8158
 5596TIP3   OH238278   2.149   5.827  15.293  0.6713  0.2376 -0.0314
 5596TIP3    H138279   2.092   5.762  15.253  1.0075 -0.7964  1.1063
 5596TIP3    H238280   2.132   5.907  15.244 -1.5220 -0.1191  0.0583
 5597TIP3   OH238281   3.130   1.168  14.344  0.0478 -0.0448 -0.3643
 5597TIP3    H138282   3.102   1.222  14.270  0.9126  0.8468 -0.0706
 5597TIP3    H238283   3.104   1.079  14.320  0.9530  0.1109 -2.0912
 5598TIP3   OH238284   3.460   6.207  13.562 -0.1999 -0.1746  0.2887
 5598TIP3    H138285   3.478   6.116  13.541  0.2100 -0.2711  1.0274
 5598TIP3    H238286   3.494   6.219  13.650 -0.3304  0.6709  0.2382
 5599TIP3   OH238287   1.090   1.277  13.797  0.3048 -0.0421 -0.4477
 5599TIP3    H138288   1.117   1.215  13.864  0.4451  1.0701  0.5539
 5599TIP3    H238289   1.155   1.267  13.727  0.8772 -0.3440  0.1193
 5600TIP3   OH238290   2.945   4.567  15.976 -0.4401 -0.2976 -0.4345
 5600TIP3    H138291   2.956   4.479  15.939 -0.7476  0.4918 -2.5784
 5600TIP3    H238292   3.032   4.589  16.010  0.2821 -0.5680 -1.9991
 5601TIP3   OH238293   2.386   6.589  14.696  0.3500 -0.5842 -0.7348
 5601TIP3    H138294   2.393   6.535  14.775  0.7470 -2.1566 -1.8065
 5601TIP3    H238295   2.295   6.580  14.669  0.1855  0.0458 -0.4107
 5602TIP3   OH238296   5.006   0.620   0.657  0.1575  0.0128 -0.3723
 5602TIP3    H138297   4.934   0.616   0.720  2.0926 -2.0773  1.8812
 5602TIP3    H238298   5.038   0.710   0.663 -0.8897  0.3602  0.2135
 5603TIP3   OH238299   1.532   2.971  15.398 -0.4987  0.2482 -0.3905
 5603TIP3    H138300   1.583   3.038  15.443  0.2717 -0.2176 -0.5594
 5603TIP3    H238301   1.555   2.889  15.442 -3.6828  0.3712  1.8697
 5604TIP3   OH238302   4.700   0.159  12.665 -0.3953 -0.1164 -0.6705
 5604TIP3    H138303   4.610   0.144  12.634 -0.0840 -0.5058 -1.4135
 5604TIP3    H238304   4.715   0.252  12.651 -0.3505 -0.2390 -1.4648
 5605TIP3   OH238305   0.078   6.018  16.080 -0.3918  0.0755 -0.0354
 5605TIP3    H138306   0.096   6.112  16.075  1.7582 -0.3321 -1.6381
 5605TIP3    H238307  -0.017   6.011  16.074 -0.5337  2.1161 -1.0591
 5606TIP3   OH238308   4.316   3.515   3.299  0.2813 -0.4659 -0.2215
 5606TIP3    H138309   4.354   3.489   3.383  0.3396  0.5216  0.0659
 5606TIP3    H238310   4.389   3.554   3.250 -0.2103  0.9247  0.1173
 5607TIP3   OH238311   0.119   6.351   1.858  0.1344 -0.4557  0.2859
 5607TIP3    H138312   0.040   6.386   1.816 -0.6444 -3.1502 -0.6699
 5607TIP3    H238313   0.142   6.418   1.923 -2.7948  0.5655  0.4700
 5608TIP3   OH238314   6.602   0.358   0.763  0.2085  0.2876 -0.5285
 5608TIP3    H138315   6.518   0.379   0.804 -0.1435  1.9375 -1.9906
 5608TIP3    H238316   6.664   0.355   0.835 -0.6003  1.9205  0.2745
 5609TIP3   OH238317   5.250   5.741   2.414 -0.2313  0.3188 -0.3386
 5609TIP3    H138318   5.318   5.705   2.357 -1.7803 -1.3282 -1.2643
 5609TIP3    H238319   5.214   5.665   2.459 -1.8476  1.0631 -0.3055
 5610TIP3   OH238320   2.795   0.390  14.252 -0.1306  0.1881  0.4464
 5610TIP3    H138321   2.708   0.356  14.231 -0.9799  0.6833  2.8362
 5610TIP3    H238322   2.786   0.485  14.245  0.2194  0.2381  0.6734
 5611TIP3   OH238323   4.834   2.469  14.865  0.8378  0.1057 -0.1396
 5611TIP3    H138324   4.832   2.373  14.875  0.6329  0.1968  0.8047
 5611TIP3    H238325   4.761   2.489  14.806  1.5671 -0.4073 -1.2496
 5612TIP3   OH238326   1.678   3.699  12.823 -0.1669  0.3531 -0.5239
 5612TIP3    H138327   1.635   3.654  12.896  0.0932 -2.1151 -1.8178
 5612TIP3    H238328   1.617   3.769  12.799 -1.6293 -0.6267  0.1916
 5613TIP3   OH238329   0.999   5.738  12.613  0.3003  0.1504 -0.3075
 5613TIP3    H138330   1.088   5.763  12.639  0.1755 -1.2655  1.7141
 5613TIP3    H238331   1.005   5.644  12.594 -0.5988  0.2249 -1.0243
 5614TIP3   OH238332   4.136   3.587   1.083 -0.5111 -0.3761 -0.1771
 5614TIP3    H138333   4.118   3.634   1.001 -1.8306  0.6050  0.6376
 5614TIP3    H238334   4.125   3.495   1.062 -2.0898 -0.0605 -0.8218
 5615TIP3   OH238335   6.329   2.021  11.439  0.0433 -0.0461  0.3189
 5615TIP3    H138336   6.242   1.982  11.447  0.3318 -0.7721 -0.0149
 5615TIP3    H238337   6.323   2.078  11.363  0.0009 -0.4873 -0.0113
 5616TIP3   OH238338   0.127   1.024  11.936  0.2447 -0.5924 -0.0445
 5616TIP3    H138339   0.200   1.070  11.896  0.5189 -1.3256 -0.3947
 5616TIP3    H238340   0.106   1.076  12.014  0.3440  0.2891 -0.5993
 5617TIP3   OH238341   5.259   2.664   1.700  0.2701 -0.5356  0.8707
 5617TIP3    H138342   5.267   2.574   1.729  0.8622 -0.0847  2.1605
 5617TIP3    H238343   5.193   2.702   1.758 -0.4221 -0.2800 -0.0526
 5618TIP3   OH238344   5.830   5.401  14.506 -0.4499  0.1296 -0.3276
 5618TIP3    H138345   5.877   5.457  14.567  0.2431  2.0027 -2.4442
 5618TIP3    H238346   5.869   5.314  14.517  1.2541  0.9358  0.2394
 5619TIP3   OH238347   4.939   3.736   0.834  0.2439 -0.5872 -0.1702
 5619TIP3    H138348   4.923   3.689   0.916 -1.4502 -0.8255 -0.5969
 5619TIP3    H238349   5.013   3.690   0.794  0.1701 -1.3651  0.5652
 5620TIP3   OH238350   2.696   3.720  17.398 -0.1998  0.7639  0.3586
 5620TIP3    H138351   2.757   3.647  17.384  0.2841  1.2781 -0.2940
 5620TIP3    H238352   2.667   3.710  17.488  1.1929  0.7614  0.8263
 5621TIP3   OH238353   6.205   4.189  13.227  0.0216 -0.1224  0.6960
 5621TIP3    H138354   6.197   4.094  13.218 -0.7925  0.0297 -0.3599
 5621TIP3    H238355   6.243   4.202  13.314  1.1297 -1.4496  0.4417
 5622TIP3   OH238356   5.814   3.382   3.149  0.8372  0.0057 -0.1782
 5622TIP3    H138357   5.895   3.351   3.108 -0.3276 -1.2961 -1.5995
 5622TIP3    H238358   5.816   3.477   3.138  1.5123 -0.1379 -1.4618
 5623TIP3   OH238359   3.897   3.758   4.236 -0.1302 -0.6274  0.2021
 5623TIP3    H138360   3.831   3.817   4.274  0.2640 -1.8617  3.1348
 5623TIP3    H238361   3.949   3.729   4.311  3.2053 -0.4806 -1.8529
 5624TIP3   OH238362   0.244   1.894  13.261  0.7901  0.2593 -0.6831
 5624TIP3    H138363   0.180   1.950  13.304  2.1024  0.6733  0.8563
 5624TIP3    H238364   0.203   1.808  13.258  0.5493  0.2429  1.3623
 5625TIP3   OH238365   5.169   3.989  14.414 -0.4891  0.2222  0.1782
 5625TIP3    H138366   5.145   3.920  14.476  1.5681  0.3519  1.1818
 5625TIP3    H238367   5.237   3.949  14.359  0.3728  1.2679  0.4496
 5626TIP3   OH238368   3.581   1.566   6.477 -0.1735 -0.1396 -0.4491
 5626TIP3    H138369   3.488   1.583   6.461 -0.5142 -0.9314  0.5986
 5626TIP3    H238370   3.583   1.479   6.517  0.5803  1.4258  3.3151
 5627TIP3   OH238371   6.643   0.051   5.960  0.3556  0.5034  0.0536
 5627TIP3    H138372   6.655  -0.039   5.990  0.9666  0.5363 -0.0777
 5627TIP3    H238373   6.731   0.083   5.945  0.2434  1.6590  1.6236
 5628TIP3   OH238374   2.251   6.282  14.623 -0.1380  0.0101 -0.0385
 5628TIP3    H138375   2.244   6.298  14.529 -0.6477 -0.0388 -0.0133
 5628TIP3    H238376   2.343   6.300  14.644 -0.4030  1.7198 -0.2323
 5629TIP3   OH238377   6.697   0.397   5.671 -0.7033  0.1506 -0.1109
 5629TIP3    H138378   6.774   0.440   5.707 -0.4311 -1.0666  0.8256
 5629TIP3    H238379   6.626   0.461   5.682 -0.8997 -0.4963  3.7023
 5630TIP3   OH238380   0.310   4.516   2.455  0.3139 -0.2387  0.4601
 5630TIP3    H138381   0.318   4.424   2.480  1.6422 -0.1346  0.4886
 5630TIP3    H238382   0.339   4.518   2.364  0.2291  0.1443  0.4423
 5631TIP3   OH238383   0.207   2.544   6.591 -0.4217 -0.0555  1.0930
 5631TIP3    H138384   0.238   2.633   6.577 -0.7478 -0.1455 -0.3315
 5631TIP3    H238385   0.129   2.536   6.536  0.3685 -1.6352  0.1386
 5632TIP3   OH238386   5.357   1.555  14.582  0.1001  0.7476 -0.4927
 5632TIP3    H138387   5.266   1.582  14.594  0.4547  1.4027  0.8876
 5632TIP3    H238388   5.394   1.552  14.670  1.4991  0.7798 -1.0427
 5633TIP3   OH238389   2.337   1.003  13.683 -0.1123  0.6595 -0.0098
 5633TIP3    H138390   2.407   1.048  13.636  0.5473 -0.7758 -0.4720
 5633TIP3    H238391   2.257   1.031  13.638  0.4643 -0.3063 -1.7353
 5634TIP3   OH238392   0.808   3.639   2.855  0.0155 -0.6823  0.1531
 5634TIP3    H138393   0.810   3.546   2.879 -1.9266 -0.1193  3.1162
 5634TIP3    H238394   0.717   3.655   2.829 -0.0381  0.5990  1.0215
 5635TIP3   OH238395   2.328   4.898  13.082 -0.4324 -0.0542  0.6500
 5635TIP3    H138396   2.380   4.843  13.023  0.6632  0.7514  0.8298
 5635TIP3    H238397   2.278   4.836  13.136 -0.5340 -0.8190 -0.3064
 5636TIP3   OH238398   4.897   4.953  16.262  0.6365  0.0942  0.0864
 5636TIP3    H138399   4.849   5.034  16.278  0.7248  0.5245 -1.7161
 5636TIP3    H238400   4.956   4.972  16.189  2.4290 -0.8966  1.1882
 5637TIP3   OH238401   4.720   3.330   5.770  0.8031 -0.1042 -0.5589
 5637TIP3    H138402   4.747   3.400   5.829  0.9028  0.0482 -0.7802
 5637TIP3    H238403   4.637   3.359   5.733  0.7848 -0.1570 -0.5595
 5638TIP3   OH238404   2.078   0.050   2.167 -0.3734 -0.1313 -0.4947
 5638TIP3    H138405   2.065   0.089   2.253  1.4534 -1.3746  0.4150
 5638TIP3    H238406   2.139  -0.022   2.182  1.1635  0.4945 -3.0322
 5639TIP3   OH238407   4.658   0.742   3.353  0.3393 -1.0340 -0.4590
 5639TIP3    H138408   4.681   0.734   3.260 -2.9769 -1.7173 -1.3591
 5639TIP3    H238409   4.636   0.653   3.380 -1.5651 -0.4490  0.0772
 5640TIP3   OH238410   0.448   5.902   1.712 -0.2766  1.0389 -0.0699
 5640TIP3    H138411   0.411   5.870   1.630 -1.0315  1.7058 -0.0097
 5640TIP3    H238412   0.385   5.969   1.741 -1.0427 -0.4906  2.0165
 5641TIP3   OH238413   4.659   0.465   2.910  0.3538 -0.0342 -0.1242
 5641TIP3    H138414   4.732   0.494   2.855 -0.4279 -0.2016 -1.2632
 5641TIP3    H238415   4.698   0.456   2.997  1.9520 -1.0828 -0.8891
 5642TIP3   OH238416   0.059   0.873   1.731  0.4627 -0.3676 -0.0150
 5642TIP3    H138417   0.029   0.796   1.682 -0.6116 -0.2853  0.5026
 5642TIP3    H238418   0.009   0.872   1.812  1.3389  0.1933  0.5472
 5643TIP3   OH238419   2.266   0.586   2.564  0.6548 -0.4504  0.7573
 5643TIP3    H138420   2.172   0.590   2.580  0.7609 -1.0926  1.6349
 5643TIP3    H238421   2.290   0.675   2.537 -0.0799 -0.1052  1.2145
 5644TIP3   OH238422   1.656   6.098  12.342  0.3268 -0.0851  0.1019
 5644TIP3    H138423   1.635   6.083  12.250  1.2779  1.6679 -0.4554
 5644TIP3    H238424   1.719   6.170  12.340 -1.2330  1.4403  2.2542
 5645TIP3   OH238425   5.715   0.560  10.971 -0.1062  0.4673 -0.0197
 5645TIP3    H138426   5.805   0.546  11.000 -0.3547  0.6492  0.8651
 5645TIP3    H238427   5.711   0.652  10.946  0.0862  0.3302 -0.5732
 5646TIP3   OH238428   4.197   3.579   3.998 -0.8696 -0.1507 -0.3736
 5646TIP3    H138429   4.113   3.536   4.008 -0.8017 -0.2921 -0.4124
 5646TIP3    H238430   4.183   3.668   4.032 -0.6245 -0.6375  1.0929
 5647TIP3   OH238431   4.577   4.365   3.092  0.3016  0.1144  0.2615
 5647TIP3    H138432   4.532   4.282   3.108 -0.7285  0.9013  1.6358
 5647TIP3    H238433   4.578   4.408   3.177  0.0584  1.8770 -0.5935
 5648TIP3   OH238434   5.272   5.728  11.760 -0.1737 -0.9181 -0.5107
 5648TIP3    H138435   5.212   5.663  11.723 -1.6893  1.1748 -1.9475
 5648TIP3    H238436   5.323   5.759  11.685  1.4445 -1.3150  0.3764
 5649TIP3   OH238437   1.964   1.194   4.992  0.2059 -0.3606 -0.4049
 5649TIP3    H138438   1.888   1.186   5.049  1.3531 -1.9819  0.9991
 5649TIP3    H238439   1.935   1.158   4.908 -0.8800  0.0479 -0.2182
 5650TIP3   OH238440   1.541   3.505  17.025 -0.0089  0.0650  0.3987
 5650TIP3    H138441   1.502   3.539  17.107 -1.7391 -0.4580 -0.1622
 5650TIP3    H238442   1.635   3.503  17.043 -0.1215  2.0732  1.5981
 5651TIP3   OH238443   2.964   0.383   2.421  0.3301  0.6379  0.0966
 5651TIP3    H138444   3.021   0.332   2.363 -1.5873 -1.7927  0.1829
 5651TIP3    H238445   2.974   0.342   2.507 -1.5731  0.0591  0.0865
 5652TIP3   OH238446   2.546   3.561   4.791  0.3910 -0.1009  0.3809
 5652TIP3    H138447   2.597   3.603   4.861  0.5360  1.7279 -0.7853
 5652TIP3    H238448   2.505   3.633   4.744  0.7014 -1.2466 -1.7422
 5653TIP3   OH238449   5.991   6.697  15.207 -0.6653 -0.3464 -0.0806
 5653TIP3    H138450   6.032   6.674  15.290  2.1246 -2.8533 -1.9359
 5653TIP3    H238451   6.062   6.735  15.155 -1.7151 -0.8740 -2.0282
 5654TIP3   OH238452   5.347   2.412  14.899  0.2538 -0.2379  0.3390
 5654TIP3    H138453   5.270   2.412  14.841 -0.0239 -0.6310  0.7040
 5654TIP3    H238454   5.407   2.350  14.858  0.6581  0.5414 -0.2981
 5655TIP3   OH238455   1.547   2.261  14.327  0.2551  0.1528  0.4010
 5655TIP3    H138456   1.472   2.201  14.323 -0.2894  0.8691 -0.5956
 5655TIP3    H238457   1.567   2.268  14.420 -1.8910  1.0816  0.8685
 5656TIP3   OH238458   4.082   1.669   4.584  0.0555 -0.3416  0.4383
 5656TIP3    H138459   4.102   1.584   4.544 -1.1042  0.3784 -1.8952
 5656TIP3    H238460   4.152   1.727   4.553 -2.1376  0.8222 -2.9604
 5657TIP3   OH238461   1.385   0.837   1.698  0.3707 -0.1875 -0.5314
 5657TIP3    H138462   1.341   0.803   1.620 -1.5302  1.4982 -0.2455
 5657TIP3    H238463   1.414   0.758   1.745  2.5460 -1.2591 -3.3780
 5658TIP3   OH238464   6.122   3.746  12.377  0.0750  0.8017 -0.1543
 5658TIP3    H138465   6.084   3.679  12.319  1.7662  0.7352 -1.2727
 5658TIP3    H238466   6.201   3.775  12.331  0.6549  1.8790  1.4322
 5659TIP3   OH238467   4.161   1.315   4.832 -0.0066 -0.1211  0.3342
 5659TIP3    H138468   4.133   1.406   4.822 -0.6745 -0.3010  0.5565
 5659TIP3    H238469   4.256   1.318   4.820 -0.0840  0.5338 -0.1477
 5660TIP3   OH238470   0.730   6.168  11.172 -0.1650  0.1914  0.1643
 5660TIP3    H138471   0.714   6.073  11.169  0.9063  0.0122 -0.5764
 5660TIP3    H238472   0.818   6.175  11.209 -0.7061  0.9710  1.3457
 5661TIP3   OH238473   4.183   2.477   5.525  0.0672 -0.3681 -0.0660
 5661TIP3    H138474   4.141   2.505   5.443 -0.7573  0.5896  0.6493
 5661TIP3    H238475   4.275   2.501   5.514 -0.3573  1.4409 -0.0426
 5662TIP3   OH238476   3.266   2.414  12.094  0.2175 -0.4275  0.4473
 5662TIP3    H138477   3.278   2.413  11.999  1.1441  0.0080  0.5457
 5662TIP3    H238478   3.314   2.491  12.124 -0.8009 -0.0504  1.1873
 5663TIP3   OH238479   2.971   0.729  15.072 -0.0015 -0.0724  0.5695
 5663TIP3    H138480   3.040   0.718  15.006  0.0212  1.3886  0.3127
 5663TIP3    H238481   3.005   0.686  15.150  0.5442 -0.6760  0.0128
 5664TIP3   OH238482   5.367   4.041   2.373  0.2541  0.3013  0.0609
 5664TIP3    H138483   5.326   4.093   2.305 -0.1463  1.8362  1.4089
 5664TIP3    H238484   5.443   4.092   2.401 -0.0586  0.1200  1.3201
 5665TIP3   OH238485   0.202   1.410   3.057  0.1228 -0.8415 -0.3532
 5665TIP3    H138486   0.140   1.414   3.130 -0.1029  1.6928 -0.6054
 5665TIP3    H238487   0.275   1.358   3.090 -0.7816 -1.2980  1.0137
 5666TIP3   OH238488   2.366   0.586  15.769 -0.4589 -0.1488 -0.0552
 5666TIP3    H138489   2.352   0.495  15.796 -1.4763  0.1160  0.3286
 5666TIP3    H238490   2.458   0.588  15.740  0.0610 -0.9184  1.4470
 5667TIP3   OH238491   3.299   3.891   4.410 -0.3446 -0.0424  0.1992
 5667TIP3    H138492   3.305   3.978   4.449 -0.5550 -0.5400  1.3817
 5667TIP3    H238493   3.205   3.878   4.395 -0.2961  0.0065 -0.1488
 5668TIP3   OH238494   4.753   3.260  14.344  0.3141  0.4742 -0.0665
 5668TIP3    H138495   4.760   3.316  14.267 -1.2916  2.4572  1.1174
 5668TIP3    H238496   4.659   3.253  14.361  0.4451 -2.4256  0.0399
 5669TIP3   OH238497   1.384   5.781   1.169  0.5956  0.1038  0.3110
 5669TIP3    H138498   1.445   5.712   1.194 -0.6613 -0.5640  1.6405
 5669TIP3    H238499   1.297   5.741   1.175 -0.0082  0.9589 -1.7904
 5670TIP3   OH238500   5.520   1.376  16.007  0.0503  0.4803 -0.2230
 5670TIP3    H138501   5.504   1.465  16.038 -0.9983  0.0333  0.6063
 5670TIP3    H238502   5.465   1.321  16.064 -2.1405 -0.4015 -2.9308
 5671TIP3   OH238503   2.985   6.763  17.160 -0.0538 -0.3434 -0.5457
 5671TIP3    H138504   2.921   6.801  17.100 -0.7188 -2.0552 -0.9605
 5671TIP3    H238505   2.944   6.767  17.246  0.9427  2.2114 -0.1005
 5672TIP3   OH238506   1.029   6.601  11.888 -0.6201 -0.6448  0.1246
 5672TIP3    H138507   1.100   6.624  11.949 -0.6598  2.0429 -0.6981
 5672TIP3    H238508   1.075   6.570  11.810 -0.1549  2.0012 -0.7759
 5673TIP3   OH238509   6.730   1.948   0.814  0.0031  0.3690  0.3678
 5673TIP3    H138510   6.795   1.997   0.863 -0.1213  0.9522 -0.0342
 5673TIP3    H238511   6.769   1.936   0.727 -0.4453  0.7778  0.1046
 5674TIP3   OH238512   4.535   6.673   1.626 -0.3842 -0.0261 -0.1343
 5674TIP3    H138513   4.581   6.735   1.683  0.8418  0.0657 -1.1684
 5674TIP3    H238514   4.531   6.717   1.541  0.2718 -1.2374 -0.8224
 5675TIP3   OH238515   1.421   3.217   3.513  0.5642 -0.5097 -0.3201
 5675TIP3    H138516   1.359   3.288   3.498  0.4317 -0.5624 -0.0169
 5675TIP3    H238517   1.495   3.238   3.455  0.0691 -0.6935 -1.0294
 5676TIP3   OH238518   4.385   1.867   0.062  0.1517 -0.2616 -0.2786
 5676TIP3    H138519   4.361   1.947   0.017 -1.0011 -0.0980  0.5706
 5676TIP3    H238520   4.480   1.864   0.057  0.2022  1.0802 -0.4682
 5677TIP3   OH238521   5.211   4.629  14.822  1.1822 -0.2892  0.1832
 5677TIP3    H138522   5.197   4.560  14.757  0.1892  0.7731 -0.7719
 5677TIP3    H238523   5.278   4.685  14.783  1.5402 -0.3573  0.6843
 5678TIP3   OH238524   3.470   2.593   1.533 -0.2152  0.7126 -0.2504
 5678TIP3    H138525   3.463   2.634   1.619  1.2973  0.7885 -0.1378
 5678TIP3    H238526   3.387   2.546   1.522 -0.5700  0.9879  1.0954
 5679TIP3   OH238527   5.872   0.324   5.193  0.2352  0.2588  0.0444
 5679TIP3    H138528   5.923   0.246   5.169 -0.3969 -0.5011  1.0943
 5679TIP3    H238529   5.825   0.347   5.113 -0.3498 -1.0709 -0.0191
 5680TIP3   OH238530   2.847   4.798  13.663 -0.2911  0.0793 -0.3552
 5680TIP3    H138531   2.796   4.767  13.588 -0.1608 -1.0236 -0.0117
 5680TIP3    H238532   2.932   4.822  13.627 -0.2734 -0.3199 -0.5837
 5681TIP3   OH238533   0.500   2.519   3.161  0.6044  0.4464  0.4949
 5681TIP3    H138534   0.588   2.548   3.137  0.2465 -0.3181 -2.1720
 5681TIP3    H238535   0.453   2.516   3.077 -0.8955 -2.5689  1.2884
 5682TIP3   OH238536   3.597   6.124  16.429  0.5915 -0.1440  0.2369
 5682TIP3    H138537   3.668   6.174  16.388 -1.0857  1.5422 -0.8219
 5682TIP3    H238538   3.630   6.035  16.435  2.8935  0.6391  0.0797
 5683TIP3   OH238539   4.400   2.335   1.360  0.3408  0.3626 -0.6834
 5683TIP3    H138540   4.372   2.427   1.362  2.1013  0.9206  0.3773
 5683TIP3    H238541   4.396   2.307   1.452  0.5202 -0.3916 -0.9010
 5684TIP3   OH238542   1.863   6.111  15.196 -0.0905 -0.3767 -0.5340
 5684TIP3    H138543   1.950   6.095  15.232  0.3154 -0.0589 -1.3701
 5684TIP3    H238544   1.804   6.097  15.270  0.9331  3.8324  1.3335
 5685TIP3   OH238545   0.614   3.284   1.147 -0.4396  0.6185  0.1723
 5685TIP3    H138546   0.672   3.320   1.080  0.5944 -1.3552 -0.0734
 5685TIP3    H238547   0.661   3.299   1.229  0.5203 -1.0089 -0.0299
 5686TIP3   OH238548   4.244   2.624  11.706 -0.3883  0.9121 -0.0794
 5686TIP3    H138549   4.287   2.539  11.712 -1.2308  0.3034 -1.9657
 5686TIP3    H238550   4.165   2.615  11.759  0.1709  0.9732  0.7820
 5687TIP3   OH238551   5.468   1.208  12.633 -0.6272  0.3152  0.1897
 5687TIP3    H138552   5.438   1.299  12.634 -2.1916 -0.1121 -1.6305
 5687TIP3    H238553   5.442   1.175  12.546  1.0611 -1.4958  0.3086
 5688TIP3   OH238554   4.326   0.905   0.803 -0.2092 -0.4028  0.5296
 5688TIP3    H138555   4.337   0.913   0.898 -0.3487  0.4607  0.4792
 5688TIP3    H238556   4.239   0.942   0.785 -1.4578 -3.1359  0.3911
 5689TIP3   OH238557   5.945   1.306  15.427  0.2597  0.6860  0.2918
 5689TIP3    H138558   5.963   1.393  15.391  1.2046  0.2126 -0.4285
 5689TIP3    H238559   6.007   1.297  15.500 -0.2095  0.8230  0.7114
 5690TIP3   OH238560   5.614   5.615  11.778 -0.1668 -0.8338 -0.8773
 5690TIP3    H138561   5.697   5.662  11.779  0.0634 -1.1899 -1.8886
 5690TIP3    H238562   5.553   5.674  11.734 -0.1088 -1.0845 -1.3096
 5691TIP3   OH238563   6.518   3.011   4.589 -0.6766  0.5786 -0.0769
 5691TIP3    H138564   6.526   3.013   4.684 -0.6893  2.6799 -0.0565
 5691TIP3    H238565   6.461   3.086   4.569 -0.1076  0.6013 -1.7654
 5692TIP3   OH238566   6.581   5.190   1.613 -0.5051 -0.0831  0.2822
 5692TIP3    H138567   6.515   5.142   1.564  0.3260 -1.0593  0.1020
 5692TIP3    H238568   6.637   5.230   1.546  0.6733 -1.4756  0.3995
 5693TIP3   OH238569   2.625   1.449   0.520 -0.1518  0.2041 -0.1032
 5693TIP3    H138570   2.638   1.507   0.444 -2.4222  2.0638  0.8089
 5693TIP3    H238571   2.647   1.362   0.487  0.5455  1.1589 -2.4090
 5694TIP3   OH238572   1.634   4.914   0.766  0.2897 -0.1630  0.1115
 5694TIP3    H138573   1.676   4.953   0.689  0.6419 -1.1189 -0.1955
 5694TIP3    H238574   1.579   4.984   0.801  2.5916  1.3469  0.9260
 5695TIP3   OH238575   0.142   4.639  16.794 -0.7327 -0.2273 -0.1302
 5695TIP3    H138576   0.208   4.708  16.780 -4.2268  2.9288 -3.4477
 5695TIP3    H238577   0.113   4.652  16.884  0.1291  1.2630 -0.0239
 5696TIP3   OH238578   3.030   2.636  10.483  0.1670  0.0656  0.3974
 5696TIP3    H138579   3.095   2.701  10.455  0.0644 -0.1001 -0.2420
 5696TIP3    H238580   3.039   2.565  10.419  1.6039 -1.4303  2.1589
 5697TIP3   OH238581   1.597   6.780  16.657  0.0881 -0.1192 -0.2425
 5697TIP3    H138582   1.674   6.752  16.705  0.4166  0.9183 -0.1353
 5697TIP3    H238583   1.589   6.873  16.676 -1.7561 -0.3889  0.5158
 5698TIP3   OH238584   1.081   3.110  15.052 -0.3613  0.0815 -0.0487
 5698TIP3    H138585   1.047   3.166  14.982 -2.3430  0.2102  0.9736
 5698TIP3    H238586   1.142   3.166  15.100 -0.4872  0.5934 -0.4785
 5699TIP3   OH238587   3.149   1.286  13.324  0.1166 -0.1112  0.2761
 5699TIP3    H138588   3.172   1.289  13.417  0.1981 -1.1424  0.2952
 5699TIP3    H238589   3.074   1.344  13.316  0.3235  0.2535  0.9222
 5700TIP3   OH238590   3.103   0.620  15.333  0.0626  0.0483  0.0370
 5700TIP3    H138591   3.191   0.654  15.317  0.7750 -1.4434  0.6583
 5700TIP3    H238592   3.072   0.669  15.409  0.2122  0.7855 -0.3586
 5701TIP3   OH238593   5.669   4.912   2.738  0.0256  0.2984 -0.1747
 5701TIP3    H138594   5.719   4.936   2.661  0.4289  1.1622  0.3506
 5701TIP3    H238595   5.686   4.818   2.749  0.0018  0.1762 -1.0961
 5702TIP3   OH238596   3.424   2.953   0.610 -0.3076 -0.1920  0.7005
 5702TIP3    H138597   3.470   3.011   0.671 -0.0570 -0.3548  0.6692
 5702TIP3    H238598   3.491   2.891   0.581 -0.0655  0.7274 -0.8069
 5703TIP3   OH238599   0.458   5.102   0.496  0.7235 -0.5998  0.5104
 5703TIP3    H138600   0.503   5.071   0.575  1.5984  0.1864  0.3333
 5703TIP3    H238601   0.524   5.154   0.449  0.8656 -2.6024 -1.7179
 5704TIP3   OH238602   1.749   5.125   0.299  0.3854  0.7073 -0.0931
 5704TIP3    H138603   1.800   5.180   0.239  0.2841  1.0784  0.1589
 5704TIP3    H238604   1.677   5.181   0.327 -2.4030 -0.8989 -3.3307
 5705TIP3   OH238605   1.602   5.183   1.618 -0.3195  0.2018 -0.0902
 5705TIP3    H138606   1.638   5.188   1.529  0.7573 -0.0032  0.3172
 5705TIP3    H238607   1.621   5.269   1.656 -0.9253  0.3467 -0.1041
 5706TIP3   OH238608   5.497   5.974  14.171 -0.5139  0.8232  0.6597
 5706TIP3    H138609   5.445   5.921  14.231 -1.5881  0.3908 -0.5877
 5706TIP3    H238610   5.573   5.921  14.150 -0.6831  0.5247  0.8005
 5707TIP3   OH238611   4.825   6.409   3.106 -0.0035  0.2070 -0.3902
 5707TIP3    H138612   4.796   6.499   3.095  0.2402  0.0995 -2.1123
 5707TIP3    H238613   4.796   6.364   3.027  2.9612 -0.3830 -1.2688
 5708TIP3   OH238614   1.290   2.101  16.031  0.1954 -0.4108 -0.4478
 5708TIP3    H138615   1.294   2.031  16.096  2.4199 -0.7248 -0.8520
 5708TIP3    H238616   1.283   2.182  16.082  1.4376 -0.6832  0.1973
 5709TIP3   OH238617   6.784   5.362   3.041 -0.1708 -0.0868 -0.0728
 5709TIP3    H138618   6.845   5.338   3.111 -2.0528 -0.0254  1.6896
 5709TIP3    H238619   6.738   5.281   3.021 -2.3728  0.6444  1.6411
 5710TIP3   OH238620   2.352   5.461   1.738 -0.1874  0.2768  0.8956
 5710TIP3    H138621   2.396   5.459   1.823 -0.3455 -4.1473  1.1496
 5710TIP3    H238622   2.259   5.460   1.759 -0.3694  2.7889  0.4866
 5711TIP3   OH238623   3.307   5.270   0.282  0.1777  0.7930 -0.8374
 5711TIP3    H138624   3.394   5.264   0.323 -0.5814  1.3628  0.9818
 5711TIP3    H238625   3.300   5.190   0.230  1.0242 -0.2931  0.6128
 5712TIP3   OH238626   5.124   2.119   1.053 -0.0359 -0.1902 -0.5937
 5712TIP3    H138627   5.155   2.136   1.142  0.9284  0.7404 -1.0842
 5712TIP3    H238628   5.032   2.092   1.064  0.9204 -3.2523  0.9226
 5713TIP3   OH238629   5.097   0.340   2.734 -0.3438  0.0814 -0.0898
 5713TIP3    H138630   5.188   0.341   2.703  0.0354  0.7633  0.9723
 5713TIP3    H238631   5.097   0.277   2.806 -0.3444  1.1504  0.8801
 5714TIP3   OH238632   0.002   5.526  16.023  0.2006 -0.2692 -0.3028
 5714TIP3    H138633  -0.016   5.433  16.007  0.3318 -0.4472  0.5382
 5714TIP3    H238634  -0.082   5.563  16.050  0.0103 -0.0014 -1.2382
 5715TIP3   OH238635   5.954   1.895   6.212 -0.0429  0.2953 -0.0863
 5715TIP3    H138636   5.986   1.970   6.162 -0.4076  0.8316  0.4707
 5715TIP3    H238637   5.868   1.876   6.174 -0.4954  0.9584  0.5938
 5716TIP3   OH238638   1.254   3.533  13.055  0.4014 -0.0645  0.2160
 5716TIP3    H138639   1.178   3.476  13.040  0.8296  0.0734 -3.1291
 5716TIP3    H238640   1.243   3.564  13.145 -3.0131 -0.7422  0.1688
 5717TIP3   OH238641   1.115   4.695   5.434  0.4049 -0.4521 -0.4721
 5717TIP3    H138642   1.144   4.643   5.359  0.3661 -0.4620 -0.4799
 5717TIP3    H238643   1.195   4.708   5.486  0.4962 -0.1719 -0.6804
 5718TIP3   OH238644   0.948   1.046  12.795  0.1159  0.5635  0.2614
 5718TIP3    H138645   0.923   0.988  12.723 -2.0162  1.4291  0.2601
 5718TIP3    H238646   1.028   1.089  12.764  1.7407 -2.1968  0.2223
 5719TIP3   OH238647   5.683   1.831   2.376  0.6786  0.0987 -0.3708
 5719TIP3    H138648   5.778   1.840   2.369  0.4975  2.7124 -0.3539
 5719TIP3    H238649   5.652   1.838   2.285  0.4041  1.3821 -0.1981
 5720TIP3   OH238650   4.628   0.217  14.303  0.1326  0.8986  0.1092
 5720TIP3    H138651   4.608   0.307  14.277 -0.1906  0.3726 -1.5944
 5720TIP3    H238652   4.707   0.195  14.253  0.7598  0.5122  1.2146
 5721TIP3   OH238653   3.689   1.645  13.289  0.0939 -0.1488  0.5541
 5721TIP3    H138654   3.730   1.707  13.229 -1.1965  1.3096  1.1111
 5721TIP3    H238655   3.595   1.660  13.279 -0.1927  1.0981  3.7794
 5722TIP3   OH238656   1.320   2.090  15.021 -0.3814 -0.3053 -0.3500
 5722TIP3    H138657   1.229   2.116  15.036 -0.3394 -0.2327 -0.2184
 5722TIP3    H238658   1.366   2.172  15.001 -0.2479 -0.2781  0.0691
 5723TIP3   OH238659   0.472   5.633   6.124 -0.0606  0.1487 -0.9587
 5723TIP3    H138660   0.504   5.548   6.154 -1.1007 -0.5863 -1.8256
 5723TIP3    H238661   0.546   5.692   6.134  0.4741 -0.7083  0.3082
 5724TIP3   OH238662   5.959   3.452   0.681 -0.5281  0.4386 -0.3366
 5724TIP3    H138663   5.935   3.359   0.688  0.1593  0.2317 -0.6303
 5724TIP3    H238664   5.923   3.480   0.597 -0.7395  0.4412 -0.2460
 5725TIP3   OH238665   3.276   1.548  15.875 -0.1831  1.0383 -0.6629
 5725TIP3    H138666   3.266   1.565  15.969  0.3358 -2.1970  0.1095
 5725TIP3    H238667   3.363   1.583  15.854  1.0429 -0.8539  0.8894
 5726TIP3   OH238668   0.565   1.500  12.771  0.5108 -0.3368 -0.4255
 5726TIP3    H138669   0.582   1.504  12.865  0.9992  1.9511 -0.5479
 5726TIP3    H238670   0.649   1.478  12.731  0.4999 -0.4834 -0.3650
 5727TIP3   OH238671   2.000   6.786   6.096 -0.4364  0.0004 -0.0566
 5727TIP3    H138672   2.076   6.738   6.128  0.4044 -0.0511 -1.9624
 5727TIP3    H238673   1.929   6.762   6.155  0.5704 -1.5219  0.5922
 5728TIP3   OH238674   6.106   3.058   4.603  0.2282  0.0787 -0.0690
 5728TIP3    H138675   6.101   2.995   4.531 -1.3020 -0.0098  0.0895
 5728TIP3    H238676   6.022   3.102   4.602  0.2290  0.1720  1.5917
 5729TIP3   OH238677   6.675   4.136  13.915 -0.0929  0.0568 -0.5884
 5729TIP3    H138678   6.646   4.224  13.939 -0.8036  0.0008 -1.2064
 5729TIP3    H238679   6.713   4.147  13.827 -1.9219 -0.5613 -1.5099
 5730TIP3   OH238680   3.274   1.294   3.716 -0.3247 -0.3102 -0.4007
 5730TIP3    H138681   3.272   1.255   3.628  0.0066 -1.1182 -0.0581
 5730TIP3    H238682   3.345   1.357   3.712 -1.1029  0.5575 -1.0739
 5731TIP3   OH238683   1.243   1.469   1.461 -0.0291  0.0648  0.2444
 5731TIP3    H138684   1.202   1.447   1.378  1.1805  0.1515 -0.3982
 5731TIP3    H238685   1.310   1.535   1.438  0.7859 -0.4146  1.1633
 5732TIP3   OH238686   3.819   6.328   3.488  0.1410  0.3142 -0.3265
 5732TIP3    H138687   3.869   6.352   3.411 -0.5931  0.5084 -0.7541
 5732TIP3    H238688   3.765   6.254   3.460  1.1383 -0.7655  0.5007
 5733TIP3   OH238689   4.819   2.331  16.134 -0.7787  0.5773 -0.0335
 5733TIP3    H138690   4.894   2.388  16.153 -0.6222 -0.0446  1.3304
 5733TIP3    H238691   4.858   2.250  16.102 -0.8297  0.1305  0.9972
 5734TIP3   OH238692   0.286   0.137  14.611  0.2674 -0.2588  0.1960
 5734TIP3    H138693   0.265   0.198  14.682 -2.2831 -2.0557  1.1086
 5734TIP3    H238694   0.307   0.055  14.654 -1.3468 -1.3984 -1.0771
 5735TIP3   OH238695   2.721   4.555   5.373 -0.0812  0.3602  1.1053
 5735TIP3    H138696   2.788   4.570   5.307  0.0166 -0.0468  1.1080
 5735TIP3    H238697   2.741   4.617   5.443 -1.5651  2.4886 -0.2283
 5736TIP3   OH238698   3.888   2.245  11.393 -0.4933  0.2244  0.1212
 5736TIP3    H138699   3.979   2.218  11.405 -0.4782 -0.4403 -1.2403
 5736TIP3    H238700   3.856   2.262  11.481  0.5633 -0.8155  0.7390
 5737TIP3   OH238701   3.912   6.658   0.121 -0.2109  0.0730 -0.1721
 5737TIP3    H138702   3.971   6.670   0.047  0.5117 -1.4151  0.1087
 5737TIP3    H238703   3.850   6.590   0.092 -0.6039  0.2656  0.1980
 5738TIP3   OH238704   2.860   4.457  10.612  0.0549 -0.2238 -0.5191
 5738TIP3    H138705   2.920   4.391  10.577 -1.0255 -1.4223 -0.1865
 5738TIP3    H238706   2.836   4.425  10.699  1.4861  1.9285  0.7778
 5739TIP3   OH238707   2.863   6.467  14.328  0.2054 -0.3739  0.6566
 5739TIP3    H138708   2.817   6.503  14.403 -2.0021 -0.5265 -0.5617
 5739TIP3    H238709   2.952   6.452  14.360 -0.2607  0.9781  2.7696
 5740TIP3   OH238710   1.965   1.015  12.412 -0.4104 -0.1212 -0.1219
 5740TIP3    H138711   1.965   1.090  12.472 -0.0775  1.2465 -1.7479
 5740TIP3    H238712   1.940   1.052  12.328  0.1728 -1.7759 -1.0662
 5741TIP3   OH238713   6.367   3.280  11.014 -0.0696  0.4901  0.7772
 5741TIP3    H138714   6.295   3.219  11.023  0.8779 -0.7271  0.3933
 5741TIP3    H238715   6.436   3.230  10.970  1.3833  1.2864  2.0459
 5742TIP3   OH238716   5.090   1.209   6.217  0.4357 -0.1830  0.2718
 5742TIP3    H138717   5.057   1.125   6.247  0.2413 -0.2025  0.0056
 5742TIP3    H238718   5.041   1.227   6.137  0.3470  0.2651  0.4230
 5743TIP3   OH238719   5.557   2.260  12.051 -0.5268 -0.0363  0.0626
 5743TIP3    H138720   5.489   2.296  12.107  0.2654  1.8674 -0.1162
 5743TIP3    H238721   5.581   2.332  11.993  1.3348 -0.7885 -0.1711
 5744TIP3   OH238722   0.607   6.040   1.437 -0.6750 -0.2276 -0.2168
 5744TIP3    H138723   0.555   6.119   1.451  0.4340  0.6881 -1.0830
 5744TIP3    H238724   0.547   5.979   1.394 -1.2542  0.5257 -0.5031
 5745TIP3   OH238725   4.270   3.462  15.797 -0.1279  0.1900 -0.5124
 5745TIP3    H138726   4.274   3.499  15.885 -1.4267 -0.4197 -0.1726
 5745TIP3    H238727   4.257   3.537  15.739  0.8358  0.6059 -0.2137
 5746TIP3   OH238728   1.781   4.493  13.530  0.8441 -1.0290 -0.3041
 5746TIP3    H138729   1.762   4.435  13.456 -3.0750  1.0516 -1.1740
 5746TIP3    H238730   1.851   4.550  13.498 -0.4181 -0.4945 -2.3270
 5747TIP3   OH238731   2.283   0.823  12.185 -0.9496 -0.0464  0.4764
 5747TIP3    H138732   2.227   0.757  12.228 -2.8569  1.4428  0.4130
 5747TIP3    H238733   2.324   0.870  12.257 -1.1582 -0.0085  0.5707
 5748TIP3   OH238734   3.606   1.644   4.339  0.0905  0.0185 -0.8691
 5748TIP3    H138735   3.626   1.722   4.392 -0.0180 -0.3609 -0.2581
 5748TIP3    H238736   3.604   1.676   4.249  1.3778  0.4674 -0.7537
 5749TIP3   OH238737   6.307   4.750   3.028  0.3818  0.5764 -0.2977
 5749TIP3    H138738   6.244   4.718   3.093  2.0861 -0.8099  0.7897
 5749TIP3    H238739   6.266   4.733   2.943 -0.5501 -0.6481  0.3753
 5750TIP3   OH238740   3.693   5.321  16.187 -0.3654 -0.3440 -0.0558
 5750TIP3    H138741   3.687   5.389  16.255  0.8403 -1.8055  1.6155
 5750TIP3    H238742   3.780   5.283  16.200 -0.2064 -0.8419 -2.3088
 5751TIP3   OH238743   1.045   3.515   1.008 -0.3176  0.2375 -0.6789
 5751TIP3    H138744   1.091   3.501   0.925 -1.3750  1.9254 -1.6059
 5751TIP3    H238745   1.101   3.574   1.058  1.4460 -2.5295  0.8871
 5752TIP3   OH238746   5.877   5.987  16.754 -0.5138  0.1490 -0.5707
 5752TIP3    H138747   5.891   6.067  16.704 -0.3229 -1.8293 -3.9415
 5752TIP3    H238748   5.961   5.943  16.752 -0.9842 -0.8081  0.0412
 5753TIP3   OH238749   4.953   3.788  13.898 -0.0035 -0.3465 -0.1232
 5753TIP3    H138750   4.944   3.816  13.807  0.5825  0.6651  0.1129
 5753TIP3    H238751   4.998   3.860  13.941 -2.4958  0.3443  1.5494
 5754TIP3   OH238752   2.176   5.719  13.992 -0.2432  0.0685  0.1139
 5754TIP3    H138753   2.120   5.731  13.915  1.7374 -1.4111 -1.6685
 5754TIP3    H238754   2.199   5.626  13.991  0.7006  0.2337  1.8965
 5755TIP3   OH238755   0.955   6.484  14.427 -0.5792  0.3257  0.2988
 5755TIP3    H138756   1.008   6.530  14.493  0.0715  0.5182 -0.3332
 5755TIP3    H238757   0.986   6.520  14.344  0.1411 -1.4608 -0.2429
 5756TIP3   OH238758   0.189   0.051  17.042 -0.3892  0.1289  0.2041
 5756TIP3    H138759   0.220   0.046  17.133 -0.1359 -0.2587  0.0983
 5756TIP3    H238760   0.254   0.107  16.998  2.0771 -3.1961 -0.7759
 5757TIP3   OH238761   1.377   5.658   3.907 -0.3622 -0.0584  0.2967
 5757TIP3    H138762   1.393   5.743   3.948 -0.4858  0.5396 -0.8747
 5757TIP3    H238763   1.465   5.625   3.886 -0.3009 -0.3430  0.9648
 5758TIP3   OH238764   0.046   4.165   5.474  0.1587 -0.4289  0.0629
 5758TIP3    H138765  -0.028   4.105   5.469  0.5378 -0.8455 -0.8480
 5758TIP3    H238766   0.046   4.209   5.389  1.5121 -1.1279 -0.3265
 5759TIP3   OH238767   2.129   4.427   4.260  0.0410  0.6830  0.0505
 5759TIP3    H138768   2.052   4.478   4.235  0.7756  2.6683  1.5701
 5759TIP3    H238769   2.093   4.342   4.285 -1.2557  0.4172 -2.3263
 5760TIP3   OH238770   1.692   3.831  15.538 -0.0491 -0.1515  0.0916
 5760TIP3    H138771   1.598   3.817  15.552  0.1577 -0.9712  0.7905
 5760TIP3    H238772   1.722   3.752  15.494  0.3773 -0.0711  0.2289
 5761TIP3   OH238773   6.411   1.499   1.097 -0.1425  0.2468 -0.5410
 5761TIP3    H138774   6.426   1.501   1.192  0.0925 -0.6488 -0.5529
 5761TIP3    H238775   6.494   1.530   1.059 -0.3989  1.0739 -0.4538
 5762TIP3   OH238776   3.544   0.072   2.033  0.0704  0.1494  0.2405
 5762TIP3    H138777   3.576   0.060   1.943  0.4335  0.8162  0.2681
 5762TIP3    H238778   3.624   0.074   2.086 -0.2259 -2.2042  0.8513
 5763TIP3   OH238779   6.508   6.093   5.768  0.0504  0.0173  0.0241
 5763TIP3    H138780   6.479   6.109   5.858  1.6449  1.5263  0.3388
 5763TIP3    H238781   6.440   6.133   5.713 -0.3738  0.0888  0.5925
 5764TIP3   OH238782   6.633   0.482   3.132  0.5755 -0.0224  0.1361
 5764TIP3    H138783   6.597   0.525   3.210  1.8784  0.5617  0.4493
 5764TIP3    H238784   6.609   0.539   3.059 -0.5544 -0.5138  0.0994
 5765TIP3   OH238785   2.893   4.032   4.014  0.2549 -0.3505  0.1003
 5765TIP3    H138786   2.909   3.952   4.065 -0.8133 -0.1753  0.7446
 5765TIP3    H238787   2.848   4.090   4.075  0.5772  0.5581 -0.5196
 5766TIP3   OH238788   1.147   4.544   4.337 -0.5265 -0.1916  0.0570
 5766TIP3    H138789   1.090   4.548   4.414 -1.7697 -1.6185 -0.7345
 5766TIP3    H238790   1.091   4.573   4.265  0.0128 -0.7592 -0.6058
 5767TIP3   OH238791   4.495   3.329  16.317 -0.0654  0.8230 -0.3687
 5767TIP3    H138792   4.548   3.262  16.275  2.1084  1.6876  0.8040
 5767TIP3    H238793   4.484   3.397  16.250 -1.4885 -0.2343 -1.2564
 5768TIP3   OH238794   2.572   1.225   1.370 -0.3145 -0.0460 -0.4773
 5768TIP3    H138795   2.484   1.244   1.340 -0.9804 -1.7630  0.2282
 5768TIP3    H238796   2.601   1.152   1.314  0.2686 -0.1389 -0.0661
 5769TIP3   OH238797   6.454   0.186  16.962 -0.7389  0.2525 -0.0304
 5769TIP3    H138798   6.453   0.209  17.055 -0.9805 -2.1548  0.6143
 5769TIP3    H238799   6.367   0.211  16.930 -0.9354  0.3425  0.5675
 5770TIP3   OH238800   2.601   6.380  14.070  0.0115 -0.2586  0.3008
 5770TIP3    H138801   2.630   6.317  14.135 -1.1863 -3.0204 -1.6217
 5770TIP3    H238802   2.671   6.382  14.005  0.0241  0.3884  0.3284
 5771TIP3   OH238803   4.019   3.484   3.053  0.2544 -0.2198  0.5633
 5771TIP3    H138804   4.092   3.465   2.994 -0.2491 -0.3733 -0.0187
 5771TIP3    H238805   4.053   3.552   3.112  0.5684  0.3961 -0.3059
 5772TIP3   OH238806   0.960   6.635   5.166  0.3479 -0.7293 -0.4653
 5772TIP3    H138807   1.017   6.564   5.197  0.8717  0.2930  0.9858
 5772TIP3    H238808   0.883   6.631   5.222 -0.1533 -0.8429 -1.1377
 5773TIP3   OH238809   0.564   6.059  16.539  0.0271 -0.1762  0.4449
 5773TIP3    H138810   0.497   6.128  16.536  1.1628  0.9021 -0.9572
 5773TIP3    H238811   0.570   6.036  16.632 -0.2654  1.7269  0.9642
 5774TIP3   OH238812   6.007   3.950   0.149  0.0252  0.0962  0.1366
 5774TIP3    H138813   5.946   4.003   0.200 -0.6180  0.3757 -0.8916
 5774TIP3    H238814   6.061   4.013   0.102 -1.8143 -0.0474 -2.3734
 5775TIP3   OH238815   3.128   6.398   0.936  0.4084  0.3295 -0.5807
 5775TIP3    H138816   3.118   6.357   1.022 -2.2696  2.7320  0.4230
 5775TIP3    H238817   3.129   6.325   0.875  0.3491 -1.3809  1.3483
 5776TIP3   OH238818   0.968   6.129  16.112 -0.3801  0.3346 -0.2316
 5776TIP3    H138819   0.949   6.134  16.206 -1.7650 -0.5502 -0.4369
 5776TIP3    H238820   1.063   6.116  16.107 -0.3359  0.0580  1.0567
 5777TIP3   OH238821   5.751   4.972   6.239 -0.0471  0.2488 -0.6451
 5777TIP3    H138822   5.823   5.018   6.282 -0.1205  0.2284 -0.4965
 5777TIP3    H238823   5.720   5.033   6.173 -0.2095  0.4558 -0.3812
 5778TIP3   OH238824   4.584   0.893   2.638  0.1250 -0.0340 -0.1732
 5778TIP3    H138825   4.584   0.798   2.637  2.1440 -0.0639 -0.5877
 5778TIP3    H238826   4.618   0.916   2.724 -0.6525  0.3438  0.0473
 5779TIP3   OH238827   1.344   1.066  17.075  0.7933 -0.1918  0.4003
 5779TIP3    H138828   1.331   1.109  16.990 -1.7929  0.4127  1.0253
 5779TIP3    H238829   1.391   1.130  17.128  0.3859  0.3423  0.1225
 5780TIP3   OH238830   3.528   3.411   5.859  0.3618  0.6332  0.1384
 5780TIP3    H138831   3.577   3.329   5.855 -0.2758  0.2631 -0.4995
 5780TIP3    H238832   3.511   3.432   5.767  0.6958  1.5920  0.2941
 5781TIP3   OH238833   4.959   1.383  12.201  0.3886  0.6656  0.2571
 5781TIP3    H138834   5.038   1.429  12.227  0.1655  1.2535 -0.0750
 5781TIP3    H238835   4.986   1.330  12.126  0.4228  1.0320  0.0072
 5782TIP3   OH238836   5.837   0.323  10.841  1.0229  0.2302 -0.2294
 5782TIP3    H138837   5.912   0.316  10.899  0.8911  2.2449  0.2765
 5782TIP3    H238838   5.781   0.389  10.882 -0.8180 -0.8945 -0.8250
 5783TIP3   OH238839   2.552   6.188  12.936  0.0075 -0.3647  0.2498
 5783TIP3    H138840   2.581   6.278  12.954  2.8041 -0.7722 -1.5250
 5783TIP3    H238841   2.506   6.195  12.852  1.9710 -0.7921 -0.9144
 5784TIP3   OH238842   0.704   5.803   5.635  0.5928  0.1521 -0.2739
 5784TIP3    H138843   0.689   5.881   5.582  1.3037  0.0260 -0.6812
 5784TIP3    H238844   0.694   5.833   5.725 -0.6796  0.3583 -0.4686
 5785TIP3   OH238845   3.448   6.040   2.741  0.7277 -0.1019 -0.0444
 5785TIP3    H138846   3.356   6.017   2.754  0.6999  0.8811  1.9119
 5785TIP3    H238847   3.458   6.048   2.646 -1.1227 -0.5105 -0.3102
 5786TIP3   OH238848   1.238   0.097  11.069  0.1354 -0.0210 -0.1315
 5786TIP3    H138849   1.247   0.186  11.103 -0.5536 -0.3735  1.0411
 5786TIP3    H238850   1.279   0.100  10.983  0.0191  1.4533 -0.1606
 5787TIP3   OH238851   0.875   5.531  16.441 -0.6572 -0.0328  0.7779
 5787TIP3    H138852   0.832   5.603  16.487 -1.7355  1.1003 -1.7719
 5787TIP3    H238853   0.836   5.533  16.353  0.5469 -2.6597  0.0999
 5788TIP3   OH238854   3.512   2.210   2.007  0.1633 -0.1023  0.2140
 5788TIP3    H138855   3.531   2.190   2.099 -1.4878 -1.2100  0.3480
 5788TIP3    H238856   3.592   2.186   1.960  0.2492 -1.6576  1.1039
 5789TIP3   OH238857   5.915   1.099  11.711 -0.2671 -0.4114 -0.5308
 5789TIP3    H138858   5.858   1.027  11.738  1.5628 -1.6383  0.1661
 5789TIP3    H238859   5.878   1.176  11.754 -1.6897 -1.0628 -0.5220
 5790TIP3   OH238860   4.236   0.318  11.988  0.0264 -0.2312 -0.1513
 5790TIP3    H138861   4.157   0.349  12.032  0.2240 -1.4120  1.1281
 5790TIP3    H238862   4.305   0.379  12.015 -0.0826 -0.2993  0.2935
 5791TIP3   OH238863   0.021   6.734   1.332 -0.2556 -0.5674 -0.0335
 5791TIP3    H138864   0.009   6.822   1.296 -1.6991 -1.6372 -2.4538
 5791TIP3    H238865   0.007   6.744   1.426 -0.4231  1.7713 -0.2527
 5792TIP3   OH238866   6.522   3.905  13.312  0.0824  0.4759 -0.4024
 5792TIP3    H138867   6.453   3.840  13.322  0.8055 -0.2091  0.3362
 5792TIP3    H238868   6.541   3.905  13.218 -0.2341 -0.0615 -0.4731
 5793TIP3   OH238869   6.221   0.202   4.720  0.2877 -0.1402  0.1419
 5793TIP3    H138870   6.275   0.254   4.661  2.8860 -2.2014  0.5224
 5793TIP3    H238871   6.163   0.153   4.661  0.6614  0.1564 -0.4873
 5794TIP3   OH238872   1.812   4.369   1.168  0.1629  0.2106  0.1884
 5794TIP3    H138873   1.877   4.428   1.207 -1.3362  0.0143  3.2746
 5794TIP3    H238874   1.735   4.424   1.155 -0.0954 -0.2782 -0.3999
 5795TIP3   OH238875   1.948   5.355  12.510  0.2895 -0.2356 -0.2493
 5795TIP3    H138876   1.883   5.287  12.490 -0.8687  0.5773  0.6471
 5795TIP3    H238877   2.006   5.313  12.574 -2.8750  0.7536  3.7174
 5796TIP3   OH238878   0.384   3.821   0.668  0.0573  0.7148 -0.3238
 5796TIP3    H138879   0.425   3.736   0.683  0.4477  1.1261  1.0875
 5796TIP3    H238880   0.425   3.854   0.588 -0.9806 -0.9238 -1.6099
 5797TIP3   OH238881   0.385   0.849  10.642  0.0881 -0.3146  0.0383
 5797TIP3    H138882   0.380   0.799  10.561  1.7137 -1.8209  0.7937
 5797TIP3    H238883   0.459   0.909  10.629 -0.6205  0.5358 -0.1403
 5798TIP3   OH238884   2.472   5.351  11.589  0.3227  0.5830  0.1727
 5798TIP3    H138885   2.403   5.362  11.654  1.5991 -1.2057  1.9712
 5798TIP3    H238886   2.536   5.419  11.611  0.6840  0.0739  0.7253
 5799TIP3   OH238887   6.259   4.640   3.454 -0.2233 -0.2259 -0.5744
 5799TIP3    H138888   6.194   4.678   3.396  0.9376  1.3312 -0.9320
 5799TIP3    H238889   6.340   4.687   3.433  0.3567  0.0181  1.9330
 5800TIP3   OH238890   3.937   4.003   6.523  0.2826 -0.4340 -0.3708
 5800TIP3    H138891   3.912   4.063   6.594 -0.7332  0.6979 -1.6311
 5800TIP3    H238892   3.961   3.922   6.568  1.9231  0.9375  1.4257
 5801TIP3   OH238893   5.829   2.545   2.810 -0.4951  0.4824 -0.0655
 5801TIP3    H138894   5.833   2.468   2.753  0.8778  0.7664 -0.3724
 5801TIP3    H238895   5.780   2.515   2.887  1.2501 -1.1551  0.4838
 5802TIP3   OH238896   6.571   5.810   2.982 -0.8969  0.2743 -0.1071
 5802TIP3    H138897   6.665   5.825   2.973 -1.0456  0.2549 -2.3176
 5802TIP3    H238898   6.560   5.717   2.965 -1.3928  0.4855 -1.0537
 5803TIP3   OH238899   3.154   4.116   6.168 -0.0137  0.5469  0.4347
 5803TIP3    H138900   3.104   4.198   6.172  2.4302  2.3987 -2.0572
 5803TIP3    H238901   3.232   4.133   6.221  0.6505 -0.0431 -0.3262
 5804TIP3   OH238902   0.037   3.137   1.360 -0.0206 -0.5599 -0.4065
 5804TIP3    H138903   0.043   3.222   1.317  1.2236 -0.9974 -1.1545
 5804TIP3    H238904  -0.044   3.098   1.326 -1.5864  1.0043  1.2952
 5805TIP3   OH238905   4.072   4.095   5.321 -0.0516 -0.4215 -0.2114
 5805TIP3    H138906   4.123   4.115   5.242  2.0832 -0.3316  1.1091
 5805TIP3    H238907   4.024   4.015   5.299  1.5330 -1.1636 -1.1779
 5806TIP3   OH238908   5.678   6.349   1.298 -0.1982  0.0839 -0.3258
 5806TIP3    H138909   5.733   6.351   1.219 -0.5659  2.0102 -0.5621
 5806TIP3    H238910   5.599   6.302   1.271 -0.0380  0.1409 -0.9158
 5807TIP3   OH238911   0.092   1.196  15.814 -0.1751  0.5221 -0.3477
 5807TIP3    H138912   0.186   1.179  15.809  0.0381 -0.5162  3.6454
 5807TIP3    H238913   0.086   1.291  15.830  0.5908  0.1511  2.8016
 5808TIP3   OH238914   6.690   1.277  15.558  0.2723  1.0151  0.1119
 5808TIP3    H138915   6.634   1.270  15.635 -2.4114  1.5540 -1.6058
 5808TIP3    H238916   6.685   1.370  15.534  0.2823  0.7083 -1.1639
 5809TIP3   OH238917   6.633   1.801   2.756  0.0842  0.5779 -0.2482
 5809TIP3    H138918   6.553   1.748   2.757  0.7747 -0.4787  1.1387
 5809TIP3    H238919   6.702   1.740   2.729  0.5489  1.3076 -0.7452
 5810TIP3   OH238920   6.708   6.235   5.475 -0.3125  0.3805 -0.2097
 5810TIP3    H138921   6.754   6.201   5.399  0.6359 -1.3176  1.0580
 5810TIP3    H238922   6.776   6.277   5.528 -0.7023  0.3650  0.3201
 5811TIP3   OH238923   4.171   6.690   0.544  0.2515  0.1874 -0.5915
 5811TIP3    H138924   4.090   6.709   0.496 -0.7077 -0.3035  0.7300
 5811TIP3    H238925   4.182   6.595   0.535  0.9135  0.3054 -1.0909
 5812TIP3   OH238926   1.295   3.955  16.704 -0.3154  0.1445  0.0683
 5812TIP3    H138927   1.284   3.882  16.764 -1.9372  0.9187  0.7685
 5812TIP3    H238928   1.258   4.030  16.750  2.3652  1.7030 -0.1301
 5813TIP3   OH238929   1.105   3.822  16.529  0.8345 -0.2583  0.0030
 5813TIP3    H138930   1.152   3.900  16.557  0.6183 -0.6428  1.5383
 5813TIP3    H238931   1.066   3.845  16.445  2.1909  0.6954 -0.3933
 5814TIP3   OH238932   0.682   6.513  14.703 -0.1432 -0.1657  0.0255
 5814TIP3    H138933   0.664   6.541  14.793 -0.6758  1.9983 -0.7000
 5814TIP3    H238934   0.777   6.522  14.694 -0.0351 -0.7681  0.4604
 5815TIP3   OH238935   2.453   0.786  12.556  0.9410  0.3101  0.3717
 5815TIP3    H138936   2.386   0.845  12.521  0.9415  0.9319  1.3635
 5815TIP3    H238937   2.510   0.766  12.482  0.6829  1.2024 -0.0789
 5816TIP3   OH238938   1.824   3.332  16.293  0.8582  0.0389  0.0895
 5816TIP3    H138939   1.853   3.401  16.234 -0.1163  0.5761  0.2259
 5816TIP3    H238940   1.901   3.313  16.347  1.1904  0.8884 -0.0702
 5817TIP3   OH238941   1.174   1.277   2.440  0.1337  0.4862 -0.1326
 5817TIP3    H138942   1.126   1.216   2.497 -0.3715 -0.3000 -1.3674
 5817TIP3    H238943   1.165   1.240   2.352  1.2756  1.4372 -0.6782
 5818TIP3   OH238944   6.552   2.388   2.389  1.2552 -0.4880 -0.6791
 5818TIP3    H138945   6.606   2.466   2.382  0.4344  0.1723  0.1020
 5818TIP3    H238946   6.475   2.407   2.334  0.8450 -0.5566 -0.1344
 5819TIP3   OH238947   4.035   0.183   4.557  0.1486 -0.3624 -0.2257
 5819TIP3    H138948   4.056   0.124   4.485  2.3678  0.3463 -0.2682
 5819TIP3    H238949   4.118   0.191   4.606 -0.9027  0.3164  1.5453
 5820TIP3   OH238950   3.751   1.361  14.063 -0.0258 -0.0623 -0.6537
 5820TIP3    H138951   3.710   1.435  14.108  1.2363  0.0561  0.3457
 5820TIP3    H238952   3.828   1.340  14.115 -0.1961 -1.9218 -1.0838
 5821TIP3   OH238953   4.961   3.128   5.023  0.3256  0.2285  0.1646
 5821TIP3    H138954   4.906   3.098   4.951 -0.8697  0.0826  1.1101
 5821TIP3    H238955   5.001   3.209   4.990  2.3387 -1.4348 -1.8267
 5822TIP3   OH238956   5.745   2.112   4.712 -0.3038 -0.3376  0.5881
 5822TIP3    H138957   5.763   2.140   4.622  1.0272 -1.8567  0.3469
 5822TIP3    H238958   5.670   2.052   4.704 -1.3308  0.8871  0.7486
 5823TIP3   OH238959   1.295   4.327  12.505 -0.0184  0.1836 -0.1578
 5823TIP3    H138960   1.219   4.354  12.558  0.4192 -0.0916  0.6177
 5823TIP3    H238961   1.346   4.270  12.563 -0.6140 -1.8904 -1.5583
 5824TIP3   OH238962   3.192   0.600   2.762  1.0434  0.7519 -0.8899
 5824TIP3    H138963   3.097   0.613   2.760  0.7622 -0.9269  0.0515
 5824TIP3    H238964   3.216   0.588   2.670 -0.1753 -1.8040 -0.9698
 5825TIP3   OH238965   5.972   5.734   2.245 -0.3938 -0.1037 -0.3344
 5825TIP3    H138966   5.979   5.726   2.150 -0.1806 -0.0086 -0.3274
 5825TIP3    H238967   5.925   5.655   2.273 -0.5880 -0.0593 -0.5327
 5826TIP3   OH238968   4.480   6.579   2.279  0.2733 -0.2097 -0.1694
 5826TIP3    H138969   4.399   6.532   2.257  1.7107 -2.8529 -0.1666
 5826TIP3    H238970   4.528   6.520   2.337  2.0211  1.4839  0.2243
 5827TIP3   OH238971   1.298   1.930  12.006  0.8859  0.1882  0.3272
 5827TIP3    H138972   1.271   2.020  12.020  0.3354  0.2421 -0.9870
 5827TIP3    H238973   1.393   1.935  11.992  1.1098  0.3631  1.7492
 5828TIP3   OH238974   6.095   0.405  11.462  0.0743 -0.0404  0.2115
 5828TIP3    H138975   6.083   0.314  11.435  2.9035 -0.3773 -0.2030
 5828TIP3    H238976   6.117   0.400  11.555 -1.8826  0.4780  0.7605
 5829TIP3   OH238977   5.882   6.046   4.146  0.2448 -0.3172 -0.5019
 5829TIP3    H138978   5.826   6.115   4.183 -0.1856 -0.0132 -1.6943
 5829TIP3    H238979   5.821   5.984   4.106  0.6623 -1.1024  0.0305
 5830TIP3   OH238980   6.488   4.390   2.201 -0.0386 -0.1357 -0.3772
 5830TIP3    H138981   6.558   4.378   2.136  1.1053  1.4663  0.4924
 5830TIP3    H238982   6.407   4.392   2.149  0.8176  0.7844 -1.7283
 5831TIP3   OH238983   1.451   2.934   0.285 -0.0837  0.3996  0.0366
 5831TIP3    H138984   1.477   2.988   0.360  2.0446 -1.9291  1.1461
 5831TIP3    H238985   1.396   2.866   0.324  0.8215 -0.6849 -0.5303
 5832TIP3   OH238986   1.632   1.594  16.550 -0.3998 -0.5777 -0.2485
 5832TIP3    H138987   1.625   1.558  16.462  1.3489 -2.0346  0.1540
 5832TIP3    H238988   1.598   1.524  16.607  1.3793 -0.9409  0.4247
 5833TIP3   OH238989   0.818   2.588   0.733 -0.7253  0.1933  0.2325
 5833TIP3    H138990   0.909   2.580   0.762 -0.4892 -1.2097 -0.7648
 5833TIP3    H238991   0.819   2.660   0.671 -0.3232  0.2995  0.3615
 5834TIP3   OH238992   5.923   0.378   4.224 -1.0715  0.4004  0.0280
 5834TIP3    H138993   5.875   0.448   4.269 -1.5070  0.9119 -1.1934
 5834TIP3    H238994   5.856   0.334   4.170 -1.3352 -2.4543  2.4120
 5835TIP3   OH238995   5.646   5.220  14.198 -0.2224  0.6534 -0.1798
 5835TIP3    H138996   5.605   5.264  14.273 -1.2370  0.9707 -0.8906
 5835TIP3    H238997   5.649   5.287  14.130 -1.9541 -0.3606 -1.3489
 5836TIP3   OH238998   5.377   3.218  16.279 -0.2175  1.0982  0.1112
 5836TIP3    H138999   5.302   3.217  16.220 -0.4582 -1.0962  0.3907
 5836TIP3    H239000   5.371   3.137  16.328  2.6630  0.5417 -0.2421
 5837TIP3   OH239001   0.441   0.481  17.199  0.4807  0.6281 -0.5992
 5837TIP3    H139002   0.520   0.460  17.248  0.2790  1.2781  0.0217
 5837TIP3    H239003   0.462   0.456  17.109  0.9828 -0.2489 -0.2581
 5838TIP3   OH239004   1.992   2.013  11.546  0.3548 -0.4460  0.4600
 5838TIP3    H139005   1.914   1.985  11.499  0.9507 -0.6540 -0.4351
 5838TIP3    H239006   1.972   2.102  11.575  0.8269  0.6521 -2.2830
 5839TIP3   OH239007   3.306   5.294  13.575 -0.2182 -0.0265 -0.4285
 5839TIP3    H139008   3.376   5.288  13.510  0.2100  0.4488 -0.0247
 5839TIP3    H239009   3.234   5.243  13.538  0.4569 -0.8072 -0.6936
 5840TIP3   OH239010   1.270   0.702  14.891  0.3139  0.0282 -0.1603
 5840TIP3    H139011   1.218   0.622  14.904  1.4760 -0.5391  1.3741
 5840TIP3    H239012   1.219   0.771  14.931 -0.3369 -0.0773 -0.7921
 5841TIP3   OH239013   5.056   1.945   4.686  0.2641  0.6598  0.2891
 5841TIP3    H139014   5.063   1.895   4.605  0.7890  1.3430 -0.0928
 5841TIP3    H239015   5.143   1.981   4.700 -0.3018  2.1471  0.1081
 5842TIP3   OH239016   5.032   6.220  11.474  0.1158 -0.7003  0.0798
 5842TIP3    H139017   5.042   6.294  11.414 -1.6543 -0.4612  0.0401
 5842TIP3    H239018   5.023   6.144  11.417  2.2774 -1.0398  0.1223
 5843TIP3   OH239019   1.497   1.142  15.237 -0.2665 -0.1546  0.5590
 5843TIP3    H139020   1.474   1.218  15.183  0.1620 -0.6456 -0.3303
 5843TIP3    H239021   1.520   1.074  15.174 -0.4120 -0.9566  1.3524
 5844TIP3   OH239022   4.775   3.814   3.390 -0.3627 -0.1286  0.0662
 5844TIP3    H139023   4.770   3.719   3.390 -2.9013 -0.1295 -2.4197
 5844TIP3    H239024   4.685   3.842   3.411  0.3432  1.7318  0.8142
 5845TIP3   OH239025   5.026   2.423  15.908  0.0960  0.4684 -0.5815
 5845TIP3    H139026   5.108   2.473  15.905 -0.1282  0.8670 -0.2437
 5845TIP3    H239027   5.050   2.335  15.879  0.9062  0.2252  0.7332
 5846TIP3   OH239028   3.458   3.716   3.070  0.3166  0.6544  0.5265
 5846TIP3    H139029   3.397   3.660   3.022 -0.5126  1.2887  0.8178
 5846TIP3    H239030   3.482   3.665   3.147 -0.1572  0.5523  0.6078
 5847TIP3   OH239031   0.077   5.584  14.906 -0.1193 -0.2170 -0.0934
 5847TIP3    H139032   0.031   5.506  14.939  0.5157  0.5040  2.7413
 5847TIP3    H239033   0.011   5.652  14.903 -0.5161 -0.6045 -1.9326
 5848TIP3   OH239034   2.566   5.172  13.937  0.5120 -0.3550 -0.2833
 5848TIP3    H139035   2.586   5.109  14.006  3.5115 -0.2600 -0.9356
 5848TIP3    H239036   2.636   5.237  13.943 -0.9342  1.4047 -1.4220
 5849TIP3   OH239037   2.852   1.069   5.998 -0.0272  0.4476  0.1351
 5849TIP3    H139038   2.918   1.105   6.057 -1.7440  2.2608  1.0652
 5849TIP3    H239039   2.878   0.978   5.985  1.6294  0.6196  1.9020
 5850TIP3   OH239040   3.499   3.830  16.641 -0.4396  0.1329  0.5127
 5850TIP3    H139041   3.436   3.811  16.572 -0.2229 -0.5511  0.4920
 5850TIP3    H239042   3.451   3.820  16.723 -0.6398  0.7266  0.4724
 5851TIP3   OH239043   0.815   5.528   1.750  0.4535  0.1349 -0.3760
 5851TIP3    H139044   0.892   5.551   1.699  0.8907 -2.3096 -0.8982
 5851TIP3    H239045   0.743   5.530   1.687  0.4896  0.0698 -0.4192
 5852TIP3   OH239046   2.750   5.997  16.269  0.6947  0.2361  0.4295
 5852TIP3    H139047   2.832   6.010  16.220  0.5506  0.6120  0.2800
 5852TIP3    H239048   2.737   5.902  16.269  1.3407  0.1455  0.8029
 5853TIP3   OH239049   2.251   0.493   3.161 -0.3348 -0.1409  0.1560
 5853TIP3    H139050   2.238   0.500   3.066 -2.6886  0.7995  0.4524
 5853TIP3    H239051   2.343   0.516   3.175 -0.1220  0.4364 -1.8389
 5854TIP3   OH239052   4.368   2.787  13.138 -0.0771  0.3038  0.1577
 5854TIP3    H139053   4.290   2.839  13.122 -0.1968 -0.1520 -0.8068
 5854TIP3    H239054   4.424   2.844  13.190 -0.4540  1.1805 -0.3668
 5855TIP3   OH239055   5.530   3.656   5.332 -0.6435  0.1365  0.0565
 5855TIP3    H139056   5.525   3.731   5.273 -2.8739  0.1215  0.1770
 5855TIP3    H239057   5.439   3.630   5.348  0.0171 -2.4039  0.2618
 5856TIP3   OH239058   4.031   1.639   5.213 -0.9097 -0.4072 -0.2929
 5856TIP3    H139059   3.990   1.680   5.289 -1.7189 -0.3035 -0.7715
 5856TIP3    H239060   4.091   1.574   5.250  2.2187  2.7023  0.5854
 5857TIP3   OH239061   3.997   6.682   2.681  0.4566 -0.0329  0.1480
 5857TIP3    H139062   3.976   6.737   2.756  0.9324  1.2080 -0.5954
 5857TIP3    H239063   3.919   6.630   2.667 -1.4040  2.8498 -1.1538
 5858TIP3   OH239064   1.483   3.957  12.282 -0.9485  0.4714 -0.4711
 5858TIP3    H139065   1.534   3.899  12.224  0.4842  2.9202 -1.8048
 5858TIP3    H239066   1.539   4.033  12.296 -1.7400  0.5761  3.2429
 5859TIP3   OH239067   0.761   0.072  10.716 -0.3882  0.8045  0.0999
 5859TIP3    H139068   0.675   0.089  10.754  0.0163  0.4579  1.2254
 5859TIP3    H239069   0.746  -0.001  10.655 -0.7764  0.2764  0.8110
 5860TIP3   OH239070   2.750   1.772   4.438 -0.0198  0.2418  0.0096
 5860TIP3    H139071   2.731   1.803   4.349  0.5534  2.7250  0.6733
 5860TIP3    H239072   2.744   1.851   4.492  1.2673 -0.9016  1.9290
 5861TIP3   OH239073   0.001   4.292  15.185  1.2028 -0.1081  0.1161
 5861TIP3    H139074  -0.045   4.252  15.259  1.6306  0.7573  0.8654
 5861TIP3    H239075  -0.013   4.231  15.113 -2.1562  0.6256 -0.0466
 5862TIP3   OH239076   3.969   4.443  11.260 -1.0365 -0.2097  0.0228
 5862TIP3    H139077   3.947   4.533  11.235 -0.2961  1.0516  3.4046
 5862TIP3    H239078   3.893   4.413  11.310 -0.7790 -1.0462 -0.0769
 5863TIP3   OH239079   3.142   5.164   4.179  0.0340 -0.1611 -0.3706
 5863TIP3    H139080   3.057   5.119   4.174  0.0562 -0.0915 -3.1355
 5863TIP3    H239081   3.147   5.213   4.097  2.2814  0.7420  0.2563
 5864TIP3   OH239082   1.019   3.580  12.059 -0.0177 -0.4809  0.0351
 5864TIP3    H139083   1.066   3.581  12.142 -0.5150  1.4711  0.3243
 5864TIP3    H239084   1.088   3.582  11.992  0.3434  0.0330  0.4210
 5865TIP3   OH239085   2.082   2.796  15.146 -0.5968  0.1072 -0.3964
 5865TIP3    H139086   2.153   2.759  15.198 -1.8034  1.4894  2.4913
 5865TIP3    H239087   2.055   2.725  15.088  1.1991 -1.3763  0.4829
 5866TIP3   OH239088   0.849   3.852   4.333 -0.4809 -0.4350  0.2860
 5866TIP3    H139089   0.799   3.801   4.396  1.8490 -1.5207  1.3804
 5866TIP3    H239090   0.844   3.803   4.252  1.1601 -2.1540  1.1493
 5867TIP3   OH239091   6.140   0.596   0.484  0.5659 -0.5017  0.5875
 5867TIP3    H139092   6.125   0.555   0.399  0.0581  0.6082  0.1160
 5867TIP3    H239093   6.207   0.662   0.468 -0.0029  0.1712  0.8838
 5868TIP3   OH239094   2.215   6.252  11.578 -0.6594  0.4465  0.3661
 5868TIP3    H139095   2.296   6.265  11.627  0.8018 -2.7636 -0.9033
 5868TIP3    H239096   2.183   6.340  11.559  3.0916  1.9061  0.0180
 5869TIP3   OH239097   6.026   4.428   3.950 -0.0102 -0.0442  0.1352
 5869TIP3    H139098   5.937   4.433   3.985  0.1197  0.3140  0.4222
 5869TIP3    H239099   6.015   4.425   3.855 -0.3494 -0.6118  0.1859
 5870TIP3   OH239100   3.552   2.491  14.228 -0.1337 -0.7710 -0.4280
 5870TIP3    H139101   3.470   2.460  14.189 -0.9836  0.5800  0.2054
 5870TIP3    H239102   3.546   2.466  14.320 -0.6150  0.7464 -0.0136
 5871TIP3   OH239103   0.000   6.565  13.173 -0.2838 -0.4148  0.2236
 5871TIP3    H139104   0.013   6.525  13.087 -0.8139 -0.0441 -0.0330
 5871TIP3    H239105   0.049   6.509  13.233 -0.8266 -1.3086 -0.1592
 5872TIP3   OH239106   2.517   4.595   0.969  0.2743  0.5829 -0.2812
 5872TIP3    H139107   2.543   4.679   0.931  0.3415  0.4999 -0.4201
 5872TIP3    H239108   2.599   4.556   1.000  0.7038 -0.7067 -2.7605
 5873TIP3   OH239109   4.871   3.317  17.119  0.5323 -0.6415  0.2011
 5873TIP3    H139110   4.819   3.348  17.044  0.5699 -3.2900 -1.0422
 5873TIP3    H239111   4.960   3.349  17.101  0.0288  1.1352  0.6456
 5874TIP3   OH239112   4.894   3.044   2.850  0.0799  0.4418  0.0573
 5874TIP3    H139113   4.891   3.125   2.799 -0.3174  0.1541 -0.3836
 5874TIP3    H239114   4.904   2.975   2.785  1.0770  0.1763  0.4734
 5875TIP3   OH239115   4.628   6.288   0.773  0.8284 -0.6238 -0.3464
 5875TIP3    H139116   4.544   6.307   0.815  1.4659 -1.7321  1.5832
 5875TIP3    H239117   4.645   6.363   0.716 -1.1693 -0.1072 -0.3169
 5876TIP3   OH239118   4.893   5.776  16.331 -0.2167  0.6032  0.0323
 5876TIP3    H139119   4.953   5.764  16.404 -1.8184  0.0621  1.3308
 5876TIP3    H239120   4.918   5.707  16.268  0.1703  0.0359  0.7886
 5877TIP3   OH239121   0.222   3.514  13.401  0.6796  0.2557 -1.0853
 5877TIP3    H139122   0.254   3.430  13.367  3.0636  0.3370  0.6598
 5877TIP3    H239123   0.209   3.498  13.495  0.1770  1.5789 -0.9176
 5878TIP3   OH239124   1.716   2.891   1.801  0.1278 -0.6657  0.4520
 5878TIP3    H139125   1.723   2.865   1.893 -0.1156  0.2707  0.7468
 5878TIP3    H239126   1.664   2.972   1.803  0.5550 -0.3612 -0.4621
 5879TIP3   OH239127   3.372   4.635   5.342  0.5183 -0.0830 -1.0796
 5879TIP3    H139128   3.361   4.703   5.275  2.0058 -0.6001 -1.8987
 5879TIP3    H239129   3.358   4.553   5.295  1.8505 -0.4686 -0.8463
 5880TIP3   OH239130   5.571   1.888   3.698  0.1284  0.0319 -0.1422
 5880TIP3    H139131   5.586   1.813   3.756  0.9987 -0.0248 -0.4303
 5880TIP3    H239132   5.658   1.915   3.670  0.0523  2.5093  1.6064
 5881TIP3   OH239133   6.749   1.115   1.624  0.5274  0.3258 -0.7445
 5881TIP3    H139134   6.830   1.107   1.574  0.5289  1.2177 -0.9000
 5881TIP3    H239135   6.750   1.040   1.684  2.5546  1.4796  0.8010
 5882TIP3   OH239136   3.128   5.024  14.274 -0.9795  0.7305  0.5767
 5882TIP3    H139137   3.185   4.981  14.210 -1.1414  1.2400  0.0867
 5882TIP3    H239138   3.176   5.102  14.301 -2.0664  1.9943 -0.9864
 5883TIP3   OH239139   4.038   0.484  11.519  0.5088 -0.5372  0.1918
 5883TIP3    H139140   4.051   0.568  11.477  1.8172 -1.8677 -2.2648
 5883TIP3    H239141   3.945   0.465  11.507  0.4280  0.0875 -0.1916
 5884TIP3   OH239142   0.311   6.447  14.830 -0.1996 -0.2642 -0.4794
 5884TIP3    H139143   0.243   6.393  14.870 -0.1667  0.0386  0.0031
 5884TIP3    H239144   0.362   6.480  14.905 -0.0804  0.2435 -0.7772
 5885TIP3   OH239145   6.543   5.846  12.437  0.1218  0.1306 -0.2763
 5885TIP3    H139146   6.572   5.821  12.524 -1.0874 -1.6332 -0.3218
 5885TIP3    H239147   6.578   5.934  12.424  3.5246 -0.9660  0.4611
 5886TIP3   OH239148   6.568   5.552   1.536 -0.3118  0.8249 -0.1879
 5886TIP3    H139149   6.480   5.516   1.526 -0.2652  0.3450  0.9633
 5886TIP3    H239150   6.571   5.586   1.626  1.0493 -0.2572  0.2196
 5887TIP3   OH239151   4.974   2.479   3.860  0.5553 -0.2828 -0.6549
 5887TIP3    H139152   5.051   2.425   3.848 -0.2937 -1.7188  0.0714
 5887TIP3    H239153   4.959   2.480   3.954 -0.2523  0.0489 -0.7714
 5888TIP3   OH239154   4.749   0.085   1.157  0.5512 -0.4856  0.0189
 5888TIP3    H139155   4.694   0.022   1.111 -2.8373  1.0947  1.5673
 5888TIP3    H239156   4.739   0.166   1.108 -0.5410  0.4181  1.6487
 5889TIP3   OH239157   3.258   2.852   1.536 -0.3256 -0.3289 -0.2119
 5889TIP3    H139158   3.327   2.797   1.571 -0.0730 -1.5435 -2.4172
 5889TIP3    H239159   3.217   2.891   1.613  1.3242 -1.3610  1.2741
 5890TIP3   OH239160   4.500   5.342   5.244  0.1126 -0.2148  0.3777
 5890TIP3    H139161   4.473   5.423   5.287 -3.3224 -1.5923  1.0724
 5890TIP3    H239162   4.495   5.275   5.312  1.2526 -1.3422 -0.5872
 5891TIP3   OH239163   1.203   1.630   5.588 -0.3293  0.2938 -0.1999
 5891TIP3    H139164   1.232   1.589   5.506 -2.5078  1.3012 -1.5713
 5891TIP3    H239165   1.117   1.592   5.605 -1.3239  2.4090 -0.1785
 5892TIP3   OH239166   1.536   4.491   4.173  0.2070  0.7505  0.1811
 5892TIP3    H139167   1.586   4.429   4.120 -1.0296 -0.1639  0.0394
 5892TIP3    H239168   1.485   4.541   4.109 -1.6826 -0.7019  0.4605
 5893TIP3   OH239169   6.079   6.565   4.256 -0.4683 -0.3316  0.2924
 5893TIP3    H139170   6.053   6.656   4.271  0.1743 -0.3056  1.4117
 5893TIP3    H239171   6.011   6.529   4.200 -0.5193  0.9490 -0.4968
 5894TIP3   OH239172   5.073   6.252  16.008 -0.1238 -0.3734  0.6353
 5894TIP3    H139173   5.094   6.251  15.914  0.2270 -0.9301  0.7105
 5894TIP3    H239174   5.085   6.161  16.036  2.6654  0.2517  1.8416
 5895TIP3   OH239175   1.787   3.131   6.377  0.3930 -0.2288 -0.0054
 5895TIP3    H139176   1.804   3.042   6.409 -0.3200  0.0816  1.3158
 5895TIP3    H239177   1.828   3.187   6.443 -1.0205  0.4357  0.3382
 5896TIP3   OH239178   4.045   3.791  13.241  0.1110 -0.4499 -0.3287
 5896TIP3    H139179   3.971   3.824  13.292 -0.0593 -1.1350 -0.1215
 5896TIP3    H239180   4.074   3.712  13.288  0.8850 -0.2710 -0.4835
 5897TIP3   OH239181   3.482   6.251   2.167 -0.4587 -0.1109 -0.1414
 5897TIP3    H139182   3.578   6.245   2.161 -0.0957 -0.1490  3.5767
 5897TIP3    H239183   3.452   6.161   2.171 -0.0887 -0.2052  3.1927
 5898TIP3   OH239184   5.043   1.898   3.942 -0.6320  0.5779  0.1319
 5898TIP3    H139185   4.949   1.879   3.942 -0.4771 -0.2101  0.3645
 5898TIP3    H239186   5.049   1.989   3.972 -1.2734  0.3662  0.9444
 5899TIP3   OH239187   0.480   6.738   2.741 -0.4155 -0.4608  0.1643
 5899TIP3    H139188   0.429   6.702   2.668 -1.5984  0.4179  0.5358
 5899TIP3    H239189   0.565   6.759   2.702 -0.3184 -1.8874 -0.4798
 5900TIP3   OH239190   4.115   3.127   5.141 -0.3632  0.3766  0.3725
 5900TIP3    H139191   4.059   3.169   5.206 -0.0454  0.6203  0.4949
 5900TIP3    H239192   4.064   3.129   5.060 -0.5136  0.6370  0.4726
 5901TIP3   OH239193   6.065   4.974  15.161 -0.0637 -0.3403 -0.3088
 5901TIP3    H139194   6.026   4.895  15.199  0.7536 -1.2946 -1.3624
 5901TIP3    H239195   6.147   4.985  15.209  0.1759 -0.5818 -0.6526
 5902TIP3   OH239196   3.470   2.957  14.694  0.0143  0.7090 -0.5687
 5902TIP3    H139197   3.514   2.952  14.609  3.3375  0.3978  0.9915
 5902TIP3    H239198   3.487   2.872  14.734 -0.2587  1.3403  0.9409
 5903TIP3   OH239199   3.086   2.120  13.414 -0.3626 -0.1265 -0.3847
 5903TIP3    H139200   3.121   2.193  13.466 -1.2909 -0.3845  0.6489
 5903TIP3    H239201   2.991   2.126  13.426 -0.5067 -0.9496 -1.0556
 5904TIP3   OH239202   2.465   5.797   4.471  0.0346 -0.1765 -0.0261
 5904TIP3    H139203   2.469   5.857   4.546 -2.7176  1.4496 -1.0314
 5904TIP3    H239204   2.453   5.855   4.395  2.4683 -1.7775 -1.7893
 5905TIP3   OH239205   4.765   3.951  14.747  0.3516  0.0173  0.4978
 5905TIP3    H139206   4.762   3.965  14.842 -4.4267 -0.5480  0.6435
 5905TIP3    H239207   4.755   3.857  14.737 -1.7059  0.2942 -0.4872
 5906TIP3   OH239208   4.720   0.947   4.887  0.0773  0.9653 -0.0411
 5906TIP3    H139209   4.630   0.978   4.903 -0.3025  0.0454 -0.3284
 5906TIP3    H239210   4.761   1.019   4.838 -0.6329  1.2373 -0.2534
 5907TIP3   OH239211   0.780   5.413  13.099 -0.3487  0.1859  0.2911
 5907TIP3    H139212   0.797   5.506  13.114 -0.0031  0.2864 -0.6411
 5907TIP3    H239213   0.725   5.386  13.173 -0.5227  1.1478  0.5258
 5908TIP3   OH239214   4.181   3.736   5.997  0.2668 -0.1493 -0.3949
 5908TIP3    H139215   4.183   3.829   5.973 -0.2140 -0.1095 -0.2857
 5908TIP3    H239216   4.235   3.730   6.075  4.3097 -0.7270 -2.9331
 5909TIP3   OH239217   1.586   2.657  10.653 -0.1508 -0.2163  0.2849
 5909TIP3    H139218   1.625   2.737  10.690  1.3344 -0.7781 -0.0009
 5909TIP3    H239219   1.656   2.619  10.600 -1.2568 -1.0421 -0.6294
 5910TIP3   OH239220   1.622   5.290  14.987 -0.5661 -0.0694  0.0602
 5910TIP3    H139221   1.692   5.230  15.011 -0.7329 -0.0515  0.6066
 5910TIP3    H239222   1.665   5.359  14.936 -0.4492 -0.9050 -0.9983
 5911TIP3   OH239223   3.333   2.601  15.289  0.2593  0.0743  0.2333
 5911TIP3    H139224   3.243   2.610  15.320  0.1675  0.1574 -0.0501
 5911TIP3    H239225   3.382   2.571  15.365  0.0571  0.3656  0.4812
 5912TIP3   OH239226   1.665   3.035  13.251 -0.4427  0.3365 -0.0361
 5912TIP3    H139227   1.755   3.066  13.260  0.1895 -1.2837 -0.3262
 5912TIP3    H239228   1.616   3.079  13.320  0.3203  2.0683 -0.5460
 5913TIP3   OH239229   2.731   3.508  12.264  0.2428 -0.0844 -0.0518
 5913TIP3    H139230   2.745   3.512  12.170 -1.3250  2.5451 -0.2608
 5913TIP3    H239231   2.718   3.599  12.291 -1.5893 -0.9364  2.3434
 5914TIP3   OH239232   2.473   4.262   0.239  0.1883 -0.2869 -0.0852
 5914TIP3    H139233   2.407   4.194   0.247  0.7731 -0.8190  0.3093
 5914TIP3    H239234   2.540   4.238   0.303  0.1114  0.9964  0.5091
 5915TIP3   OH239235   6.165   4.646  13.501 -0.3729 -0.3641  0.5403
 5915TIP3    H139236   6.080   4.640  13.458  0.0460  1.4348 -0.6582
 5915TIP3    H239237   6.160   4.584  13.574 -1.8880 -1.9442 -0.8231
 5916TIP3   OH239238   2.482   4.926   1.564 -0.2712  0.0566 -0.3516
 5916TIP3    H139239   2.516   5.015   1.570  0.8301 -0.3186 -0.8214
 5916TIP3    H239240   2.498   4.900   1.474  1.0277 -1.2230  0.2063
 5917TIP3   OH239241   1.233   5.817  14.762  0.4208  0.2154  0.2166
 5917TIP3    H139242   1.299   5.885  14.772  0.4137  0.0507  1.5218
 5917TIP3    H239243   1.150   5.863  14.761  0.5179  0.4051 -1.2288
 5918TIP3   OH239244   3.635   1.128  11.768  0.6984  0.2080 -0.1326
 5918TIP3    H139245   3.583   1.193  11.722  0.7316  0.5486  0.3028
 5918TIP3    H239246   3.655   1.062  11.702  0.0252  0.2559 -0.3894
 5919TIP3   OH239247   0.410   5.175  11.069 -0.1208  0.4669 -0.0096
 5919TIP3    H139248   0.363   5.151  10.989  0.9919  0.2159 -0.6122
 5919TIP3    H239249   0.497   5.139  11.056 -0.3508 -0.9268  2.0025
 5920TIP3   OH239250   2.824   3.884   1.773  0.0662  0.1201 -0.1940
 5920TIP3    H139251   2.782   3.799   1.786  0.3065 -0.3738 -2.2003
 5920TIP3    H239252   2.875   3.873   1.692  0.6919  1.9559 -0.0994
 5921TIP3   OH239253   6.266   3.718   1.968  0.5388  0.0293  0.3750
 5921TIP3    H139254   6.325   3.731   2.042  0.8051 -0.1307  0.1898
 5921TIP3    H239255   6.280   3.627   1.942  2.2611  0.7499 -1.4390
 5922TIP3   OH239256   4.025   2.599   5.318 -0.0619  0.4585 -0.0355
 5922TIP3    H139257   3.984   2.547   5.248  0.9456  0.7384 -0.8538
 5922TIP3    H239258   4.028   2.688   5.283  1.1422  0.4609  0.0480
 5923TIP3   OH239259   2.012   4.057   5.109 -0.4181 -0.0954  0.3685
 5923TIP3    H139260   1.978   3.973   5.139 -1.9007  0.7644  1.1960
 5923TIP3    H239261   1.934   4.109   5.091  0.4665  0.8611 -0.8917
 5924TIP3   OH239262   5.837   2.744  13.572 -0.6484  0.4835 -0.0158
 5924TIP3    H139263   5.839   2.729  13.666 -2.0058 -0.4962 -0.1019
 5924TIP3    H239264   5.834   2.656  13.534 -0.0687  0.8606 -0.9867
 5925TIP3   OH239265   1.735   2.612   5.675 -0.6570  0.2422 -0.6896
 5925TIP3    H139266   1.659   2.636   5.622 -0.5557  0.8964 -0.5450
 5925TIP3    H239267   1.699   2.594   5.762 -0.6561  0.5117 -0.6319
 5926TIP3   OH239268   4.407   1.478  12.998  0.0923 -0.1481 -0.2463
 5926TIP3    H139269   4.421   1.394  12.955 -1.1379 -1.0145  0.9850
 5926TIP3    H239270   4.417   1.543  12.928  0.5192 -1.3391 -1.3228
 5927TIP3   OH239271   6.122   2.145  16.131  0.2327 -0.7268  0.3747
 5927TIP3    H139272   6.199   2.101  16.095  0.0878  0.0285 -0.9318
 5927TIP3    H239273   6.139   2.238  16.117 -1.7282 -0.6068 -1.7817
 5928TIP3   OH239274   1.501   3.263   2.755 -0.1643  0.2145 -0.9940
 5928TIP3    H139275   1.589   3.263   2.794 -0.8554 -0.7315  0.6731
 5928TIP3    H239276   1.473   3.354   2.758  0.9908  0.6444 -2.1760
 5929TIP3   OH239277   3.161   4.235   0.577 -0.6284  0.8417 -0.2094
 5929TIP3    H139278   3.197   4.300   0.518 -1.4053  0.3210 -1.2855
 5929TIP3    H239279   3.184   4.267   0.665  4.7778 -0.7306 -0.6898
 5930TIP3   OH239280   3.276   0.161   3.969 -0.3141  0.5405  0.1739
 5930TIP3    H139281   3.364   0.146   4.004  0.1366  0.8649 -0.7724
 5930TIP3    H239282   3.238   0.074   3.964  0.8258  0.0674 -1.5490
 5931TIP3   OH239283   5.844   3.250   4.056  0.2217  0.1418 -0.1248
 5931TIP3    H139284   5.858   3.327   4.110  0.2258  0.8331 -1.0868
 5931TIP3    H239285   5.767   3.271   4.003  0.0228 -0.6464 -0.1689
 5932TIP3   OH239286   2.192   4.072  11.418 -0.1812  0.2785 -0.5368
 5932TIP3    H139287   2.230   4.118  11.343 -0.6309  0.8125 -0.4424
 5932TIP3    H239288   2.097   4.080  11.405 -0.2790  1.3873  0.6908
 5933TIP3   OH239289   5.003   2.247  10.961 -0.6390  0.4053  0.0460
 5933TIP3    H139290   5.089   2.248  11.003 -0.4402 -0.8297 -0.3019
 5933TIP3    H239291   4.945   2.287  11.026 -0.0794 -0.1627  0.9258
 5934TIP3   OH239292   0.388   0.576   3.806 -0.4791  0.0389 -0.0962
 5934TIP3    H139293   0.342   0.628   3.872 -4.1035 -2.3631 -0.4455
 5934TIP3    H239294   0.389   0.630   3.728 -4.3812 -0.2915 -0.5375
 5935TIP3   OH239295   0.341   1.414   5.357  0.0211  0.0230 -0.1987
 5935TIP3    H139296   0.300   1.392   5.273  2.3084  0.6591 -1.5627
 5935TIP3    H239297   0.376   1.331   5.390 -0.7479 -0.2000  0.0770
 5936TIP3   OH239298   1.163   5.360   3.732 -0.0199 -0.3156 -0.8152
 5936TIP3    H139299   1.086   5.343   3.786  0.2407  0.9528  0.0056
 5936TIP3    H239300   1.236   5.327   3.784  0.4597  2.6663  0.6526
 5937TIP3   OH239301   3.131   4.783   1.300 -0.0085  0.2576  0.2216
 5937TIP3    H139302   3.180   4.832   1.234  1.0456  1.4034  1.7565
 5937TIP3    H239303   3.057   4.745   1.253  1.3365  0.0371 -1.8216
 5938TIP3   OH239304   2.840   0.109  11.773  0.0719 -0.1599  0.6971
 5938TIP3    H139305   2.757   0.117  11.725 -0.7326 -0.0822  2.0383
 5938TIP3    H239306   2.902   0.161  11.722 -0.5523 -0.6855 -0.6402
 5939TIP3   OH239307   6.042   4.331  14.156  0.4834 -0.5029 -0.0437
 5939TIP3    H139308   6.056   4.326  14.251 -2.2513  0.0697  0.4650
 5939TIP3    H239309   6.013   4.244  14.131 -2.3153  0.2207  0.3841
 5940TIP3   OH239310   3.016   6.533   4.458  0.7596 -0.3335  0.1934
 5940TIP3    H139311   3.094   6.588   4.453  1.7193 -1.6682 -0.1977
 5940TIP3    H239312   3.049   6.444   4.448 -0.7482 -0.9873  0.7188
 5941TIP3   OH239313   0.774   5.077  14.003 -0.2301  0.0088  0.7397
 5941TIP3    H139314   0.687   5.038  14.013 -0.0834 -0.4294  0.3726
 5941TIP3    H239315   0.811   5.032  13.927  0.1436  0.5154  0.6201
 5942TIP3   OH239316   5.147   1.930   1.540  0.4256 -1.0273  0.1450
 5942TIP3    H139317   5.141   1.981   1.459  1.8372 -0.8502  0.1328
 5942TIP3    H239318   5.203   1.983   1.597  1.7267 -2.4506  0.2249
 5943TIP3   OH239319   0.188   5.512  15.541 -1.0180 -0.5833 -0.3358
 5943TIP3    H139320   0.230   5.426  15.545 -2.0453 -1.0681  0.5699
 5943TIP3    H239321   0.192   5.544  15.631 -3.5111 -1.1145  0.0154
 5944TIP3   OH239322   0.042   4.555   1.472  0.2283  0.3936 -0.4074
 5944TIP3    H139323   0.069   4.537   1.382 -3.6931 -1.5418 -1.4375
 5944TIP3    H239324   0.032   4.650   1.475  2.4911  0.7216 -1.2561
 5945TIP3   OH239325   2.821   3.849   0.268  0.2856  0.4154 -0.6588
 5945TIP3    H139326   2.836   3.759   0.297  2.3487  0.4573 -1.4243
 5945TIP3    H239327   2.776   3.891   0.341 -0.0498 -1.0484 -0.0066
 5946TIP3   OH239328   6.641   4.175  12.644  0.0539 -0.6010  0.2742
 5946TIP3    H139329   6.709   4.130  12.694  0.3309  1.0736  1.5017
 5946TIP3    H239330   6.566   4.178  12.703  0.4030  1.4576  0.6780
 5947TIP3   OH239331   0.889   4.065  11.520  0.0632 -0.2412 -0.3846
 5947TIP3    H139332   0.812   4.017  11.490 -0.3430  0.5095 -0.5724
 5947TIP3    H239333   0.904   4.034  11.609 -0.5898 -0.2325 -0.2709
 5948TIP3   OH239334   6.162   4.348  15.249  0.5253  0.4559 -0.3296
 5948TIP3    H139335   6.190   4.279  15.189  0.9806  0.7113 -0.4180
 5948TIP3    H239336   6.161   4.427  15.194  0.3829  0.5862 -0.1379
 5949TIP3   OH239337   2.776   0.229  13.089 -0.1975  0.2579  0.8860
 5949TIP3    H139338   2.847   0.285  13.121 -0.0541 -1.2517  3.5097
 5949TIP3    H239339   2.699   0.259  13.136 -1.1104  1.1245 -1.0788
 5950TIP3   OH239340   2.258   4.990   2.043  0.5419 -0.3026  0.0213
 5950TIP3    H139341   2.241   4.940   2.123 -0.0140  2.8901  2.0614
 5950TIP3    H239342   2.176   4.985   1.994  0.0082 -0.2144  0.8828
 5951TIP3   OH239343   4.293   1.177   1.889  0.1988 -0.0409 -1.1653
 5951TIP3    H139344   4.382   1.142   1.880  0.4599  0.1732  0.2847
 5951TIP3    H239345   4.252   1.123   1.956  0.8400  2.6775  1.6629
 5952TIP3   OH239346   0.402   4.077  11.292  0.0730 -0.4683  0.0843
 5952TIP3    H139347   0.431   3.995  11.253 -1.5599 -0.7363 -0.6699
 5952TIP3    H239348   0.409   4.141  11.221 -1.5532 -0.6447 -0.2673
 5953TIP3   OH239349   6.407   2.897  12.099  0.2489  0.3681 -1.1572
 5953TIP3    H139350   6.494   2.899  12.138 -0.3625  0.0466  0.2860
 5953TIP3    H239351   6.423   2.902  12.004  1.8639 -0.6770 -0.9814
 5954TIP3   OH239352   1.622   3.961  15.022 -0.1279  0.7336 -0.5084
 5954TIP3    H139353   1.579   4.001  15.098 -1.6808  0.2720 -1.1064
 5954TIP3    H239354   1.697   3.913  15.060 -0.9349  0.4147  0.7526
 5955TIP3   OH239355   4.213   1.205  15.941  0.5674 -0.5239 -0.2111
 5955TIP3    H139356   4.122   1.232  15.946  0.5877 -0.2827 -1.0258
 5955TIP3    H239357   4.263   1.284  15.960  0.6173 -0.1398 -1.8186
 5956TIP3   OH239358   0.788   3.052   0.533 -0.3550 -0.4485  0.8052
 5956TIP3    H139359   0.786   3.147   0.524  1.4378 -0.2003  2.3408
 5956TIP3    H239360   0.797   3.037   0.627  1.0616 -2.0526  0.4699
 5957TIP3   OH239361   3.172   5.642   4.408  0.3831  1.0472 -0.3185
 5957TIP3    H139362   3.077   5.631   4.404  0.6425 -1.4648 -1.7017
 5957TIP3    H239363   3.200   5.650   4.317  1.7008 -1.0981 -0.1679
 5958TIP3   OH239364   0.498   4.472   4.108  0.1821  0.4064 -0.3275
 5958TIP3    H139365   0.590   4.497   4.100  0.5477 -0.4601  0.7587
 5958TIP3    H239366   0.453   4.553   4.130  0.5663  0.9638 -1.5155
 5959TIP3   OH239367   6.184   5.837   0.982  0.5938  0.1521 -0.1952
 5959TIP3    H139368   6.261   5.874   0.939  0.2362  0.0687 -0.9248
 5959TIP3    H239369   6.134   5.914   1.011  0.7561  0.2125 -0.0744
 5960TIP3   OH239370   1.220   5.078   4.642 -0.6919  0.5364 -0.6229
 5960TIP3    H139371   1.184   5.011   4.701  2.4296 -0.4625  0.3479
 5960TIP3    H239372   1.263   5.027   4.573  0.7222  1.5512 -0.5171
 5961TIP3   OH239373   2.994   1.490   3.591 -0.4681 -0.0749  0.4107
 5961TIP3    H139374   3.045   1.432   3.648 -0.7813 -0.9708 -0.1916
 5961TIP3    H239375   2.970   1.435   3.516  0.0211  1.0946 -0.6520
 5962TIP3   OH239376   5.878   6.178  12.237 -0.2345  0.0865 -0.0611
 5962TIP3    H139377   5.907   6.105  12.183 -0.1344 -0.5098  0.7742
 5962TIP3    H239378   5.851   6.138  12.320 -1.8144  0.8034 -0.1791
 5963TIP3   OH239379   2.662   2.110   5.063  0.1708 -0.3678 -0.2830
 5963TIP3    H139380   2.567   2.122   5.069 -0.0250 -1.4788 -0.8412
 5963TIP3    H239381   2.683   2.054   5.138  0.4915  0.3677  0.1878
 5964TIP3   OH239382   2.707   2.436  11.978 -0.3515  0.3827 -0.2248
 5964TIP3    H139383   2.749   2.521  11.964 -2.1483  1.4378  0.5068
 5964TIP3    H239384   2.716   2.420  12.072 -1.5113  0.5934 -0.0716
 5965TIP3   OH239385   1.250   1.369  14.448 -0.0706 -0.1024 -0.8263
 5965TIP3    H139386   1.209   1.301  14.502 -1.3428  0.8004 -0.6203
 5965TIP3    H239387   1.335   1.383  14.489 -0.1377 -0.9563 -0.3623
 5966TIP3   OH239388   3.114   5.136  17.304 -0.0706  0.4452  0.5139
 5966TIP3    H139389   3.095   5.061  17.248  1.0221 -0.3943  1.2225
 5966TIP3    H239390   3.060   5.207  17.269  0.2409 -0.1639 -1.3034
 5967TIP3   OH239391   6.066   3.420   3.886 -0.3984 -0.3350  0.0864
 5967TIP3    H139392   5.971   3.409   3.884 -0.8202  1.9695  2.3413
 5967TIP3    H239393   6.084   3.463   3.969  2.6485 -0.6149 -0.2993
 5968TIP3   OH239394   6.521   0.215  13.382 -0.1518  0.0741 -0.1013
 5968TIP3    H139395   6.605   0.255  13.405 -0.6801  1.1812 -0.0181
 5968TIP3    H239396   6.505   0.151  13.451  0.9634 -0.6789 -0.5154
 5969TIP3   OH239397   2.049   4.461   2.967 -0.2481  0.4876 -0.8799
 5969TIP3    H139398   1.980   4.448   3.031 -0.6970  1.8585 -1.0459
 5969TIP3    H239399   2.095   4.539   2.998  1.7106 -0.7920 -0.3694
 5970TIP3   OH239400   5.594   6.076   1.107  0.0041  0.0625 -0.2527
 5970TIP3    H139401   5.544   6.130   1.168  0.6805 -0.7912  1.0941
 5970TIP3    H239402   5.528   6.046   1.043 -1.2552 -0.9997  1.4454
 5971TIP3   OH239403   2.873   6.077   4.171 -0.0018  0.2936 -0.2772
 5971TIP3    H139404   2.893   5.997   4.221 -1.4364  0.7003  1.0308
 5971TIP3    H239405   2.881   6.051   4.080 -1.3762 -1.6358  0.0958
 5972TIP3   OH239406   6.692   5.075   6.071 -0.0386 -0.1902 -0.1601
 5972TIP3    H139407   6.742   5.057   6.150  0.8670 -0.5660 -0.8072
 5972TIP3    H239408   6.606   5.102   6.103 -0.5671 -2.8502  0.9347
 5973TIP3   OH239409   4.254   5.259   0.843 -0.0187 -0.4017  0.1902
 5973TIP3    H139410   4.274   5.228   0.755  2.5362 -0.5012  0.7059
 5973TIP3    H239411   4.291   5.347   0.846 -3.3138  1.1467  0.1181
 5974TIP3   OH239412   3.918   5.961  16.141  0.5003  0.9441 -0.9273
 5974TIP3    H139413   3.849   5.939  16.078 -0.3136  1.1331 -0.1221
 5974TIP3    H239414   3.894   5.913  16.220  0.4693  2.1829 -0.1658
 5975TIP3   OH239415   0.706   3.296  14.757 -0.1793  0.4938  0.1328
 5975TIP3    H139416   0.714   3.240  14.834  1.4531 -0.4139 -0.6401
 5975TIP3    H239417   0.612   3.293  14.735 -0.1699 -2.0810  0.0764
 5976TIP3   OH239418   3.510   4.535   1.662  0.6899 -0.1585  0.3803
 5976TIP3    H139419   3.567   4.541   1.585 -1.6244 -0.6067 -1.4811
 5976TIP3    H239420   3.449   4.464   1.641 -2.4066  2.1589  0.8805
 5977TIP3   OH239421   5.595   2.561   1.896 -0.5305 -0.4038 -0.4070
 5977TIP3    H139422   5.552   2.487   1.853  0.2370 -0.5663 -0.9155
 5977TIP3    H239423   5.565   2.556   1.987  0.3552 -2.0206 -0.1653
 5978TIP3   OH239424   5.018   2.610  16.127  0.3564 -0.8188  0.4322
 5978TIP3    H139425   4.938   2.616  16.075  0.9778 -2.1675 -0.7502
 5978TIP3    H239426   5.086   2.582  16.064  1.5418 -0.6606  1.5897
 5979TIP3   OH239427   6.629   5.066  15.212  0.2744  0.0809 -0.6166
 5979TIP3    H139428   6.571   5.138  15.237 -1.2898 -0.9234 -1.2086
 5979TIP3    H239429   6.636   5.012  15.291 -0.4587 -0.3415 -0.8308
 5980TIP3   OH239430   5.972   4.082  14.042  0.3024 -0.3658 -0.3676
 5980TIP3    H139431   5.942   4.006  14.092 -0.5063 -0.5903 -1.1767
 5980TIP3    H239432   6.068   4.073  14.040  0.2830 -0.8015  0.4095
 5981TIP3   OH239433   5.561   1.812   2.107 -0.5339 -0.2220  0.1915
 5981TIP3    H139434   5.506   1.738   2.132 -0.3680 -0.5362 -0.3622
 5981TIP3    H239435   5.591   1.791   2.019 -2.5718  1.6899 -1.0663
 5982TIP3   OH239436   0.962   0.754  16.684  0.0910 -0.2291 -0.4655
 5982TIP3    H139437   0.957   0.695  16.759 -0.2526  0.5111  0.1114
 5982TIP3    H239438   0.871   0.770  16.660  0.1897 -0.1369 -0.7866
 5983TIP3   OH239439   5.047   4.647   5.185 -0.0270  0.0147  0.1780
 5983TIP3    H139440   4.971   4.684   5.141 -2.0046 -2.9059  0.8425
 5983TIP3    H239441   5.100   4.609   5.115 -0.6651 -0.3887 -0.0928
 5984TIP3   OH239442   5.440   6.334   0.863 -0.3046 -0.3143 -0.0468
 5984TIP3    H139443   5.417   6.424   0.885  0.1577 -0.0822 -0.4733
 5984TIP3    H239444   5.391   6.280   0.924  0.4611  0.2745  1.1180
 5985TIP3   OH239445   1.135   3.317  12.755 -0.3479 -0.2232  0.1407
 5985TIP3    H139446   1.196   3.375  12.709  0.6169 -1.4277 -0.1524
 5985TIP3    H239447   1.052   3.364  12.753  0.7414  1.9086  1.3931
 5986TIP3   OH239448   0.641   2.168  12.936 -0.0305  0.7578 -0.1047
 5986TIP3    H139449   0.568   2.156  12.997 -0.4590  1.0316 -0.5620
 5986TIP3    H239450   0.637   2.260  12.911  0.4513  0.7674 -0.1662
 5987TIP3   OH239451   2.676   5.898   2.168 -0.4363  0.6473 -0.1566
 5987TIP3    H139452   2.661   5.882   2.075  1.3348 -0.6221 -0.2821
 5987TIP3    H239453   2.771   5.902   2.176 -0.5721  1.1518  1.5488
 5988TIP3   OH239454   1.656   6.330   5.131  0.1350  0.0876 -0.6553
 5988TIP3    H139455   1.643   6.368   5.044  1.6186  1.4456 -0.3259
 5988TIP3    H239456   1.638   6.402   5.191 -1.9266 -1.1156  0.2630
 5989TIP3   OH239457   2.358   0.140  16.989 -0.3835  0.3799 -0.5195
 5989TIP3    H139458   2.350   0.223  17.036 -0.8540 -0.2771  0.5982
 5989TIP3    H239459   2.432   0.153  16.930 -0.5407  1.6363 -0.4637
 5990TIP3   OH239460   4.651   1.300  15.832  0.0535 -0.2528 -0.1021
 5990TIP3    H139461   4.583   1.241  15.800  0.4948 -0.9816  0.2841
 5990TIP3    H239462   4.716   1.303  15.763  0.3601 -0.7603  0.1645
 5991TIP3   OH239463   2.616   3.849   0.577 -0.1384  0.1293  0.4342
 5991TIP3    H139464   2.586   3.900   0.652 -1.8667  1.0982 -0.8258
 5991TIP3    H239465   2.547   3.861   0.511  1.4787 -0.3315 -1.4516
 5992TIP3   OH239466   2.030   2.789   2.415  0.2600  0.2963  0.4300
 5992TIP3    H139467   1.942   2.754   2.403 -0.3720  1.0843  2.3941
 5992TIP3    H239468   2.025   2.878   2.378 -0.1769  0.8149  1.6846
 5993TIP3   OH239469   3.988   3.170  16.719  0.0422  0.0978 -0.0003
 5993TIP3    H139470   3.999   3.078  16.740  3.8791  0.9057  2.3210
 5993TIP3    H239471   3.991   3.173  16.623 -0.4492 -2.1670 -0.1373
 5994TIP3   OH239472   3.134   0.116   4.588 -0.5998 -0.7101  0.1867
 5994TIP3    H139473   3.074   0.183   4.556  0.3128 -0.9039 -2.0823
 5994TIP3    H239474   3.142   0.054   4.516  2.5469 -0.5324  0.2702
 5995TIP3   OH239475   3.307   2.446  13.190 -0.0955 -0.4058 -0.7754
 5995TIP3    H139476   3.325   2.382  13.120  2.4989 -1.5560  0.7972
 5995TIP3    H239477   3.328   2.531  13.150  0.0295 -0.8927 -1.7853
 5996TIP3   OH239478   0.405   1.534   0.247  0.5012  0.0542  0.3329
 5996TIP3    H139479   0.429   1.464   0.186 -0.7373 -0.8689  0.8704
 5996TIP3    H239480   0.488   1.576   0.269  1.2661 -1.2076 -0.0485
 5997TIP3   OH239481   0.002   4.979  12.947 -0.8285 -0.1176  0.0171
 5997TIP3    H139482  -0.038   5.066  12.954 -0.8132 -0.1743  0.8320
 5997TIP3    H239483   0.032   4.974  12.856  1.2321  1.6345  0.5221
 5998TIP3   OH239484   0.813   3.173  14.245  0.0909 -0.1574  0.2311
 5998TIP3    H139485   0.824   3.081  14.269  1.8436  0.3858  1.7187
 5998TIP3    H239486   0.831   3.221  14.325  0.7396  1.5584 -0.8948
 5999TIP3   OH239487   2.748   0.574   5.798 -0.1468  0.1784  0.1758
 5999TIP3    H139488   2.694   0.621   5.734  1.4411  1.4507 -0.3030
 5999TIP3    H239489   2.687   0.551   5.868 -1.3475  1.3844 -0.4125
 6000TIP3   OH239490   4.244   4.373  12.355  0.1717  0.4769 -0.2040
 6000TIP3    H139491   4.224   4.308  12.288 -0.3843 -0.1111  0.5257
 6000TIP3    H239492   4.159   4.395  12.393  0.6848 -0.7177  1.7148
 6001TIP3   OH239493   5.568   4.572  16.164  0.6573 -0.1785 -0.6492
 6001TIP3    H139494   5.571   4.585  16.069  0.9765 -0.1561 -0.6376
 6001TIP3    H239495   5.507   4.638  16.195 -1.5363 -1.8868 -1.1246
 6002TIP3   OH239496   3.422   0.844  15.923 -0.0419 -0.0977  0.5749
 6002TIP3    H139497   3.439   0.930  15.962  0.4855  0.5203 -0.9345
 6002TIP3    H239498   3.494   0.831  15.862 -2.7503  0.8747 -3.2158
 6003TIP3   OH239499   0.455   2.275  16.268 -0.5140  0.1533 -0.5286
 6003TIP3    H139500   0.524   2.340  16.260 -1.9178  1.5311 -2.4250
 6003TIP3    H239501   0.480   2.205  16.208 -0.5855  0.4864 -0.9480
 6004TIP3   OH239502   1.447   4.563  12.768 -0.1813  0.1449  0.7172
 6004TIP3    H139503   1.355   4.540  12.759  0.2577 -2.5516  2.1288
 6004TIP3    H239504   1.481   4.564  12.679 -1.3283  0.0766  0.2697
 6005TIP3   OH239505   2.647   2.783   1.892 -0.9081  0.3537 -0.0389
 6005TIP3    H139506   2.554   2.762   1.898 -0.6414 -0.9608 -0.0550
 6005TIP3    H239507   2.686   2.739   1.967 -0.4933  2.2610  0.9263
 6006TIP3   OH239508   5.455   1.648  16.165  0.1495  0.0788  0.4254
 6006TIP3    H139509   5.405   1.729  16.163  1.1279  0.7324 -2.3529
 6006TIP3    H239510   5.530   1.667  16.222  0.3829  1.1639 -0.2177
 6007TIP3   OH239511   5.889   6.006  16.046 -0.0035 -0.2204 -0.2262
 6007TIP3    H139512   5.950   6.023  15.973 -1.8432 -0.3989 -1.8874
 6007TIP3    H239513   5.859   6.093  16.072  1.4916 -0.0630  1.1620
 6008TIP3   OH239514   3.373   3.020   3.914 -0.4149 -0.1008 -0.2269
 6008TIP3    H139515   3.368   3.039   4.008 -2.1427 -1.0545 -0.0948
 6008TIP3    H239516   3.466   3.009   3.897 -0.1631 -1.3932  1.6889
 6009TIP3   OH239517   6.003   3.160  16.547  0.0038  0.6951 -0.6154
 6009TIP3    H139518   5.938   3.227  16.529 -0.4799  0.6746  0.8803
 6009TIP3    H239519   5.957   3.097  16.604  0.8423 -0.1803 -0.8800
 6010TIP3   OH239520   0.786   2.094   2.525 -0.0425  0.0116  0.6446
 6010TIP3    H139521   0.789   2.188   2.506 -0.0070 -0.1361 -0.0898
 6010TIP3    H239522   0.712   2.084   2.586 -2.2174  0.0887 -1.8069
 6011TIP3   OH239523   4.345   2.016  14.389 -0.2125  0.6097 -0.5981
 6011TIP3    H139524   4.344   1.926  14.358 -1.4119 -0.4025  2.1379
 6011TIP3    H239525   4.433   2.048  14.366  0.4069 -1.3862 -1.2117
 6012TIP3   OH239526   3.068   4.661  12.967  0.1494 -0.2541  0.0910
 6012TIP3    H139527   3.125   4.595  12.928  2.8135  1.1549  1.3872
 6012TIP3    H239528   3.081   4.739  12.913 -2.0454 -0.3575 -0.6956
 6013TIP3   OH239529   0.596   2.453  12.867  0.3683 -0.3586 -0.0317
 6013TIP3    H139530   0.682   2.446  12.908  0.0749  0.0396  0.6793
 6013TIP3    H239531   0.613   2.495  12.783  0.8492 -0.0989  0.1874
 6014TIP3   OH239532   3.253   1.795  12.878 -0.2556 -0.0803 -0.1833
 6014TIP3    H139533   3.282   1.716  12.925  0.2839 -0.2897 -0.8533
 6014TIP3    H239534   3.164   1.775  12.849  0.2060 -0.8020 -1.1323
 6015TIP3   OH239535   3.365   3.603   4.093  0.4963 -0.7175  0.4060
 6015TIP3    H139536   3.368   3.552   4.012  0.5381  0.1783 -0.1687
 6015TIP3    H239537   3.456   3.620   4.115  0.5124 -1.6101  1.0720
 6016TIP3   OH239538   3.887   1.754  15.848  0.6658 -0.8694 -0.7656
 6016TIP3    H139539   3.837   1.673  15.849 -0.3422 -0.2995 -1.8104
 6016TIP3    H239540   3.836   1.815  15.901  0.7986 -0.5875 -0.9568
 6017TIP3   OH239541   5.468   6.785  15.735  0.7057  0.0013  0.0042
 6017TIP3    H139542   5.436   6.746  15.816  0.7264 -0.6413 -0.2861
 6017TIP3    H239543   5.563   6.789  15.746  0.6292  0.9429  0.4475
 6018TIP3   OH239544   5.457   1.601   6.498 -0.0078 -0.5574 -0.2305
 6018TIP3    H139545   5.460   1.646   6.414  2.9636 -1.0945 -0.5346
 6018TIP3    H239546   5.541   1.622   6.539 -1.5949  0.2556  2.9770
 6019TIP3   OH239547   3.695   2.202   2.240  0.1125 -0.1837  0.2914
 6019TIP3    H139548   3.652   2.238   2.318  1.1799  1.1673  0.2795
 6019TIP3    H239549   3.764   2.264   2.219  0.6284 -1.1533 -1.0352
 6020TIP3   OH239550   4.040   1.068  13.811 -0.0095 -0.5869  0.5215
 6020TIP3    H139551   3.995   1.063  13.726  0.4015  3.5781 -0.1586
 6020TIP3    H239552   4.121   1.019  13.798 -0.2469 -0.5729 -1.2942
 6021TIP3   OH239553   6.648   0.678  13.555 -0.1456 -0.0968  0.2025
 6021TIP3    H139554   6.663   0.591  13.519  0.4001 -0.1042  0.4339
 6021TIP3    H239555   6.618   0.662  13.645  1.2642 -0.0338  0.7085
 6022TIP3   OH239556   5.183   2.832   5.327  0.5876 -0.1451 -0.4927
 6022TIP3    H139557   5.251   2.900   5.316 -0.7403  1.2810 -0.2490
 6022TIP3    H239558   5.164   2.803   5.238  1.3832 -0.4238 -0.5790
 6023TIP3   OH239559   0.140   4.546  12.169  0.4426  0.3876  0.3353
 6023TIP3    H139560   0.121   4.633  12.204  1.7320 -0.0675  2.3611
 6023TIP3    H239561   0.179   4.562  12.083  0.6902  1.8148  0.6914
 6024TIP3   OH239562   2.080   5.459   1.791 -0.2490  0.0253 -0.4382
 6024TIP3    H139563   2.026   5.393   1.835  0.4109  0.3078  0.8618
 6024TIP3    H239564   2.030   5.540   1.800  0.0884  0.1692  0.2211
 6025TIP3   OH239565   5.099   2.374  11.276  0.1250 -0.3599 -0.3744
 6025TIP3    H139566   5.154   2.345  11.349 -0.1561 -1.4369 -0.5737
 6025TIP3    H239567   5.148   2.350  11.197  0.9143  1.7269 -0.5931
 6026TIP3   OH239568   0.901   1.927  15.617  0.0113 -0.2123 -0.6588
 6026TIP3    H139569   0.864   1.875  15.688  0.8400  1.5523  1.1660
 6026TIP3    H239570   0.994   1.902  15.616  0.6560  1.8803  0.9590
 6027TIP3   OH239571   1.076   5.810  15.176 -0.2409  0.0815  0.9111
 6027TIP3    H139572   0.992   5.798  15.132 -1.0908  2.0326  1.8451
 6027TIP3    H239573   1.109   5.722  15.192 -0.6348 -0.7267 -2.1526
 6028TIP3   OH239574   1.269   3.470   4.818  0.3424 -0.1923 -0.0509
 6028TIP3    H139575   1.245   3.433   4.733  0.0824 -1.3465  0.5008
 6028TIP3    H239576   1.359   3.502   4.806 -0.4806  1.8574 -1.4112
 6029TIP3   OH239577   0.418   3.301   4.908 -0.3273 -0.0933 -0.1029
 6029TIP3    H139578   0.444   3.301   5.000  3.0634 -1.2760 -0.8960
 6029TIP3    H239579   0.338   3.248   4.905 -0.1986 -0.4737  2.0775
 6030TIP3   OH239580   6.088   5.969  17.055 -0.2915  0.3452 -0.5642
 6030TIP3    H139581   6.025   5.926  17.113  1.3899 -0.5888  0.6985
 6030TIP3    H239582   6.074   5.930  16.969  0.2632 -1.8099  0.2595
 6031TIP3   OH239583   2.011   2.224   2.563 -0.1871  0.1533 -0.0643
 6031TIP3    H139584   1.959   2.172   2.503  0.2947 -2.1435  1.3980
 6031TIP3    H239585   1.949   2.256   2.628 -0.2453  0.0654 -0.0770
 6032TIP3   OH239586   5.534   0.620   3.657  0.1481 -0.5569  0.1982
 6032TIP3    H139587   5.568   0.542   3.699 -0.6665 -1.4942 -0.8318
 6032TIP3    H239588   5.485   0.666   3.726  1.7379 -0.2180  1.1607
 6033TIP3   OH239589   4.336   4.219  17.224  0.0976  0.3635 -0.4951
 6033TIP3    H139590   4.351   4.241  17.316  0.8581  0.0117 -0.5347
 6033TIP3    H239591   4.263   4.277  17.198  0.7936  1.4723 -0.0632
 6034TIP3   OH239592   0.647   4.693  11.162 -0.4505 -0.0090 -0.1750
 6034TIP3    H139593   0.596   4.632  11.109  1.0309 -0.4672 -1.1352
 6034TIP3    H239594   0.686   4.754  11.098 -0.6113  0.9496  0.6216
 6035TIP3   OH239595   0.692   5.434  15.770 -0.0407  0.0107 -0.3504
 6035TIP3    H139596   0.606   5.417  15.810 -0.0611  2.2976  0.7249
 6035TIP3    H239597   0.751   5.443  15.845  1.0931 -1.1023 -1.0732
 6036TIP3   OH239598   1.187   2.832   2.811 -0.1766  0.3607 -0.4827
 6036TIP3    H139599   1.238   2.817   2.890 -0.3328  1.7957 -0.0876
 6036TIP3    H239600   1.217   2.917   2.778 -0.0716 -0.2274 -2.0048
 6037TIP3   OH239601   2.808   3.900  11.729  0.2473  0.5549  0.5753
 6037TIP3    H139602   2.727   3.851  11.745  1.5611 -1.9816  0.1240
 6037TIP3    H239603   2.798   3.936  11.641 -0.2579 -0.0574  0.3719
 6038TIP3   OH239604   0.076   1.687  13.241 -0.5998 -0.2928  0.1791
 6038TIP3    H139605   0.119   1.645  13.316 -0.6201  0.5916  0.7119
 6038TIP3    H239606  -0.017   1.667  13.252 -0.3503 -2.4762 -1.1481
 6039TIP3   OH239607   6.361   1.082  13.812  0.4865 -0.2230 -0.1814
 6039TIP3    H139608   6.374   0.988  13.819 -2.3085 -0.8116 -1.5916
 6039TIP3    H239609   6.343   1.110  13.902  3.1278 -0.6073  0.5620
 6040TIP3   OH239610   1.590   4.423  16.878 -0.0598  0.4340 -0.6458
 6040TIP3    H139611   1.586   4.393  16.787 -1.7676  1.2969 -0.9180
 6040TIP3    H239612   1.666   4.379  16.915 -1.3044 -2.7103 -1.5039
 6041TIP3   OH239613   0.857   5.443   3.091 -0.6574  0.2582  0.0595
 6041TIP3    H139614   0.949   5.415   3.087 -0.5374  0.7710 -1.3619
 6041TIP3    H239615   0.843   5.465   3.183 -0.1810 -2.4749  0.9040
 6042TIP3   OH239616   2.283   0.113   1.460  0.3842  0.0585 -0.4271
 6042TIP3    H139617   2.275   0.025   1.422 -0.3357 -0.5968  1.1798
 6042TIP3    H239618   2.377   0.132   1.454  0.4292 -0.4251 -1.6127
 6043TIP3   OH239619   6.493   4.063   2.980 -0.0029  0.7113  0.3664
 6043TIP3    H139620   6.492   4.080   3.074  2.0774  1.3136  0.3291
 6043TIP3    H239621   6.585   4.069   2.955 -0.1920 -1.7279 -1.3236
 6044TIP3   OH239622   6.638   5.777   6.067 -0.4993 -0.1519  0.3385
 6044TIP3    H139623   6.668   5.692   6.098  0.5460  0.4177  0.9685
 6044TIP3    H239624   6.708   5.838   6.093 -0.5144  0.6744 -1.3933
 6045TIP3   OH239625   6.459   1.373  15.236 -0.1103 -0.1068  0.4551
 6045TIP3    H139626   6.513   1.450  15.217  1.0223 -0.4714  2.0705
 6045TIP3    H239627   6.375   1.393  15.194  0.7511  1.1734 -0.7501
 6046TIP3   OH239628   2.251   3.574  13.509  0.3885  0.4154  0.5575
 6046TIP3    H139629   2.246   3.497  13.452 -0.6363  0.1696  0.9502
 6046TIP3    H239630   2.344   3.588  13.523  0.5957 -0.5865  0.2588
 6047TIP3   OH239631   0.124   6.068  12.803 -0.5572 -0.0456 -0.3488
 6047TIP3    H139632   0.121   6.163  12.813  0.6000 -0.1290  0.9853
 6047TIP3    H239633   0.204   6.052  12.753  0.1080 -0.4036  0.8102
 6048TIP3   OH239634   2.252   0.102   1.048  0.8346 -0.3037 -0.0857
 6048TIP3    H139635   2.158   0.118   1.055  1.0934  1.0712  0.6291
 6048TIP3    H239636   2.284   0.108   1.138  1.4946 -1.6378 -0.2083
 6049TIP3   OH239637   1.071   3.317   0.469  0.1924 -0.5000 -0.1939
 6049TIP3    H139638   1.150   3.286   0.426 -0.6219 -1.9338 -0.7452
 6049TIP3    H239639   1.007   3.324   0.398 -0.1216  0.8579  0.2052
 6050TIP3   OH239640   6.698   3.717   5.775  0.5321  0.7593 -0.3454
 6050TIP3    H139641   6.664   3.679   5.694 -0.4149  1.4772 -0.2942
 6050TIP3    H239642   6.781   3.672   5.789 -0.4043 -1.0737 -0.4471
 6051TIP3   OH239643   6.442   4.050   2.248  0.1897  0.2223  0.0418
 6051TIP3    H139644   6.430   4.061   2.153  0.1395  0.3488  0.0630
 6051TIP3    H239645   6.437   3.956   2.261 -2.6644  0.3129  0.2907
 6052TIP3   OH239646   4.222   2.555   0.143 -0.8251  0.3296  0.0536
 6052TIP3    H139647   4.274   2.488   0.188 -0.6929  0.5753  0.2645
 6052TIP3    H239648   4.271   2.636   0.155 -0.5352  0.3221 -0.9355
 6053TIP3   OH239649   6.355   2.440   5.730 -0.1937 -0.3298 -0.4015
 6053TIP3    H139650   6.312   2.515   5.772  0.9158 -0.5680  1.2942
 6053TIP3    H239651   6.445   2.444   5.762  0.8141 -0.4373 -3.0256
 6054TIP3   OH239652   0.870   6.762   2.909  0.2984  0.2586  0.0384
 6054TIP3    H139653   0.815   6.706   2.964  0.5575 -0.4120 -0.3737
 6054TIP3    H239654   0.944   6.707   2.885 -0.1316  0.2961 -1.5333
 6055TIP3   OH239655   6.708   2.662  14.395 -0.2462 -0.0154 -0.1626
 6055TIP3    H139656   6.681   2.603  14.465 -0.3761 -0.2077 -0.3754
 6055TIP3    H239657   6.640   2.654  14.328  1.3232 -2.0948 -1.6432
 6056TIP3   OH239658   0.851   2.576   5.842  0.8987  0.6730  0.1442
 6056TIP3    H139659   0.807   2.507   5.892 -1.3820  2.2823  0.5079
 6056TIP3    H239660   0.791   2.594   5.770  2.1404  1.3351 -0.7619
 6057TIP3   OH239661   5.247   6.473  12.950 -0.1850 -0.0130 -0.8816
 6057TIP3    H139662   5.255   6.556  12.997 -0.6434 -0.0833 -0.6730
 6057TIP3    H239663   5.330   6.427  12.967  0.6062  0.9219 -2.0395
 6058TIP3   OH239664   3.398   6.783  16.342 -0.3482  0.2074 -0.3995
 6058TIP3    H139665   3.336   6.727  16.294  1.3229 -0.5893 -1.7197
 6058TIP3    H239666   3.477   6.782  16.289  0.9877  0.7861  1.4845
 6059TIP3   OH239667   3.019   2.472   8.221 -0.1033  0.2222  0.7624
 6059TIP3    H139668   3.055   2.556   8.249 -0.7717  0.8819 -0.3092
 6059TIP3    H239669   2.980   2.435   8.301  0.8473  0.5705  1.4024
 6060TIP3   OH239670   0.656   1.452   4.372 -0.2257 -0.2933 -0.0516
 6060TIP3    H139671   0.714   1.504   4.316 -0.3565 -1.8234 -1.6945
 6060TIP3    H239672   0.624   1.382   4.315 -0.8053 -1.6232  1.8083
 6061TIP3   OH239673   1.520   3.867  15.962 -0.1734 -0.7535 -0.3345
 6061TIP3    H139674   1.550   3.882  16.052 -2.5368 -0.4623  0.4809
 6061TIP3    H239675   1.600   3.848  15.913  1.0851 -2.1690  2.0664
 6062TIP3   OH239676   0.236   6.642  15.288 -0.0321 -0.0148 -0.0175
 6062TIP3    H139677   0.189   6.672  15.366 -1.7802 -2.1787 -0.1340
 6062TIP3    H239678   0.274   6.558  15.313  1.6408  0.5043 -0.7332
 6063TIP3   OH239679   6.787   2.690  12.818  0.0861 -0.2637 -0.1626
 6063TIP3    H139680   6.703   2.716  12.780  0.4035  0.3677 -0.4531
 6063TIP3    H239681   6.846   2.763  12.798  0.5806 -0.4850  0.4646
 6064TIP3   OH239682   6.247   1.417   3.874 -0.8099 -0.0623  0.2665
 6064TIP3    H139683   6.247   1.513   3.878 -1.7928  0.0003 -0.9734
 6064TIP3    H239684   6.335   1.394   3.846 -0.8717  0.5425 -0.4527
 6065TIP3   OH239685   3.840   0.032  12.320  0.4398  0.0295 -0.1164
 6065TIP3    H139686   3.778   0.105  12.311 -0.3517 -0.5981  0.1601
 6065TIP3    H239687   3.926   0.072  12.303 -0.0482  0.8759 -0.6675
 6066TIP3   OH239688   5.081   4.443   3.266  0.6581  0.2194  0.0598
 6066TIP3    H139689   5.175   4.460   3.271  0.8201 -1.0219  2.2860
 6066TIP3    H239690   5.074   4.351   3.240  0.0157  0.4476 -0.6303
 6067TIP3   OH239691   4.258   5.943   4.771  0.1602 -0.0111 -0.1715
 6067TIP3    H139692   4.207   5.986   4.702 -0.6763  0.8298  0.9333
 6067TIP3    H239693   4.234   5.850   4.763  0.6147 -0.0428 -1.4365
 6068TIP3   OH239694   1.633   2.536  14.227 -0.6984 -0.0415 -0.1635
 6068TIP3    H139695   1.571   2.608  14.215 -0.3268  0.0110 -2.0632
 6068TIP3    H239696   1.579   2.464  14.258 -1.7777 -0.0041 -1.8151
 6069TIP3   OH239697   3.102   3.818  10.678  0.1371  0.1438  0.1271
 6069TIP3    H139698   3.011   3.843  10.659 -0.2584 -0.7726  0.7233
 6069TIP3    H239699   3.096   3.726  10.704  1.4812 -0.4992 -1.6427
 6070TIP3   OH239700   2.843   2.075   0.354 -0.2720  0.6376 -0.3313
 6070TIP3    H139701   2.919   2.086   0.297  0.4117 -0.2375  0.3810
 6070TIP3    H239702   2.771   2.055   0.294  0.2819  0.4115 -0.9331
 6071TIP3   OH239703   4.276   6.546  13.014  0.8245  0.1209  0.0025
 6071TIP3    H139704   4.229   6.607  13.070 -1.4524 -0.5044 -1.1016
 6071TIP3    H239705   4.286   6.467  13.068  0.8397  0.3467  0.3313
 6072TIP3   OH239706   5.199   1.682   1.703 -0.2124 -0.1769  0.3269
 6072TIP3    H139707   5.213   1.749   1.771 -1.1215 -0.3231  0.6774
 6072TIP3    H239708   5.181   1.733   1.624  0.3386 -0.0083  0.3010
 6073TIP3   OH239709   2.836   1.103   4.475  0.5965 -0.0359  0.3717
 6073TIP3    H139710   2.922   1.144   4.470  0.4669  0.2102  0.1254
 6073TIP3    H239711   2.809   1.091   4.384  1.0742 -1.6175  0.4166
 6074TIP3   OH239712   3.461   5.728   2.860  0.5781  0.2571  0.8782
 6074TIP3    H139713   3.399   5.692   2.797  1.4882 -1.4797  0.9176
 6074TIP3    H239714   3.427   5.703   2.946  0.7064  0.3209  0.9492
 6075TIP3   OH239715   4.394   0.521  12.919 -0.0545 -0.2530 -0.5500
 6075TIP3    H139716   4.480   0.486  12.945  1.4213  2.4841 -1.3603
 6075TIP3    H239717   4.398   0.614  12.942 -2.3543  0.2180 -1.7521
 6076TIP3   OH239718   2.253   0.986  15.496 -0.0864 -0.2261 -0.6231
 6076TIP3    H139719   2.193   0.950  15.561  2.2748 -0.6083  1.4872
 6076TIP3    H239720   2.255   1.080  15.513 -1.4927  0.1007 -2.0086
 6077TIP3   OH239721   1.276   1.582  14.128  0.6748 -0.4718  0.1558
 6077TIP3    H139722   1.338   1.631  14.181  0.1526 -0.6578  0.9508
 6077TIP3    H239723   1.308   1.491  14.131 -0.3379 -0.8192  1.6720
 6078TIP3   OH239724   2.527   4.449  17.088  0.6001  0.2794 -0.4107
 6078TIP3    H139725   2.470   4.373  17.095  0.4385  0.4774  0.6502
 6078TIP3    H239726   2.613   4.417  17.115  0.0190  1.0023  2.7164
 6079TIP3   OH239727   4.010   4.672   1.592 -0.2231 -0.1107  0.1671
 6079TIP3    H139728   3.941   4.664   1.657  0.0033 -0.3826  0.3773
 6079TIP3    H239729   4.089   4.693   1.642 -0.5546  2.4517 -0.2428
 6080TIP3   OH239730   1.412   5.536  15.209  0.6883 -0.1511  0.3906
 6080TIP3    H139731   1.442   5.613  15.160  2.6000 -0.8376  0.3938
 6080TIP3    H239732   1.316   5.541  15.205  0.6883  0.0117 -3.1678
 6081TIP3   OH239733   5.351   3.087  14.589 -0.0379 -0.1471  0.1160
 6081TIP3    H139734   5.284   3.079  14.522  0.4746  1.7269 -0.6806
 6081TIP3    H239735   5.434   3.091  14.541  0.5569 -1.1130  1.0114
 6082TIP3   OH239736   4.719   5.616   1.254  0.0068 -0.4414 -0.1285
 6082TIP3    H139737   4.717   5.709   1.277 -0.5301 -0.9399  2.1052
 6082TIP3    H239738   4.635   5.601   1.211 -0.4560 -0.1132  0.6294
 6083TIP3   OH239739   4.095   1.433   4.475  0.0046  0.3113 -0.6852
 6083TIP3    H139740   4.188   1.445   4.455 -0.0730  0.5896 -0.8823
 6083TIP3    H239741   4.058   1.395   4.396  0.1958 -1.0285 -0.1580
 6084TIP3   OH239742   2.216   1.657   0.015  0.3466  0.7960  0.3227
 6084TIP3    H139743   2.282   1.601   0.055 -0.9911 -0.2966  1.1213
 6084TIP3    H239744   2.250   1.745   0.026  2.5993  0.1804 -1.1270
 6085TIP3   OH239745   0.503   2.082   4.170  0.6256  0.4918  0.4312
 6085TIP3    H139746   0.579   2.081   4.112  0.0777 -1.6656 -0.3249
 6085TIP3    H239747   0.428   2.074   4.111  0.0449 -1.5479  1.3720
 6086TIP3   OH239748   1.577   6.041  14.257  0.1980 -0.6297 -0.6066
 6086TIP3    H139749   1.588   5.955  14.298 -0.6730 -0.3578  0.2229
 6086TIP3    H239750   1.584   6.023  14.163  1.1782 -1.4222 -0.4022
 6087TIP3   OH239751   6.374   0.971   3.793 -0.1015  0.0315 -0.0102
 6087TIP3    H139752   6.393   0.956   3.885  0.7541 -0.5767 -0.2822
 6087TIP3    H239753   6.448   0.933   3.746 -2.0517 -2.6691 -1.1172
 6088TIP3   OH239754   6.662   2.968  11.559  0.4772 -0.0946 -0.2141
 6088TIP3    H139755   6.737   3.026  11.552  0.2625  0.1840 -0.2035
 6088TIP3    H239756   6.700   2.883  11.584  0.5055  0.8454  3.4313
 6089TIP3   OH239757   3.899   4.184   6.718  0.0546 -0.0373  0.2611
 6089TIP3    H139758   3.834   4.180   6.788 -0.1629 -1.7312 -0.0055
 6089TIP3    H239759   3.860   4.241   6.652 -0.2654  0.5773  0.9612
 6090TIP3   OH239760   0.324   4.768  17.319 -0.1509  0.0424 -0.4463
 6090TIP3    H139761   0.236   4.744  17.292 -0.4587  0.4337  0.1931
 6090TIP3    H239762   0.340   4.853  17.276 -0.7248  0.7713  0.7518
 6091TIP3   OH239763   5.086   4.043   2.624  0.1757 -0.2135 -0.7350
 6091TIP3    H139764   5.078   4.093   2.705 -1.1463  0.8552 -1.4747
 6091TIP3    H239765   5.133   4.102   2.564 -1.5994  0.3038 -1.6888
 6092TIP3   OH239766   6.067   0.940  14.762  0.1597  0.0976  0.7080
 6092TIP3    H139767   6.017   1.007  14.808 -1.3641 -0.1137 -0.5633
 6092TIP3    H239768   6.063   0.863  14.819  0.9878  0.7475  1.6628
 6093TIP3   OH239769   0.995   5.174   2.691  0.0601  0.6787  0.3184
 6093TIP3    H139770   1.086   5.186   2.716  0.8662  0.9606 -2.4565
 6093TIP3    H239771   0.964   5.262   2.670 -0.5957  0.4670  0.3647
 6094TIP3   OH239772   4.095   3.086   3.837  0.6858  0.7261  0.4661
 6094TIP3    H139773   4.181   3.114   3.869  0.1545  0.8383  1.8764
 6094TIP3    H239774   4.047   3.062   3.917 -1.2289  2.4290 -0.0989
 6095TIP3   OH239775   1.276   2.885  15.068  0.2750  0.0239  0.0862
 6095TIP3    H139776   1.192   2.870  15.024 -0.3738  1.6015  0.7174
 6095TIP3    H239777   1.255   2.941  15.142  2.2057  2.4963 -1.1067
 6096TIP3   OH239778   1.819   3.853  15.959 -0.5429 -0.1189  0.0254
 6096TIP3    H139779   1.841   3.798  16.034 -1.7536 -0.1214  0.3983
 6096TIP3    H239780   1.811   3.941  15.996 -0.7504 -0.0564 -0.1685
 6097TIP3   OH239781   6.543   3.471  14.422 -0.2883  0.1690  0.8921
 6097TIP3    H139782   6.484   3.442  14.352  0.3739  0.3323  0.2526
 6097TIP3    H239783   6.629   3.441  14.395  0.1296  1.0965  1.1400
 6098TIP3   OH239784   3.230   2.708  13.453 -0.3978 -0.4035 -0.4173
 6098TIP3    H139785   3.229   2.800  13.427 -0.2133  0.2921  1.7929
 6098TIP3    H239786   3.193   2.708  13.541  0.4513 -2.3239 -0.0085
 6099TIP3   OH239787   5.987   4.870   5.119  0.3216  0.1336  0.3864
 6099TIP3    H139788   5.932   4.856   5.196  0.0772  0.3007  0.2444
 6099TIP3    H239789   6.013   4.962   5.125  0.1276  0.2023  0.1544
 6100TIP3   OH239790   4.390   4.880  11.346 -0.7349  0.0414  0.3476
 6100TIP3    H139791   4.363   4.846  11.431  0.6243  0.4632  0.9761
 6100TIP3    H239792   4.431   4.964  11.366  0.3622 -0.2442 -0.6135
 6101TIP3   OH239793   2.183   2.067  10.751  0.4557 -0.1543  0.1092
 6101TIP3    H139794   2.141   1.981  10.756 -0.0932  0.1553  1.0663
 6101TIP3    H239795   2.131   2.123  10.809  1.5017  0.5297  0.4241
 6102TIP3   OH239796   3.288   4.962  13.773  0.0232  0.5453 -0.1515
 6102TIP3    H139797   3.350   5.033  13.753  0.5149 -0.4118 -2.3039
 6102TIP3    H239798   3.214   5.006  13.815  1.3020  1.9852  0.7281
 6103TIP3   OH239799   1.466   1.206  11.633 -0.0117 -0.3773  0.3754
 6103TIP3    H139800   1.486   1.114  11.647 -0.7821 -0.4591  1.0044
 6103TIP3    H239801   1.381   1.219  11.676 -0.0029  0.5754  0.1262
 6104TIP3   OH239802   4.087   6.763  17.360 -0.6098 -0.8202 -0.2060
 6104TIP3    H139803   4.116   6.751  17.269  1.9794  0.3257  0.3854
 6104TIP3    H239804   4.070   6.857  17.367  2.0744 -0.3520  1.1714
 6105TIP3   OH239805   2.196   0.519  10.808 -0.2102 -0.1512  0.5863
 6105TIP3    H139806   2.192   0.582  10.881 -0.3217  0.0089  0.4454
 6105TIP3    H239807   2.110   0.527  10.767  0.1358  0.3476 -0.0527
 6106TIP3   OH239808   3.121   1.693   3.725  0.6956 -0.5036 -0.2758
 6106TIP3    H139809   3.104   1.631   3.653  2.0902 -1.1044 -0.1286
 6106TIP3    H239810   3.216   1.707   3.722  0.5740  0.5951  0.5534
 6107TIP3   OH239811   3.152   4.505   3.547  0.1162 -0.0672  0.1720
 6107TIP3    H139812   3.209   4.525   3.621  1.8009  0.0372 -1.1123
 6107TIP3    H239813   3.067   4.543   3.572  0.5420 -0.3096  2.1592
 6108TIP3   OH239814   6.489   6.249  15.894  0.4808 -0.2550  0.0944
 6108TIP3    H139815   6.394   6.250  15.905  0.2311 -1.5378 -1.5455
 6108TIP3    H239816   6.519   6.327  15.940 -1.3755  0.2602  0.5277
 6109TIP3   OH239817   1.864   1.353   0.888  0.3463  0.0890 -0.1193
 6109TIP3    H139818   1.845   1.272   0.935  1.1116  0.4381  0.8047
 6109TIP3    H239819   1.938   1.330   0.831  0.2531  0.0168 -0.2133
 6110TIP3   OH239820   6.524   2.584  12.494  0.4094  0.6966 -0.3455
 6110TIP3    H139821   6.429   2.575  12.484  0.2667  0.4764  1.0554
 6110TIP3    H239822   6.535   2.641  12.570  1.4132  0.9681 -0.6757
 6111TIP3   OH239823   4.172   4.050  11.595  0.0843 -0.4651 -0.0229
 6111TIP3    H139824   4.187   4.119  11.530  3.1853  0.2116  1.2158
 6111TIP3    H239825   4.141   3.975  11.545 -0.7675  0.9986 -1.7852
 6112TIP3   OH239826   4.205   0.790  14.157 -0.1124 -0.0280 -0.2332
 6112TIP3    H139827   4.237   0.868  14.202  0.8273  0.6136 -1.9140
 6112TIP3    H239828   4.272   0.724  14.171  1.1988  0.7783 -2.2621
 6113TIP3   OH239829   3.000   5.688  15.841 -0.0232  0.2089  0.5139
 6113TIP3    H139830   3.076   5.743  15.823 -1.0999  1.8146  0.7552
 6113TIP3    H239831   2.945   5.697  15.763 -0.8873  0.6641  1.1604
 6114TIP3   OH239832   0.574   0.914   4.992  0.3377 -0.6443  0.5897
 6114TIP3    H139833   0.652   0.966   4.970  0.5744 -0.9442  0.7141
 6114TIP3    H239834   0.555   0.938   5.083 -1.8921  2.2103 -0.4563
 6115TIP3   OH239835   3.470   1.308   1.350  0.0626 -0.2970 -0.3527
 6115TIP3    H139836   3.510   1.222   1.339 -0.0112 -0.2028 -1.4840
 6115TIP3    H239837   3.399   1.294   1.412 -0.6140 -1.2826 -1.3173
 6116TIP3   OH239838   4.948   3.710  14.243  0.6595 -0.1942  0.4486
 6116TIP3    H139839   4.913   3.764  14.314  0.9485 -0.7664  1.0312
 6116TIP3    H239840   4.879   3.710  14.177  0.2687  0.1090  0.8496
 6117TIP3   OH239841   3.664   4.834  12.356  0.6726 -0.0410 -0.2299
 6117TIP3    H139842   3.606   4.758  12.360 -0.1517  0.5996  0.2007
 6117TIP3    H239843   3.732   4.816  12.421 -1.5172  1.1725  2.5839
 6118TIP3   OH239844   2.594   3.184  12.818  0.5074  0.1419 -0.1783
 6118TIP3    H139845   2.680   3.174  12.776  0.4817 -0.2315 -0.1452
 6118TIP3    H239846   2.604   3.260  12.876  0.8109  0.1059 -0.1830
 6119TIP3   OH239847   4.337   1.867   4.602 -0.2628  0.4438  0.2996
 6119TIP3    H139848   4.368   1.957   4.598  0.5691  0.1284 -0.5641
 6119TIP3    H239849   4.416   1.813   4.597 -0.4654 -0.3713  3.3649
 6120TIP3   OH239850   6.207   1.861   3.601 -0.0009  0.0690  0.2437
 6120TIP3    H139851   6.187   1.935   3.545  1.0432  1.0457  1.1151
 6120TIP3    H239852   6.242   1.900   3.681  2.7008 -1.3808 -0.1013
 6121TIP3   OH239853   1.331   0.807  16.771  0.1827  0.1725 -0.2028
 6121TIP3    H139854   1.308   0.896  16.797  1.0559  0.5197 -0.5422
 6121TIP3    H239855   1.323   0.807  16.676  0.9505  0.1297 -0.2738
 6122TIP3   OH239856   4.482   2.154  16.426  0.4896  0.5994 -0.1838
 6122TIP3    H139857   4.455   2.170  16.516 -1.2009  1.9847 -0.8651
 6122TIP3    H239858   4.550   2.220  16.410 -0.4395  1.5219 -0.4178
 6123TIP3   OH239859   6.426   5.150  13.225 -0.2628  0.6711  0.2373
 6123TIP3    H139860   6.373   5.212  13.274  0.8248  1.0782  0.9326
 6123TIP3    H239861   6.514   5.159  13.261 -0.0186 -1.1025  0.1978
 6124TIP3   OH239862   1.919   4.967   0.935  0.1979 -0.2708 -0.0217
 6124TIP3    H139863   1.871   4.889   0.904  0.7448 -0.7597  0.3398
 6124TIP3    H239864   1.862   5.003   1.003 -1.7046  1.6270 -2.4410
 6125TIP3   OH239865   2.824   5.887  14.084 -0.2777 -0.2069  0.3168
 6125TIP3    H139866   2.769   5.809  14.092  0.1547 -0.4921  0.6169
 6125TIP3    H239867   2.869   5.875  14.000 -0.1264 -0.3395  0.4156
 6126TIP3   OH239868   5.504   5.851  13.578  0.1625  0.2535 -0.0850
 6126TIP3    H139869   5.569   5.846  13.508 -1.7049  0.4373 -1.9391
 6126TIP3    H239870   5.451   5.773  13.567 -2.1074  1.8146 -0.9869
 6127TIP3   OH239871   5.411   2.856  11.467  0.4876  0.1169 -0.3778
 6127TIP3    H139872   5.408   2.792  11.396  2.7788 -0.3698 -0.1037
 6127TIP3    H239873   5.504   2.870  11.484  0.0380  0.6295  2.1705
 6128TIP3   OH239874   3.172   5.224   0.713 -0.5077 -0.5521 -0.3648
 6128TIP3    H139875   3.212   5.146   0.674  0.5086 -0.7523  1.0054
 6128TIP3    H239876   3.185   5.293   0.648  1.5941 -0.7489 -0.2134
 6129TIP3   OH239877   1.658   3.175   5.605  0.0246 -0.3832  0.0601
 6129TIP3    H139878   1.665   3.079   5.604 -0.8405 -0.4516  0.2151
 6129TIP3    H239879   1.727   3.204   5.544 -0.0164 -1.1193 -0.3524
 6130TIP3   OH239880   2.162   1.895  14.047 -0.8668  0.6294 -0.4469
 6130TIP3    H139881   2.158   1.843  13.966  2.2448  1.2220 -1.1387
 6130TIP3    H239882   2.169   1.986  14.017 -0.4376  0.9282  0.5048
 6131TIP3   OH239883   1.101   1.745  16.494  0.6247  0.5951 -0.5887
 6131TIP3    H139884   1.133   1.689  16.424  1.7328  1.9699 -1.2270
 6131TIP3    H239885   1.150   1.717  16.571  1.4268  0.9110 -0.9794
 6132TIP3   OH239886   3.532   2.156  12.832 -0.6793 -0.6331 -0.2009
 6132TIP3    H139887   3.555   2.097  12.760 -0.3349 -0.5818 -0.1361
 6132TIP3    H239888   3.605   2.148  12.894 -0.2954  0.3650 -0.5064
 6133TIP3   OH239889   1.443   3.986   3.659  0.5067  0.2256 -0.5481
 6133TIP3    H139890   1.366   3.933   3.637  1.6157 -2.2708  1.0098
 6133TIP3    H239891   1.491   3.994   3.577  0.1224 -0.9494 -0.9137
 6134TIP3   OH239892   5.414   0.708   5.036 -0.4496  0.3764 -0.5182
 6134TIP3    H139893   5.386   0.792   5.072  0.1269  0.2678  0.1967
 6134TIP3    H239894   5.406   0.719   4.941 -2.3387  0.5409 -0.3923
 6135TIP3   OH239895   0.245   4.893   1.858 -0.4772  0.4483  0.3725
 6135TIP3    H139896   0.181   4.822   1.854 -0.7584  0.5736 -5.2323
 6135TIP3    H239897   0.192   4.973   1.852  0.0379  0.9068  1.6804
 6136TIP3   OH239898   1.504   6.650  14.127  0.2147  0.2761  0.2215
 6136TIP3    H139899   1.561   6.719  14.094  1.2454 -0.8373 -0.4022
 6136TIP3    H239900   1.482   6.677  14.216 -0.0235  1.7616 -0.2564
 6137TIP3   OH239901   4.165   5.312   5.055  0.4322  0.0907  0.3855
 6137TIP3    H139902   4.196   5.396   5.022  2.2207 -0.7324 -0.1410
 6137TIP3    H239903   4.075   5.306   5.023  0.5492  1.4379 -0.2785
 6138TIP3   OH239904   4.466   1.810  13.463  0.1734  0.6782  0.1159
 6138TIP3    H139905   4.467   1.744  13.394 -0.2890 -0.2229  0.9248
 6138TIP3    H239906   4.373   1.818  13.487  0.4261  0.1345  1.3734
 6139TIP3   OH239907   3.856   3.912  15.930  0.9586 -0.6896  0.3519
 6139TIP3    H139908   3.878   3.988  15.875 -3.2687 -0.5466 -1.5597
 6139TIP3    H239909   3.803   3.949  16.001  1.1197 -1.5793  0.9475
 6140TIP3   OH239910   2.863   5.256  14.235 -0.1038  0.3054 -0.0077
 6140TIP3    H139911   2.864   5.176  14.184  3.0192  0.2997 -0.1008
 6140TIP3    H239912   2.879   5.228  14.325 -0.4467  0.7214  0.1903
 6141TIP3   OH239913   4.616   4.175   4.802  0.3057  1.0006 -0.0220
 6141TIP3    H139914   4.569   4.208   4.879  0.7363  0.6007  0.4164
 6141TIP3    H239915   4.547   4.154   4.739 -0.1682 -0.4584  0.9522
 6142TIP3   OH239916   6.656   0.473   4.357  0.1275  0.1631  0.4876
 6142TIP3    H139917   6.726   0.409   4.341  0.8048  1.0367 -0.1638
 6142TIP3    H239918   6.661   0.490   4.451  1.0895  0.5250  0.3844
 6143TIP3   OH239919   2.372   3.462   5.872  0.9838 -0.0333 -0.3435
 6143TIP3    H139920   2.422   3.400   5.819 -0.1162 -1.0957 -0.1841
 6143TIP3    H239921   2.352   3.414   5.952 -1.6744 -0.2520 -1.0671
 6144TIP3   OH239922   0.604   5.464   5.895 -1.0225 -0.2243  0.0852
 6144TIP3    H139923   0.651   5.447   5.813  1.2362  0.0110  1.2580
 6144TIP3    H239924   0.528   5.516   5.868  0.3471  0.9764 -1.7385
 6145TIP3   OH239925   5.410   5.397  15.545  0.5551  0.2074 -0.3222
 6145TIP3    H139926   5.492   5.360  15.512  0.7354  1.1124 -0.9521
 6145TIP3    H239927   5.404   5.483  15.503  1.2667  1.8849  2.7230
 6146TIP3   OH239928   2.634   5.845   0.180 -0.1498  0.2130  0.3132
 6146TIP3    H139929   2.575   5.792   0.233  0.1690  1.0813  1.5979
 6146TIP3    H239930   2.601   5.837   0.091 -1.1779 -0.6716  0.7539
 6147TIP3   OH239931   4.709   5.113   0.449 -0.7857  0.5664  0.5670
 6147TIP3    H139932   4.732   5.027   0.412  0.4742  1.6570 -1.3417
 6147TIP3    H239933   4.617   5.124   0.426 -1.3256 -0.7703  1.9231
 6148TIP3   OH239934   3.654   5.587   5.952 -0.3106 -0.5013 -0.0808
 6148TIP3    H139935   3.605   5.642   6.013  1.7858 -1.3099  2.5222
 6148TIP3    H239936   3.611   5.502   5.955 -0.1786 -0.5539  0.3116
 6149TIP3   OH239937   4.024   1.960   4.816  0.5287 -0.0320  0.2970
 6149TIP3    H139938   3.941   1.926   4.783  1.4246 -0.1531 -1.9568
 6149TIP3    H239939   4.082   1.884   4.817  1.9790  0.8933 -2.8865
 6150TIP3   OH239940   3.199   1.561   2.820 -1.0230  0.2131 -0.1959
 6150TIP3    H139941   3.145   1.626   2.864 -0.5716  0.4400  0.0366
 6150TIP3    H239942   3.279   1.608   2.797  0.1017 -0.7024  1.6321
 6151TIP3   OH239943   0.503   5.454  16.062 -0.1101  0.0733 -0.3546
 6151TIP3    H139944   0.463   5.538  16.040 -2.8854 -1.0328 -0.0387
 6151TIP3    H239945   0.487   5.399  15.985  0.3081 -0.6067  0.0319
 6152TIP3   OH239946   3.038   1.400  17.043 -1.0887  0.6413  0.0013
 6152TIP3    H139947   3.094   1.382  16.968 -0.6405 -2.4686  0.9501
 6152TIP3    H239948   3.098   1.424  17.114 -1.3310  1.3555 -0.0255
 6153TIP3   OH239949   1.447   1.294   5.833  0.0568 -0.1000 -0.0657
 6153TIP3    H139950   1.489   1.246   5.905 -0.5331 -1.0993 -0.3739
 6153TIP3    H239951   1.360   1.315   5.865  1.1552  3.3000  1.1596
 6154TIP3   OH239952   4.758   3.783   4.937  0.0114  0.0756  0.1185
 6154TIP3    H139953   4.738   3.877   4.934  0.6959  0.2433  0.5286
 6154TIP3    H239954   4.707   3.746   4.865  0.0352  0.8219 -0.2996
 6155TIP3   OH239955   6.703   4.545   6.945  0.3301  0.6902  0.1202
 6155TIP3    H139956   6.743   4.463   6.973 -2.8604 -1.0494  0.0341
 6155TIP3    H239957   6.725   4.552   6.852  0.4435 -0.2265  0.0664
 6156TIP3   OH239958   2.990   6.758   0.873 -0.0286 -0.0782 -0.0469
 6156TIP3    H139959   2.931   6.823   0.834 -0.9778 -1.0852 -0.3281
 6156TIP3    H239960   3.060   6.810   0.913 -0.9667  1.1373  0.0698
 6157TIP3   OH239961   2.480   0.792   3.008  0.1807  0.4955  0.0307
 6157TIP3    H139962   2.459   0.872   3.055 -0.0828  0.7490 -0.5126
 6157TIP3    H239963   2.396   0.761   2.974  0.6089  1.3620 -1.9055
 6158TIP3   OH239964   4.936   5.557   3.292  0.0896  0.1726 -1.0472
 6158TIP3    H139965   4.849   5.582   3.324  0.7963  2.3749 -0.6110
 6158TIP3    H239966   4.921   5.527   3.202 -1.2546 -0.6332 -0.5735
 6159TIP3   OH239967   1.419   2.675   0.798 -0.4614 -0.3027 -0.2743
 6159TIP3    H139968   1.402   2.653   0.890  1.3196 -1.3080 -0.1233
 6159TIP3    H239969   1.407   2.593   0.751  1.3777 -0.5092 -0.4752
 6160TIP3   OH239970   4.803   3.536  12.932 -0.4629 -0.1549  0.1171
 6160TIP3    H139971   4.783   3.629  12.941 -0.8287 -0.0990 -1.0504
 6160TIP3    H239972   4.871   3.520  12.997 -0.8652  0.7769  0.7862
 6161TIP3   OH239973   1.645   6.760  15.616 -0.7070 -1.2017  0.0232
 6161TIP3    H139974   1.707   6.703  15.661  1.2414  0.1745 -0.7856
 6161TIP3    H239975   1.699   6.829  15.578 -2.5807 -0.7453 -2.0016
 6162TIP3   OH239976   3.440   5.228  15.854  0.2729  0.2775 -0.5064
 6162TIP3    H139977   3.525   5.183  15.858 -0.0611 -0.5619 -1.9544
 6162TIP3    H239978   3.462   5.318  15.830  0.7501 -0.0131 -1.1922
 6163TIP3   OH239979   2.513   3.847  13.358  0.3029 -0.5037  0.3531
 6163TIP3    H139980   2.429   3.880  13.390  1.0600 -0.2583  2.2097
 6163TIP3    H239981   2.491   3.767  13.311 -1.1529  0.5656 -0.8522
 6164TIP3   OH239982   1.289   2.855   4.401  0.4889  0.2937  0.1780
 6164TIP3    H139983   1.202   2.840   4.436  0.6415  0.7631  0.7702
 6164TIP3    H239984   1.335   2.903   4.470  0.8383  1.1190 -0.6101
 6165TIP3   OH239985   2.322   5.511   1.041  0.2246  0.2907  0.3858
 6165TIP3    H139986   2.313   5.606   1.048  2.4614  0.6698 -0.7485
 6165TIP3    H239987   2.410   5.493   1.076 -0.1749 -1.3894  0.6357
 6166TIP3   OH239988   0.320   1.771   0.328 -0.2766  0.2003  0.4391
 6166TIP3    H139989   0.287   1.832   0.262  3.5071  1.4267 -0.5700
 6166TIP3    H239990   0.336   1.690   0.279  1.0205  0.6072  0.1467
 6167TIP3   OH239991   3.197   1.840   0.931 -0.2350  0.1153 -0.0735
 6167TIP3    H139992   3.222   1.812   1.019  1.2692  1.6117  0.0230
 6167TIP3    H239993   3.101   1.844   0.934 -0.2923 -1.1067  1.0670
 6168TIP3   OH239994   5.640   5.215   2.576  0.1543 -0.2035 -0.1147
 6168TIP3    H139995   5.565   5.194   2.632 -0.6579  4.2908  0.8845
 6168TIP3    H239996   5.615   5.181   2.489 -2.0136 -0.7530  0.6523
 6169TIP3   OH239997   5.934   1.428  14.339  0.0918  0.4330 -0.1050
 6169TIP3    H139998   5.841   1.407  14.332 -0.0004  0.3937  1.0079
 6169TIP3    H239999   5.942   1.515  14.298 -0.2564  0.0367 -1.0319
 6170TIP3   OH240000   2.808   5.451  13.495  0.5992  0.1047 -0.3641
 6170TIP3    H140001   2.831   5.366  13.531 -0.8594  0.1494  0.7801
 6170TIP3    H240002   2.713   5.452  13.494  0.5845  1.8103 -0.1405
 6171TIP3   OH240003   0.730   4.678   1.702  0.6318 -0.0403 -0.3678
 6171TIP3    H140004   0.784   4.742   1.748 -1.1576 -0.0120  1.8355
 6171TIP3    H240005   0.669   4.645   1.768  0.8139 -3.3255 -1.6443
 6172TIP3   OH240006   5.705   3.827   0.008  0.2227 -0.0457 -0.6953
 6172TIP3    H140007   5.773   3.879  -0.036 -0.0980  0.3499 -0.7228
 6172TIP3    H240008   5.753   3.779   0.076  0.9032 -1.4434 -2.1114
 6173TIP3   OH240009   5.143   4.054   3.694  0.0643  0.3759 -0.1120
 6173TIP3    H140010   5.117   4.132   3.644 -0.8786  1.0832  1.3941
 6173TIP3    H240011   5.104   3.981   3.646  0.6854  0.8477 -1.3770
 6174TIP3   OH240012   2.716   6.084  11.697  0.3267 -0.1574 -0.2324
 6174TIP3    H140013   2.746   6.151  11.636  1.4272 -2.4335 -2.3519
 6174TIP3    H240014   2.794   6.065  11.750  0.6164 -1.1055 -0.9751
 6175TIP3   OH240015   4.796   5.816  17.354 -0.0258 -0.2151 -0.2256
 6175TIP3    H140016   4.878   5.787  17.394 -0.5680 -2.2855 -0.4908
 6175TIP3    H240017   4.778   5.749  17.287 -0.6675  1.5452 -1.8983
 6176TIP3   OH240018   2.385   3.287   3.634 -0.2209 -0.3933  0.0921
 6176TIP3    H140019   2.463   3.330   3.599 -0.8178 -0.2662 -1.1122
 6176TIP3    H240020   2.318   3.302   3.568 -0.6704 -2.4980  0.0221
 6177TIP3   OH240021   5.260   1.440   6.786  0.1105  0.4049 -0.4848
 6177TIP3    H140022   5.192   1.503   6.808  0.2808  0.2445  0.5754
 6177TIP3    H240023   5.308   1.428   6.868 -0.4523 -1.7572 -0.4075
 6178TIP3   OH240024   1.683   3.787  14.698 -0.1274  0.7342  0.2794
 6178TIP3    H140025   1.718   3.711  14.744 -0.5839 -0.7753 -1.6874
 6178TIP3    H240026   1.760   3.829  14.659  0.0021  0.4601  0.2362
 6179TIP3   OH240027   0.029   3.390   2.763  0.0541  0.4396 -0.2044
 6179TIP3    H140028   0.073   3.338   2.696 -0.5174 -4.1266  2.6014
 6179TIP3    H240029   0.094   3.403   2.832 -0.8878  0.1310  0.7714
 6180TIP3   OH240030   4.147   2.819   3.095 -0.0394  0.1820 -0.2168
 6180TIP3    H140031   4.147   2.746   3.033  1.0161  0.0596 -0.0929
 6180TIP3    H240032   4.232   2.861   3.083 -0.8970  1.8539 -0.7969
 6181TIP3   OH240033   6.067   3.621   5.391 -0.3565 -0.5937  0.3888
 6181TIP3    H140034   6.084   3.581   5.477 -0.3528 -0.9299  0.2335
 6181TIP3    H240035   6.076   3.715   5.406  0.2011 -0.6809  0.6399
 6182TIP3   OH240036   0.859   2.086   0.202 -0.0105 -0.3024 -1.4579
 6182TIP3    H140037   0.950   2.107   0.218  0.0891  1.5409 -3.8230
 6182TIP3    H240038   0.815   2.171   0.198 -2.2110 -1.1749  1.1145
 6183TIP3   OH240039   6.668   1.572  15.463  0.2776 -0.0144 -0.2156
 6183TIP3    H140040   6.592   1.582  15.405 -0.3245 -0.6876  0.4448
 6183TIP3    H240041   6.642   1.614  15.545  0.9047  0.4129 -0.2293
 6184TIP3   OH240042   5.929   6.525   1.474  0.2613 -0.0946  0.9553
 6184TIP3    H140043   5.895   6.562   1.393  2.1107  2.1714  1.0918
 6184TIP3    H240044   5.941   6.432   1.456 -0.1447  0.2110 -1.0782
 6185TIP3   OH240045   3.525   1.328  11.019 -1.2816  0.0196 -0.3313
 6185TIP3    H140046   3.475   1.361  10.944 -1.2064  1.3344  0.1715
 6185TIP3    H240047   3.472   1.351  11.095 -0.5433  0.2334  0.1279
 6186TIP3   OH240048   4.030   5.830  13.693  0.3371 -0.5308  0.4087
 6186TIP3    H140049   4.120   5.799  13.690  1.9019  3.3681  0.2734
 6186TIP3    H240050   4.008   5.846  13.601 -0.5298 -1.4503  0.4451
 6187TIP3   OH240051   3.532   4.505   0.470  0.1893 -0.3446 -0.0040
 6187TIP3    H140052   3.498   4.423   0.433  0.3639 -0.3640 -0.1269
 6187TIP3    H240053   3.540   4.563   0.395  0.0910 -0.2238  0.0800
 6188TIP3   OH240054   0.114   3.373   5.662 -0.0771 -0.2024  0.5070
 6188TIP3    H140055   0.021   3.392   5.673 -0.9065 -3.6887  0.4421
 6188TIP3    H240056   0.137   3.321   5.739  1.5262 -0.4435 -0.0974
 6189TIP3   OH240057   4.533   5.051   3.848  0.1157 -0.1779  0.3347
 6189TIP3    H140058   4.506   5.063   3.757  0.8187 -0.1264  0.1312
 6189TIP3    H240059   4.543   4.956   3.857 -3.2316 -0.5860  1.3165
 6190TIP3   OH240060   3.179   0.021  14.193  0.8235  0.0422  0.2189
 6190TIP3    H140061   3.141   0.084  14.132  0.3569  0.0396  0.5043
 6190TIP3    H240062   3.116   0.016  14.265  0.5890 -1.1367 -0.0471
 6191TIP3   OH240063   4.956   0.315  15.950  0.0902 -0.3082 -0.3201
 6191TIP3    H140064   4.930   0.252  15.883 -1.0650 -0.3680  0.1488
 6191TIP3    H240065   4.874   0.360  15.972  0.2554 -0.8514  1.6123
 6192TIP3   OH240066   0.709   3.138   3.261  0.6345 -0.0904  0.0736
 6192TIP3    H140067   0.670   3.221   3.289  1.5070  1.0396 -1.8679
 6192TIP3    H240068   0.755   3.106   3.339  0.2475  1.2175  0.8778
 6193TIP3   OH240069   1.640   6.276   3.470 -0.4309  0.3675 -0.6300
 6193TIP3    H140070   1.577   6.349   3.473  1.0900  1.7152  1.8262
 6193TIP3    H240071   1.702   6.302   3.402 -0.2706  1.0412 -0.2340
 6194TIP3   OH240072   2.736   1.382  13.759  0.6209  0.6295 -0.4095
 6194TIP3    H140073   2.797   1.423  13.698 -1.5130 -1.8912 -4.7305
 6194TIP3    H240074   2.778   1.300  13.785  1.1335  1.2786  0.9312
 6195TIP3   OH240075   2.198   3.013  14.527  0.2947  0.1688 -0.5252
 6195TIP3    H140076   2.123   3.004  14.586 -0.2388 -1.1958 -1.3645
 6195TIP3    H240077   2.252   2.936  14.546  0.5249  0.1489 -1.2337
 6196TIP3   OH240078   4.648   2.491   3.385 -0.6741  0.5117 -0.7009
 6196TIP3    H140079   4.700   2.479   3.306 -2.2227 -1.2081 -1.5530
 6196TIP3    H240080   4.710   2.481   3.457  0.5755  0.9768 -1.6886
 6197TIP3   OH240081   4.794   0.596   3.944 -0.1704 -0.3642  0.0255
 6197TIP3    H140082   4.835   0.564   4.025  0.0891  1.9576  0.8644
 6197TIP3    H240083   4.717   0.539   3.932  0.6359 -1.7248  1.0293
 6198TIP3   OH240084   2.688   4.445   6.526 -0.7104 -0.0971 -0.4129
 6198TIP3    H140085   2.773   4.465   6.487  0.7607  0.2099  2.6029
 6198TIP3    H240086   2.633   4.521   6.505  0.7050  1.0792 -0.0504
 6199TIP3   OH240087   3.167   6.697   2.372 -0.3513 -0.2601  0.1031
 6199TIP3    H140088   3.237   6.761   2.377 -0.2113 -0.3967 -0.0809
 6199TIP3    H240089   3.161   6.660   2.460 -0.5599  0.1373  0.2578
 6200TIP3   OH240090   0.035   0.744   4.608 -0.6773  0.1137  0.6601
 6200TIP3    H140091   0.039   0.652   4.634  0.2244  0.1319  0.6077
 6200TIP3    H240092   0.043   0.743   4.513 -0.2907  0.2671  0.6899
 6201TIP3   OH240093   3.566   1.316   2.516 -0.0206  0.1554 -0.3421
 6201TIP3    H140094   3.558   1.264   2.595  0.9444  0.1185 -0.2594
 6201TIP3    H240095   3.654   1.296   2.482  0.8762  2.5848  0.3322
 6202TIP3   OH240096   6.769   0.946  12.880  0.1511 -0.8657 -0.1306
 6202TIP3    H140097   6.748   1.015  12.817  2.8278 -0.4488 -0.7145
 6202TIP3    H240098   6.786   0.992  12.962 -0.6811 -1.1338  0.2010
 6203TIP3   OH240099   0.536   2.984   3.149 -0.3807  0.2975  0.7749
 6203TIP3    H140100   0.447   3.017   3.143  0.0836  1.4024 -0.5560
 6203TIP3    H240101   0.576   3.033   3.221 -0.2392  1.3782 -0.0110
 6204TIP3   OH240102   1.979   4.895  16.530 -0.4632 -0.0516 -0.1383
 6204TIP3    H140103   2.013   4.805  16.531 -0.6968 -0.1592  1.6911
 6204TIP3    H240104   1.980   4.922  16.622 -2.2143  1.1223 -0.4208
 6205TIP3   OH240105   1.398   0.123   5.231  0.2914 -0.3344  0.3914
 6205TIP3    H140106   1.361   0.054   5.288 -2.7109  2.1413  1.7317
 6205TIP3    H240107   1.350   0.114   5.149 -0.0968  0.1127  0.5649
 6206TIP3   OH240108   3.015   3.800  14.798  0.4189 -0.2738  0.1063
 6206TIP3    H140109   3.025   3.860  14.872 -1.6583  1.3916 -0.8214
 6206TIP3    H240110   2.942   3.743  14.822  0.3936 -0.3953 -0.2459
 6207TIP3   OH240111   1.158   6.004  10.776  0.0759 -0.3300 -0.6183
 6207TIP3    H140112   1.120   5.929  10.731 -1.1129  0.7519 -1.5166
 6207TIP3    H240113   1.190   6.061  10.705  0.4544  0.2624  0.0124
 6208TIP3   OH240114   3.657   5.604   2.213 -0.4477  0.4958 -0.1662
 6208TIP3    H140115   3.728   5.557   2.257 -0.4998  0.3119 -0.2775
 6208TIP3    H240116   3.701   5.665   2.153 -0.3787  0.6523  0.0432
 6209TIP3   OH240117   5.855   3.492   3.397  0.2342 -0.1980  0.4100
 6209TIP3    H140118   5.774   3.534   3.426  0.0442 -0.2933  0.0235
 6209TIP3    H240119   5.831   3.445   3.317  0.4473 -1.0595  0.8417
 6210TIP3   OH240120   4.447   6.132  11.518  0.5197 -0.0865  0.0350
 6210TIP3    H140121   4.495   6.140  11.601  0.1573  2.1005  0.0704
 6210TIP3    H240122   4.356   6.118  11.544  0.2361  1.6445  0.0524
 6211TIP3   OH240123   3.488   4.603   3.704  0.0336 -0.7891  0.0571
 6211TIP3    H140124   3.487   4.535   3.772  0.5070  3.0376  4.3805
 6211TIP3    H240125   3.398   4.633   3.699  0.2474 -0.1422  0.0125
 6212TIP3   OH240126   4.640   4.088   2.432 -0.3485  0.1900  0.2371
 6212TIP3    H140127   4.579   4.138   2.379  1.5631  1.3273 -1.0157
 6212TIP3    H240128   4.702   4.153   2.466  1.3049 -1.0901 -0.1472
 6213TIP3   OH240129   1.250   2.517  10.686  0.0355 -0.1256  0.5228
 6213TIP3    H140130   1.280   2.546  10.772  0.2544  0.4237  0.2667
 6213TIP3    H240131   1.212   2.595  10.646  0.4128 -0.2492 -0.0861
 6214TIP3   OH240132   1.213   0.200   1.168 -1.0557 -0.4441 -0.0079
 6214TIP3    H140133   1.185   0.252   1.093 -1.7073  0.2664  0.7097
 6214TIP3    H240134   1.134   0.153   1.194 -1.0788  0.0331  0.8009
 6215TIP3   OH240135   6.183   6.117   2.339  0.0128  0.4991 -0.0502
 6215TIP3    H140136   6.224   6.036   2.307 -0.4649  0.6454 -1.0559
 6215TIP3    H240137   6.114   6.086   2.398  0.5736  0.2130  0.4739
 6216TIP3   OH240138   6.529   1.861   1.968 -0.1221  0.6000 -0.1029
 6216TIP3    H140139   6.571   1.869   2.054  2.7626 -0.5243 -1.3098
 6216TIP3    H240140   6.447   1.815   1.986 -0.0116  1.1629  2.1272
 6217TIP3   OH240141   6.162   1.138  11.811  0.0432  0.5204  0.0760
 6217TIP3    H140142   6.083   1.126  11.758 -0.3856  1.4121  0.4763
 6217TIP3    H240143   6.165   1.233  11.827  2.5918  0.8891 -2.0263
 6218TIP3   OH240144   0.445   2.184   4.433  0.3278  0.6113  0.2407
 6218TIP3    H140145   0.525   2.185   4.486 -0.0803  2.0996  0.8795
 6218TIP3    H240146   0.477   2.176   4.343  1.1462  0.2614  0.5471
 6219TIP3   OH240147   2.488   4.658   2.793 -0.3634  0.0770 -0.1757
 6219TIP3    H140148   2.447   4.619   2.870  0.2539 -1.3109 -0.5069
 6219TIP3    H240149   2.460   4.749   2.794 -1.8876 -0.3637  0.6437
 6220TIP3   OH240150   4.610   5.173   0.083  0.0106  0.0516 -0.0706
 6220TIP3    H140151   4.672   5.189   0.011  0.2374  0.3432  0.1877
 6220TIP3    H240152   4.607   5.256   0.131  0.0543 -0.2208  0.4082
 6221TIP3   OH240153   2.591   1.277   3.381  0.3848 -0.0150  0.3902
 6221TIP3    H140154   2.608   1.241   3.469  0.4093  0.9795  0.8023
 6221TIP3    H240155   2.634   1.362   3.382  3.2868 -1.2949 -1.7077
 6222TIP3   OH240156   6.235   2.534  12.502  0.0694 -0.5139  0.6029
 6222TIP3    H140157   6.198   2.571  12.421  1.3858  2.2308  1.1344
 6222TIP3    H240158   6.280   2.455  12.474  0.1335  0.1393 -1.3073
 6223TIP3   OH240159   0.139   6.320   1.466  0.5760 -0.3453 -0.1199
 6223TIP3    H140160   0.127   6.234   1.506 -0.0178 -1.1231 -1.8860
 6223TIP3    H240161   0.073   6.375   1.508 -0.2776 -1.2259 -0.2683
 6224TIP3   OH240162   3.952   6.067   6.423  0.1171  0.2349  0.2026
 6224TIP3    H140163   4.002   5.986   6.421 -0.2635 -0.0888  1.9721
 6224TIP3    H240164   3.929   6.083   6.331  2.2390 -0.3283 -0.4893
 6225TIP3   OH240165   2.164   1.551  13.402 -0.5306 -0.0862 -1.0226
 6225TIP3    H140166   2.147   1.459  13.419 -0.8550  0.4726  2.4865
 6225TIP3    H240167   2.260   1.558  13.405 -0.4577 -0.4200 -2.2365
 6226TIP3   OH240168   4.785   2.912  11.377  0.0626  0.3313  0.0013
 6226TIP3    H140169   4.793   2.878  11.289  2.7388 -0.9605  0.6307
 6226TIP3    H240170   4.807   3.005  11.369 -1.1077  0.5423 -0.8602
 6227TIP3   OH240171   5.304   2.084   4.666 -0.1240 -0.2945  0.0431
 6227TIP3    H140172   5.383   2.044   4.700 -0.5583 -1.7678 -0.5833
 6227TIP3    H240173   5.333   2.167   4.627  0.4332  1.3771  3.6139
 6228TIP3   OH240174   0.641   4.522   3.723  0.0191 -0.1405  0.3673
 6228TIP3    H140175   0.646   4.428   3.707  0.8593 -0.0448  0.0166
 6228TIP3    H240176   0.570   4.532   3.786 -2.0131 -0.7350 -1.6930
 6229TIP3   OH240177   0.588   0.862  17.270 -0.4944  0.2386  0.1880
 6229TIP3    H140178   0.596   0.848  17.364 -3.5645  0.7929  0.6364
 6229TIP3    H240179   0.636   0.788  17.231 -1.1727 -1.3842  2.2296
 6230TIP3   OH240180   6.687   6.351  12.003  0.5805  0.1251  0.2467
 6230TIP3    H140181   6.688   6.380  12.095 -0.8468  0.6977  0.1110
 6230TIP3    H240182   6.767   6.387  11.966  0.7065  0.7033  1.0415
 6231TIP3   OH240183   1.033   1.148   3.059  0.3002 -0.2168  0.5362
 6231TIP3    H140184   1.114   1.121   3.102  0.8378  3.2492  2.0355
 6231TIP3    H240185   0.978   1.180   3.131 -0.1853  2.5013 -0.9403
 6232TIP3   OH240186   1.992   1.996   2.427 -0.0580  0.1305 -0.1745
 6232TIP3    H140187   2.072   2.048   2.422  0.1735  0.0740  2.2407
 6232TIP3    H240188   1.943   2.021   2.348  1.3645  1.7862 -0.5888
 6233TIP3   OH240189   3.808   1.339  13.120  0.0880 -0.3330  0.0444
 6233TIP3    H140190   3.867   1.284  13.068 -1.3212 -0.2384 -1.7397
 6233TIP3    H240191   3.749   1.277  13.164  0.8786 -0.3791  1.0888
 6234TIP3   OH240192   4.408   4.241   3.429 -0.2935 -0.2394  0.4754
 6234TIP3    H140193   4.412   4.335   3.410 -2.0654 -0.2970 -0.3843
 6234TIP3    H240194   4.443   4.199   3.351 -2.1351 -0.3271 -0.3526
 6235TIP3   OH240195   4.603   6.707   2.028  0.1984 -0.1322 -0.4829
 6235TIP3    H140196   4.669   6.650   1.988  0.8487  0.0027  0.3641
 6235TIP3    H240197   4.548   6.646   2.079  1.0626 -0.0034  0.6497
 6236TIP3   OH240198   5.051   3.996   2.188 -0.1579 -0.0598 -0.4444
 6236TIP3    H140199   5.056   3.937   2.112  1.7023  0.3276 -0.6752
 6236TIP3    H240200   4.974   3.967   2.236  0.3197 -2.2713 -0.8980
 6237TIP3   OH240201   1.897   5.362   1.536 -0.1335 -0.2806  0.0788
 6237TIP3    H140202   1.823   5.423   1.540 -2.2307 -2.2943 -3.1186
 6237TIP3    H240203   1.890   5.309   1.616 -1.2662  0.4752  0.4941
 6238TIP3   OH240204   2.012   5.921   3.959 -0.2990 -0.2527 -0.2502
 6238TIP3    H140205   1.993   6.010   3.988 -1.1801 -0.6722  0.5114
 6238TIP3    H240206   1.988   5.920   3.867 -2.1717 -0.2220  0.2097
 6239TIP3   OH240207   6.538   3.031  16.156 -0.3559  0.4428 -0.0066
 6239TIP3    H140208   6.528   3.043  16.061 -0.9342  1.1004  0.1239
 6239TIP3    H240209   6.615   2.976  16.166  1.2983  2.4994 -0.7706
 6240TIP3   OH240210   6.592   6.752   4.156 -0.0927 -0.1770 -0.3184
 6240TIP3    H140211   6.626   6.746   4.245  1.1724  2.6653 -0.5198
 6240TIP3    H240212   6.502   6.719   4.162 -0.4431  1.0074  2.2526
 6241TIP3   OH240213   4.872   2.946   5.938  0.8216  0.3993 -0.7758
 6241TIP3    H140214   4.865   2.971   6.030  0.3010 -1.8851 -0.1426
 6241TIP3    H240215   4.787   2.972   5.900  0.3365 -0.2713 -0.1692
 6242TIP3   OH240216   5.980   3.227   5.889  0.0702  0.5833 -0.2061
 6242TIP3    H140217   5.915   3.255   5.825 -0.1695  2.4444  0.7936
 6242TIP3    H240218   5.929   3.207   5.967  0.5185 -0.0619 -0.0723
 6243TIP3   OH240219   6.110   0.573   3.709  0.2927  0.0686  0.0009
 6243TIP3    H140220   6.156   0.645   3.752  0.1149  0.9813 -1.2807
 6243TIP3    H240221   6.045   0.544   3.773  1.6114 -0.2319  1.2480
 6244TIP3   OH240222   2.058   4.098   2.861 -0.1036 -0.1190  0.2216
 6244TIP3    H140223   2.066   4.130   2.771  1.3842  2.6158  1.1903
 6244TIP3    H240224   2.009   4.016   2.854 -1.7725  0.9921 -2.8588
 6245TIP3   OH240225   4.135   1.883   5.710 -0.2720  0.4305  0.6108
 6245TIP3    H140226   4.113   1.922   5.626 -0.9925  0.6482  0.8877
 6245TIP3    H240227   4.101   1.945   5.775 -1.0654 -0.4507  1.0556
 6246TIP3   OH240228   3.907   6.429   0.370  0.0904  0.5770  0.3751
 6246TIP3    H140229   3.981   6.404   0.425 -0.4026  3.1766  2.4845
 6246TIP3    H240230   3.945   6.483   0.300  0.4807 -0.8020 -0.5004
 6247TIP3   OH240231   3.268   5.465  15.360  0.1946 -0.1693 -0.3344
 6247TIP3    H140232   3.260   5.513  15.278  1.1472  0.8300  0.1371
 6247TIP3    H240233   3.190   5.490  15.410  0.9049  1.2979  0.0955
 6248TIP3   OH240234   2.753   5.299  11.314 -0.2849  0.1361  0.8015
 6248TIP3    H140235   2.743   5.268  11.224  0.5714 -0.6638  0.9682
 6248TIP3    H240236   2.701   5.238  11.366 -0.6906  0.5331  0.8652
 6249TIP3   OH240237   3.102   2.261   1.847  0.1602  0.2252 -0.0928
 6249TIP3    H140238   3.060   2.283   1.764 -0.7068  1.5087  0.6506
 6249TIP3    H240239   3.036   2.209   1.894 -0.1101  1.1357  0.5534
 6250TIP3   OH240240   3.201   6.349   2.734  0.0431 -0.7875 -0.1867
 6250TIP3    H140241   3.228   6.282   2.797  0.0110 -1.1713 -0.5726
 6250TIP3    H240242   3.233   6.316   2.649 -1.2445 -1.0338 -0.5939
 6251TIP3   OH240243   4.410   4.656   4.764  0.7766 -0.0490  1.1488
 6251TIP3    H140244   4.441   4.583   4.818 -0.7937 -1.8607 -0.2324
 6251TIP3    H240245   4.426   4.628   4.674 -0.1891  1.1519  0.5698
 6252TIP3   OH240246   4.399   1.429  11.925  0.3703 -0.2276  0.1179
 6252TIP3    H140247   4.362   1.488  11.859  1.3667 -0.7534 -0.9333
 6252TIP3    H240248   4.352   1.346  11.912 -0.9715  0.2560  1.5398
 6253TIP3   OH240249   0.084   4.257   0.587 -0.0331  0.0565  0.0439
 6253TIP3    H140250   0.156   4.197   0.568 -0.4462  0.2940 -2.5758
 6253TIP3    H240251   0.122   4.344   0.573 -1.0632  0.1603 -2.7568
 6254TIP3   OH240252   4.786   2.059  14.495  0.1997 -0.2266 -0.6185
 6254TIP3    H140253   4.830   2.129  14.544 -0.2625  0.1525 -0.7281
 6254TIP3    H240254   4.693   2.071  14.516 -0.0654  0.2919 -2.0089
 6255TIP3   OH240255   5.531   5.879   0.876  0.0757  0.1315 -0.1153
 6255TIP3    H140256   5.604   5.827   0.908 -0.5344 -0.7014 -0.0351
 6255TIP3    H240257   5.570   5.939   0.812  0.8499 -0.1547  0.0776
 6256TIP3   OH240258   2.773   0.577   2.287  0.1217 -0.2755  0.0819
 6256TIP3    H140259   2.718   0.544   2.358  0.3216  1.6234  1.1948
 6256TIP3    H240260   2.860   0.543   2.306 -0.0346 -0.6245  0.1695
 6257TIP3   OH240261   2.231   0.823   1.041  0.1730  0.0206  0.5253
 6257TIP3    H140262   2.314   0.782   1.064  0.4556 -0.5187 -1.3303
 6257TIP3    H240263   2.255   0.896   0.983 -0.5877  0.4612  0.7423
 6258TIP3   OH240264   4.493   6.415   2.696 -0.5765  0.3997 -0.0012
 6258TIP3    H140265   4.438   6.467   2.755  0.1531  1.3769 -0.1527
 6258TIP3    H240266   4.532   6.348   2.751  0.9220  1.9355  0.8753
 6259TIP3   OH240267   2.837   5.382  13.967 -0.3759  0.5066 -0.1405
 6259TIP3    H140268   2.929   5.408  13.977 -0.3373  0.3684 -0.1401
 6259TIP3    H240269   2.800   5.390  14.055  0.1537 -1.4544  0.3057
 6260TIP3   OH240270   1.298   2.595   3.992 -0.6761 -0.2235 -0.1769
 6260TIP3    H140271   1.288   2.690   3.996 -0.3808 -0.2118  0.4335
 6260TIP3    H240272   1.230   2.566   3.931 -0.3645  0.4320 -0.8456
 6261TIP3   OH240273   4.706   0.222  10.647 -0.5918  0.4973 -0.0962
 6261TIP3    H140274   4.800   0.233  10.632 -0.8854  1.6249 -1.2455
 6261TIP3    H240275   4.698   0.215  10.742  0.7212 -0.4242 -0.0238
 6262TIP3   OH240276   0.999   6.162   0.375  0.0644 -0.3627 -0.1977
 6262TIP3    H140277   1.001   6.256   0.394  1.7042 -0.6391  1.3426
 6262TIP3    H240278   0.920   6.130   0.419  0.2711  0.1028  0.5343
 6263TIP3   OH240279   5.359   6.484   3.545  0.1788 -0.3239  0.0985
 6263TIP3    H140280   5.373   6.416   3.478 -0.2478 -0.6181  0.3041
 6263TIP3    H240281   5.291   6.540   3.507 -1.6829 -1.7208  1.1531
 6264TIP3   OH240282   2.402   3.277  15.977 -0.1738  0.1413  0.0118
 6264TIP3    H140283   2.337   3.214  15.944 -1.0875  0.3768  1.2678
 6264TIP3    H240284   2.352   3.358  15.989  0.7602  0.8243 -0.6223
 6265TIP3   OH240285   2.148   2.487   0.680 -0.8251 -0.7102  0.6016
 6265TIP3    H140286   2.154   2.563   0.736 -0.0711  0.3660 -0.8728
 6265TIP3    H240287   2.063   2.448   0.701 -1.0636  0.3222  1.6261
 6266TIP3   OH240288   6.296   1.026   1.953  0.1718  0.4326 -0.2090
 6266TIP3    H140289   6.222   0.967   1.964 -1.3211  2.4744  1.6251
 6266TIP3    H240290   6.273   1.080   1.877  0.5237  0.0419 -0.5932
 6267TIP3   OH240291   5.168   3.250   6.285  0.3258  0.6179  0.4503
 6267TIP3    H140292   5.199   3.298   6.208  0.2041  1.0936  0.6963
 6267TIP3    H240293   5.246   3.243   6.341  0.3024  0.6721  0.4892
 6268TIP3   OH240294   3.666   2.615   6.198  0.4234  0.4922 -0.2426
 6268TIP3    H140295   3.610   2.601   6.121 -1.3198 -1.2336  1.2337
 6268TIP3    H240296   3.627   2.689   6.243  2.2155  2.3577 -1.5955
 6269TIP3   OH240297   3.024   4.474   0.985  0.1573  0.2641  0.2837
 6269TIP3    H140298   2.949   4.439   0.937  0.7484 -0.5269 -0.0795
 6269TIP3    H240299   3.078   4.517   0.919  1.0393 -0.9436  0.1959
 6270TIP3   OH240300   2.338   5.927   3.162 -0.4718 -0.0078  0.0994
 6270TIP3    H140301   2.389   5.962   3.089 -0.5032  0.7991  0.4569
 6270TIP3    H240302   2.287   5.855   3.124  1.7497 -1.6164 -0.0620
 6271TIP3   OH240303   3.712   1.389  14.794  0.3057 -0.0841 -0.5237
 6271TIP3    H140304   3.693   1.394  14.888 -0.1433 -2.3558 -0.4419
 6271TIP3    H240305   3.807   1.380  14.790  0.2856 -0.4250 -0.2706
 6272TIP3   OH240306   0.502   0.110   5.941  0.0502 -0.1426  0.9237
 6272TIP3    H140307   0.477   0.175   6.008  2.8126  1.5302  0.4871
 6272TIP3    H240308   0.575   0.150   5.895  0.2333 -2.5707 -1.1079
 6273TIP3   OH240309   1.207   0.377   5.542  0.0011  0.1447 -0.5943
 6273TIP3    H140310   1.260   0.300   5.563 -0.0310 -0.0296 -1.1334
 6273TIP3    H240311   1.237   0.405   5.456 -0.7954  0.0247 -0.9222
 6274TIP3   OH240312   4.687   5.457   3.993 -0.2131 -0.5702  0.2502
 6274TIP3    H140313   4.717   5.404   3.919  0.6137 -0.2920  0.3821
 6274TIP3    H240314   4.748   5.437   4.064  0.7258  1.2547  0.0221
 6275TIP3   OH240315   6.467   4.889  14.665 -0.1959 -0.3348  0.4047
 6275TIP3    H140316   6.557   4.882  14.699 -0.6501 -1.7102  1.4257
 6275TIP3    H240317   6.428   4.958  14.717 -0.6246 -1.8514  2.2143
 6276TIP3   OH240318   2.118   5.149   0.462 -0.7143  0.0831 -0.0879
 6276TIP3    H140319   2.059   5.109   0.526 -1.2270  0.3842 -0.3607
 6276TIP3    H240320   2.192   5.181   0.513 -0.8576 -0.1754  0.2802
 6277TIP3   OH240321   2.691   1.837  12.752  0.1353 -0.1397 -0.4130
 6277TIP3    H140322   2.766   1.873  12.706  0.3005 -2.7021 -2.3429
 6277TIP3    H240323   2.615   1.875  12.708  0.2741  0.4062 -0.1939
 6278TIP3   OH240324   1.780   3.710  16.526 -0.1365 -0.4135  0.1935
 6278TIP3    H140325   1.730   3.778  16.482 -0.3974 -0.3772  0.5431
 6278TIP3    H240326   1.844   3.682  16.461 -0.4710 -0.3133 -0.1839
 6279TIP3   OH240327   0.365   2.602   2.878  0.3432 -0.0362  0.3435
 6279TIP3    H140328   0.330   2.679   2.835  0.0526  0.2973  1.1501
 6279TIP3    H240329   0.435   2.571   2.820  0.3985  0.7721 -0.0350
 6280TIP3   OH240330   4.873   2.043  13.642  0.2873 -0.5370  0.7991
 6280TIP3    H140331   4.886   2.092  13.561  0.8644 -0.7371  0.7705
 6280TIP3    H240332   4.872   2.110  13.710  1.2538 -0.4996  0.7789
 6281TIP3   OH240333   0.700   5.455  14.927  0.3049  0.1033  0.0294
 6281TIP3    H140334   0.715   5.475  14.835  0.7882 -0.0492  0.0746
 6281TIP3    H240335   0.656   5.533  14.961  2.6267  1.4008  0.3187
 6282TIP3   OH240336   6.793   2.342  11.250  0.1977 -0.3410 -0.3174
 6282TIP3    H140337   6.781   2.372  11.160  0.0660 -0.5007 -0.3546
 6282TIP3    H240338   6.711   2.297  11.271 -0.1691  0.5378  0.2121
 6283TIP3   OH240339   5.124   0.617  16.826 -0.1007  0.0753 -0.0474
 6283TIP3    H140340   5.158   0.655  16.745  2.1308  1.1209  1.2672
 6283TIP3    H240341   5.030   0.631  16.821  0.1557  1.6735 -1.7149
 6284TIP3   OH240342   1.578   1.976  12.058  0.5589  0.1771 -0.3774
 6284TIP3    H140343   1.621   2.017  11.984  1.3956  0.1953  0.1083
 6284TIP3    H240344   1.610   1.885  12.057  1.0084  0.3190  0.2718
 6285TIP3   OH240345   3.709   6.328   1.245 -0.0359 -0.6680  0.1436
 6285TIP3    H140346   3.789   6.280   1.223 -0.3943 -1.5340  0.6614
 6285TIP3    H240347   3.739   6.398   1.303  0.3886 -0.8097  0.1009
 6286TIP3   OH240348   5.922   3.971   1.963 -0.0533 -0.3181 -0.5110
 6286TIP3    H140349   5.978   4.010   2.030 -0.2940  0.6469 -0.8494
 6286TIP3    H240350   5.917   3.879   1.987  1.2286 -0.3268 -0.1613
 6287TIP3   OH240351   0.121   2.568   2.255 -0.4656 -0.0868  0.4051
 6287TIP3    H140352   0.122   2.480   2.219 -0.1035 -0.4116  1.1803
 6287TIP3    H240353   0.171   2.620   2.192  1.4061 -0.9364  1.1081
 6288TIP3   OH240354   5.242   0.588   4.588 -0.2069  0.1160  0.0194
 6288TIP3    H140355   5.257   0.498   4.618  1.6672  0.4733  0.2511
 6288TIP3    H240356   5.272   0.588   4.498  1.6567  0.9418  0.5971
 6289TIP3   OH240357   0.602   2.426   4.326 -0.3759 -0.1808 -0.1340
 6289TIP3    H140358   0.581   2.496   4.387 -0.9212 -0.3551 -0.1152
 6289TIP3    H240359   0.656   2.365   4.376  0.9288  0.7009 -0.4309
 6290TIP3   OH240360   3.906   1.024   1.239 -0.0638  0.1636  0.2960
 6290TIP3    H140361   3.943   1.113   1.245  1.3277 -0.3723 -0.0696
 6290TIP3    H240362   3.950   0.984   1.164  0.2265 -1.2513  1.1892
 6291TIP3   OH240363   4.041   3.317   2.548 -0.4429  0.2066  0.2311
 6291TIP3    H140364   3.962   3.262   2.546  0.3645 -0.9745 -1.7996
 6291TIP3    H240365   4.073   3.311   2.638 -3.3968  1.8873  1.5537
 6292TIP3   OH240366   3.159   6.429   2.213  0.1284  0.5202  0.4121
 6292TIP3    H140367   3.247   6.465   2.200  0.0440  0.4906 -0.3041
 6292TIP3    H240368   3.100   6.495   2.177  0.0110 -0.5890 -1.6197
 6293TIP3   OH240369   6.150   5.738  16.071 -0.7107 -0.1980 -0.3866
 6293TIP3    H140370   6.090   5.760  16.000 -0.1185  0.2560 -0.7514
 6293TIP3    H240371   6.093   5.714  16.144 -1.3908  1.4694 -0.3236
 6294TIP3   OH240372   1.285   0.041   2.963 -0.3098  0.0863  0.7333
 6294TIP3    H140373   1.305   0.118   3.017 -1.8842  0.0513  1.4117
 6294TIP3    H240374   1.243   0.076   2.885  0.9670  0.0481 -0.0020
 6295TIP3   OH240375   1.541   4.231  16.238 -0.2112 -0.3959  0.0336
 6295TIP3    H140376   1.500   4.308  16.278 -1.6239 -0.9409 -0.3085
 6295TIP3    H240377   1.610   4.206  16.299 -1.0744 -0.0713  1.1653
 6296TIP3   OH240378   1.253   3.525  10.589 -0.0483 -0.0360 -0.1054
 6296TIP3    H140379   1.176   3.582  10.584  0.3497  0.4234 -2.0987
 6296TIP3    H240380   1.309   3.566  10.655 -1.4432 -0.3529  1.3353
 6297TIP3   OH240381   1.518   5.376   1.369  0.0835  0.0255  0.1150
 6297TIP3    H140382   1.579   5.302   1.365  0.2207  0.1855 -1.3351
 6297TIP3    H240383   1.548   5.435   1.299 -0.3265  1.2212  0.9247
 6298TIP3   OH240384   6.320   5.336  13.699  0.2442  0.2490  0.2472
 6298TIP3    H140385   6.354   5.423  13.719  0.4402  0.0285  0.9069
 6298TIP3    H240386   6.343   5.283  13.775 -0.3474 -0.2512  0.0897
 6299TIP3   OH240387   2.050   1.075   2.305  0.4505 -0.1610  0.2700
 6299TIP3    H140388   2.076   1.098   2.216  1.4757 -0.7001  0.4132
 6299TIP3    H240389   2.055   1.157   2.354 -0.6070  0.2454 -0.2509
 6300TIP3   OH240390   6.305   2.626   3.378 -0.0924  0.0443  0.3846
 6300TIP3    H140391   6.290   2.657   3.289  0.0763 -0.8631  0.0298
 6300TIP3    H240392   6.352   2.698   3.421  0.2979  0.2778 -0.4185
 6301TIP3   OH240393   5.819   2.549   0.720 -0.0452 -0.1338  0.1638
 6301TIP3    H140394   5.803   2.515   0.632 -1.1027  1.6799 -0.4124
 6301TIP3    H240395   5.747   2.610   0.735  0.4241  0.0112  2.0876
 6302TIP3   OH240396   6.346   4.102   1.789 -0.4853  0.1487 -0.5759
 6302TIP3    H140397   6.390   4.154   1.722  0.0511 -1.7306 -1.7417
 6302TIP3    H240398   6.412   4.092   1.859 -0.8140  1.5295 -0.0391
 6303TIP3   OH240399   5.369   3.134   1.887  0.3384 -0.5695  0.2120
 6303TIP3    H140400   5.409   3.057   1.847 -1.0980 -1.0236 -0.4086
 6303TIP3    H240401   5.410   3.140   1.974  1.6139 -1.0827 -0.3306
 6304TIP3   OH240402   5.595   3.941   5.969  0.5501  0.5999 -0.2016
 6304TIP3    H140403   5.686   3.964   5.989  0.3154  1.4646 -0.0897
 6304TIP3    H240404   5.582   3.856   6.011  0.7732  1.2874  1.3291
 6305TIP3   OH240405   2.370   2.515  13.832 -0.2252 -0.3690 -0.1002
 6305TIP3    H140406   2.379   2.420  13.843 -0.1114 -0.2479  0.9263
 6305TIP3    H240407   2.450   2.542  13.787  0.1947 -0.6322  0.4772
 6306TIP3   OH240408   0.968   2.958   5.347 -0.4468 -0.3670 -0.2281
 6306TIP3    H140409   0.934   3.010   5.419  0.2052 -0.9706  0.5480
 6306TIP3    H240410   0.914   2.879   5.347 -0.0807 -0.6213 -0.0219
 6307TIP3   OH240411   2.706   1.453  11.804  0.3000 -0.0664 -0.3389
 6307TIP3    H140412   2.753   1.487  11.729 -0.0525 -0.0285 -0.5459
 6307TIP3    H240413   2.629   1.509  11.813  0.8021  0.5010  0.6152
 6308TIP3   OH240414   4.204   5.006   5.048 -0.4315  0.5378  0.0563
 6308TIP3    H140415   4.253   5.088   5.058 -0.7832  0.8976 -0.9515
 6308TIP3    H240416   4.126   5.032   4.999  1.4338 -0.9953 -4.2154
 6309TIP3   OH240417   6.028   1.288  13.708 -0.3342 -0.1448 -0.2370
 6309TIP3    H140418   6.017   1.268  13.801  1.8508  0.8600  0.3038
 6309TIP3    H240419   5.972   1.225  13.664 -1.6338 -0.4933  1.7520
 6310TIP3   OH240420   5.491   3.953  11.639  0.0939 -0.1212  0.3563
 6310TIP3    H140421   5.493   3.858  11.651  1.6610 -0.3758 -1.3400
 6310TIP3    H240422   5.575   3.983  11.676  0.3287  0.3632 -0.5360
 6311TIP3   OH240423   0.513   6.131   5.836 -0.5254  0.2829 -0.4638
 6311TIP3    H140424   0.595   6.138   5.787  0.8115 -0.9914  1.4816
 6311TIP3    H240425   0.504   6.216   5.880  1.0817 -0.3734  1.2387
 6312TIP3   OH240426   6.576   2.643  17.332  0.2493  0.3229 -0.1785
 6312TIP3    H140427   6.612   2.711  17.275  0.4793 -0.3880 -0.8964
 6312TIP3    H240428   6.638   2.570  17.325 -0.5787 -0.3886 -0.3385
 6313TIP3   OH240429   1.095   0.527   3.572 -0.1081  0.2354  0.0317
 6313TIP3    H140430   1.033   0.476   3.624 -0.6666  1.6405  0.8357
 6313TIP3    H240431   1.173   0.472   3.565 -0.2447 -0.2481  1.8720
 6314TIP3   OH240432   6.462   6.205  12.231  0.0869  0.4779 -0.1623
 6314TIP3    H140433   6.484   6.293  12.200 -0.9955  1.0046  0.5087
 6314TIP3    H240434   6.369   6.195  12.210 -0.4435  0.4837  2.0026
 6315TIP3   OH240435   2.894   3.296  13.528 -0.3502  0.5611 -0.6894
 6315TIP3    H140436   2.937   3.306  13.613 -0.9865  1.3709 -0.4452
 6315TIP3    H240437   2.855   3.209  13.531  1.4982 -0.3335 -1.0492
 6316TIP3   OH240438   5.440   6.617  17.362 -0.1990  0.0361  0.2120
 6316TIP3    H140439   5.467   6.586  17.449 -2.0774  1.7018  1.4938
 6316TIP3    H240440   5.368   6.559  17.337  2.0778 -2.2268 -1.6351
 6317TIP3   OH240441   2.471   1.126   0.751 -0.3044  0.3869 -0.1556
 6317TIP3    H140442   2.563   1.122   0.725  0.0793 -0.4466  1.2158
 6317TIP3    H240443   2.471   1.096   0.842 -1.7086  2.1155  0.4679
 6318TIP3   OH240444   3.056   4.881  15.186  0.4162  0.6104 -0.0460
 6318TIP3    H140445   2.988   4.870  15.252  1.3394  2.8187  1.3619
 6318TIP3    H240446   3.026   4.953  15.131 -0.3859 -1.2412 -2.2417
 6319TIP3   OH240447   6.437   3.893   2.741 -0.5061  0.3227  0.0840
 6319TIP3    H140448   6.473   3.965   2.793  1.9298 -1.1077  0.5913
 6319TIP3    H240449   6.349   3.921   2.717  0.1554  3.2089  0.6788
 6320TIP3   OH240450   4.014   0.760  12.583 -0.3067 -0.0516 -0.3437
 6320TIP3    H140451   4.015   0.665  12.592  1.2467  0.0404  0.9871
 6320TIP3    H240452   4.103   0.783  12.556  0.3105  1.1930  2.3443
 6321TIP3   OH240453   3.056   5.166   3.206 -0.0683 -0.5546  0.5392
 6321TIP3    H140454   3.121   5.236   3.213 -1.9747  1.4763 -0.6583
 6321TIP3    H240455   3.102   5.094   3.164  1.3809  0.8588 -0.4018
 6322TIP3   OH240456   3.678   4.953  15.105 -0.4169  0.1892  0.2517
 6322TIP3    H140457   3.646   4.872  15.065 -0.8634  0.0819  0.8101
 6322TIP3    H240458   3.766   4.965  15.069 -0.2088 -0.7288  0.4172
 6323TIP3   OH240459   5.770   1.018   2.383 -0.2131  0.0792 -0.0942
 6323TIP3    H140460   5.687   1.040   2.427  0.1013  1.4666 -0.1400
 6323TIP3    H240461   5.827   0.990   2.454 -0.9837 -1.8450 -0.1737
 6324TIP3   OH240462   4.351   0.367   5.251  0.0138 -0.0980  0.2580
 6324TIP3    H140463   4.272   0.313   5.255  0.2518 -0.6484 -1.6648
 6324TIP3    H240464   4.398   0.347   5.333  0.1639 -2.9557 -0.4262
 6325TIP3   OH240465   6.555   0.247  14.630 -0.1904  0.3693 -0.6045
 6325TIP3    H140466   6.626   0.250  14.694  0.0728 -1.2978 -0.7710
 6325TIP3    H240467   6.475   0.260  14.681  0.0288 -0.7745  0.0729
 6326TIP3   OH240468   0.387   6.256   3.310  0.5177 -0.2386  0.6148
 6326TIP3    H140469   0.459   6.193   3.298  1.4954  0.7509  1.0795
 6326TIP3    H240470   0.386   6.306   3.228 -0.2335 -0.8103  0.2620
 6327TIP3   OH240471   2.737   5.287   6.299 -0.4787 -0.4347 -0.0144
 6327TIP3    H140472   2.798   5.344   6.252 -1.4730  0.4464 -0.2964
 6327TIP3    H240473   2.778   5.272   6.384 -0.4002  1.1457  0.2605
 6328TIP3   OH240474   5.133   4.987   0.249  0.3995 -0.0090 -0.6441
 6328TIP3    H140475   5.042   4.978   0.221  0.2913 -4.7296  0.4754
 6328TIP3    H240476   5.127   5.022   0.338 -0.2205  0.3413 -0.8154
 6329TIP3   OH240477   1.089   0.740   2.502  1.2149  0.2816  0.1038
 6329TIP3    H140478   1.149   0.681   2.456  1.5641  0.6355  0.0959
 6329TIP3    H240479   1.005   0.695   2.500  1.6168 -0.5196  0.6861
 6330TIP3   OH240480   2.615   3.137  16.086  0.5217  0.2340 -0.0313
 6330TIP3    H140481   2.564   3.214  16.060  3.1558  1.5289 -1.8636
 6330TIP3    H240482   2.687   3.134  16.023  3.0918 -1.0606  2.7170
 6331TIP3   OH240483   5.419   4.748   5.477 -0.0538 -0.0329  0.5240
 6331TIP3    H140484   5.391   4.775   5.389  0.2987  2.3676  1.0820
 6331TIP3    H240485   5.398   4.823   5.532  2.5481 -0.2560  1.9435
 6332TIP3   OH240486   2.284   5.505  16.385  0.8385 -0.0302 -0.5079
 6332TIP3    H140487   2.212   5.537  16.440  0.5781  0.7303 -1.2653
 6332TIP3    H240488   2.330   5.585  16.357  2.1196 -0.5038  0.1248
 6333TIP3   OH240489   6.087   6.710   5.256 -0.2134  0.1522 -0.0274
 6333TIP3    H140490   6.181   6.724   5.271 -0.2541  0.9053 -0.3996
 6333TIP3    H240491   6.046   6.785   5.299 -0.5942  0.1967 -0.4684
 6334TIP3   OH240492   2.908   4.081   3.271 -0.0064 -0.4439 -0.4486
 6334TIP3    H140493   2.956   4.152   3.314 -1.4446 -0.4498  1.2837
 6334TIP3    H240494   2.923   4.095   3.178  1.7627  0.6549 -0.0438
 6335TIP3   OH240495   4.330   1.200   1.106  0.5247 -0.2982  0.0246
 6335TIP3    H140496   4.279   1.233   1.180 -0.2055  0.5252 -0.8176
 6335TIP3    H240497   4.268   1.198   1.033  1.7192  0.9397 -1.0743
 6336TIP3   OH240498   0.335   1.913  16.984 -0.3601 -0.5980  0.5985
 6336TIP3    H140499   0.396   1.901  16.912  1.2863 -0.6885  1.9464
 6336TIP3    H240500   0.259   1.956  16.945  0.8723  0.2078 -0.9952
 6337TIP3   OH240501   1.173   3.474   4.124 -0.4767 -0.4861  0.1796
 6337TIP3    H140502   1.148   3.382   4.128  1.3273 -1.0617 -0.4574
 6337TIP3    H240503   1.200   3.487   4.033 -0.4599  0.6048  0.3300
 6338TIP3   OH240504   6.104   4.031   6.293  0.8081 -0.3517 -0.3645
 6338TIP3    H140505   6.180   4.080   6.323  1.5190 -0.7086 -1.5529
 6338TIP3    H240506   6.062   4.089   6.229  0.3251 -0.3429 -0.0455
 6339TIP3   OH240507   2.404   2.273   0.871  0.2296 -0.6398  0.0696
 6339TIP3    H140508   2.381   2.181   0.879 -1.9038 -0.3730 -1.8421
 6339TIP3    H240509   2.411   2.288   0.776  1.2206  1.0040  0.3586
 6340TIP3   OH240510   5.132   2.722  15.259 -0.3554  0.0770 -0.0814
 6340TIP3    H140511   5.051   2.724  15.310 -1.2554 -0.0997 -1.4524
 6340TIP3    H240512   5.195   2.677  15.315 -0.9257  1.0177  1.3794
 6341TIP3   OH240513   4.355   6.717   0.772 -0.1136 -0.2685 -0.1626
 6341TIP3    H140514   4.264   6.718   0.742  0.0653 -2.2672 -0.9152
 6341TIP3    H240515   4.391   6.801   0.743 -1.9446  0.9747  0.9896
 6342TIP3   OH240516   5.912   2.087  12.712 -0.7458  0.3281 -0.4898
 6342TIP3    H140517   5.873   2.018  12.658 -1.7998  1.1720 -0.8323
 6342TIP3    H240518   5.895   2.059  12.802 -0.9338  0.0144 -0.6208
 6343TIP3   OH240519   1.164   0.256   0.108  0.5021 -0.1316  0.1087
 6343TIP3    H140520   1.201   0.342   0.129 -0.3884  0.1615  0.5444
 6343TIP3    H240521   1.097   0.275   0.043  0.7975 -0.5984 -0.3385
 6344TIP3   OH240522   6.336   5.809  14.298 -0.0171  0.4160  0.1316
 6344TIP3    H140523   6.258   5.800  14.244 -0.3516  1.9221  0.3250
 6344TIP3    H240524   6.335   5.901  14.327  0.2186 -0.2717  2.5674
 6345TIP3   OH240525   4.617   1.272  12.938  0.0977  0.0205 -0.3794
 6345TIP3    H140526   4.595   1.276  13.031 -2.9189  0.5098 -1.0093
 6345TIP3    H240527   4.686   1.206  12.933 -0.2909 -0.6850  2.1182
 6346TIP3   OH240528   3.450   1.825  17.188 -0.3972  0.3663 -0.2174
 6346TIP3    H140529   3.454   1.811  17.093  0.6805  0.5269 -0.1984
 6346TIP3    H240530   3.409   1.745  17.222 -0.4401  0.1475 -0.7761
 6347TIP3   OH240531   2.693   5.744  11.751 -0.2075 -0.1635 -0.2688
 6347TIP3    H140532   2.787   5.739  11.729  0.4927 -2.2505  2.6529
 6347TIP3    H240533   2.687   5.816  11.813 -0.8835  0.9455 -1.5616
 6348TIP3   OH240534   4.616   1.597   1.303  0.3512 -0.4389  0.1714
 6348TIP3    H140535   4.623   1.503   1.288 -1.0197 -0.2774 -1.9174
 6348TIP3    H240536   4.539   1.608   1.357 -0.1881 -0.4711 -0.5738
 6349TIP3   OH240537   4.054   2.169  16.401 -0.4994 -0.2143  0.0036
 6349TIP3    H140538   3.989   2.139  16.337 -4.1284  2.5851  1.9966
 6349TIP3    H240539   4.032   2.122  16.481  0.0457  0.6663  0.6897
 6350TIP3   OH240540   2.813   4.528  12.116 -0.4582 -0.1474 -0.1768
 6350TIP3    H140541   2.844   4.617  12.104  1.9852 -1.0995 -1.6291
 6350TIP3    H240542   2.852   4.499  12.198 -0.7333 -0.0757 -0.0213
 6351TIP3   OH240543   6.232   3.787   6.206  0.4205 -0.4699  0.1317
 6351TIP3    H140544   6.192   3.867   6.240 -1.0593 -0.8901 -0.5476
 6351TIP3    H240545   6.212   3.788   6.112 -0.5289 -2.1047  0.2781
 6352TIP3   OH240546   4.497   6.618  12.809  0.6014  0.1202  0.1092
 6352TIP3    H140547   4.420   6.667  12.779 -0.5628 -0.8584  1.3525
 6352TIP3    H240548   4.463   6.531  12.831  2.2566 -0.6465 -0.2218
 6353TIP3   OH240549   2.485   5.215  17.034  0.1421 -0.5026  0.6202
 6353TIP3    H140550   2.408   5.267  17.012  1.0665  0.4285 -0.6059
 6353TIP3    H240551   2.468   5.129  16.996  0.8397  0.5039 -2.1959
 6354TIP3   OH240552   0.073   1.210  14.899  0.1825  0.1571 -0.2998
 6354TIP3    H140553   0.001   1.272  14.902 -0.2392 -0.0624 -3.1133
 6354TIP3    H240554   0.055   1.156  14.822  2.8859 -0.5065 -0.5655
 6355TIP3   OH240555   5.589   4.974  12.568  0.2806  0.6617 -0.0566
 6355TIP3    H140556   5.514   4.935  12.614 -0.3664 -0.3587 -1.8727
 6355TIP3    H240557   5.659   4.911  12.581  0.4784  1.0126  0.6075
 6356TIP3   OH240558   0.698   1.030   0.635  0.1593  0.4897  0.0565
 6356TIP3    H140559   0.617   0.991   0.602 -0.7077  1.4168  1.0197
 6356TIP3    H240560   0.751   1.045   0.557 -0.4337 -0.4829 -0.5527
 6357TIP3   OH240561   0.868   0.059   2.455  0.0112 -0.3705 -0.1540
 6357TIP3    H140562   0.878  -0.033   2.430  2.3941  0.4906 -3.1039
 6357TIP3    H240563   0.958   0.089   2.469 -0.7144  1.5026  0.8050
 6358TIP3   OH240564   5.912   5.357   5.359 -0.4686 -0.0769  0.1831
 6358TIP3    H140565   5.933   5.433   5.304 -0.9858  0.0278  0.1202
 6358TIP3    H240566   5.923   5.388   5.449  0.3677 -0.2437  0.1435
 6359TIP3   OH240567   4.827   5.212  13.870  0.2102 -0.5611 -0.4303
 6359TIP3    H140568   4.755   5.272  13.848 -0.7432 -1.4971  0.0614
 6359TIP3    H240569   4.839   5.159  13.791 -0.4239 -1.1729 -0.1189
 6360TIP3   OH240570   6.248   4.108   2.896 -0.8228 -0.1426 -0.2367
 6360TIP3    H140571   6.237   4.194   2.936 -2.2740 -0.9821  1.3327
 6360TIP3    H240572   6.339   4.084   2.914 -0.2790  1.2235 -1.0901
 6361TIP3   OH240573   6.280   0.493  16.925 -0.3797  0.1569 -0.2244
 6361TIP3    H140574   6.241   0.442  16.854 -0.6567  1.1611 -0.8032
 6361TIP3    H240575   6.368   0.514  16.894  0.5225 -1.7096  0.8876
 6362TIP3   OH240576   2.954   0.431   1.900 -0.1603  0.8493 -0.0218
 6362TIP3    H140577   3.045   0.437   1.929  0.0784  2.2060 -0.9756
 6362TIP3    H240578   2.960   0.429   1.804 -1.0355 -1.4379 -0.0766
 6363TIP3   OH240579   3.129   6.481   3.394  0.0113 -1.2980  0.0248
 6363TIP3    H140580   3.156   6.394   3.423  0.5324 -1.0450  0.3099
 6363TIP3    H240581   3.067   6.465   3.324 -2.1866 -1.9658  2.0020
 6364TIP3   OH240582   1.428   1.317   3.130 -0.2543 -0.0308  0.6565
 6364TIP3    H140583   1.345   1.342   3.172 -1.9546 -1.1617 -1.7580
 6364TIP3    H240584   1.444   1.386   3.066  0.4272 -0.0634  0.7885
 6365TIP3   OH240585   4.907   2.633  11.756  0.2584  0.2117 -0.7888
 6365TIP3    H140586   4.911   2.726  11.731  0.5899  0.4339  0.0715
 6365TIP3    H240587   4.830   2.627  11.813  0.8945  0.1918  0.0807
 6366TIP3   OH240588   2.793   5.087  17.281  0.1620 -0.2475 -0.2635
 6366TIP3    H140589   2.859   5.019  17.266 -0.6085 -1.1387  0.3089
 6366TIP3    H240590   2.835   5.167  17.250  1.7439 -0.6879  0.6042
 6367TIP3   OH240591   6.737   2.446  11.779  0.0190 -1.0072  0.3783
 6367TIP3    H140592   6.784   2.460  11.697 -0.6923 -1.4030 -0.1037
 6367TIP3    H240593   6.799   2.472  11.847  1.0763 -1.8941 -0.2278
 6368TIP3   OH240594   2.357   3.175  13.621  0.6771  0.3066  0.2377
 6368TIP3    H140595   2.306   3.144  13.695 -0.6397 -1.2211 -1.2106
 6368TIP3    H240596   2.398   3.256  13.651  0.2063 -0.2649  2.5909
 6369TIP3   OH240597   4.316   3.562   0.190  0.1403  0.2081  0.1573
 6369TIP3    H140598   4.265   3.542   0.111  0.7011 -1.6294  0.2088
 6369TIP3    H240599   4.370   3.636   0.165  0.2858 -0.3158 -1.1904
 6370TIP3   OH240600   5.084   5.029   2.847 -0.2195  0.5963 -0.4987
 6370TIP3    H140601   5.176   5.010   2.868 -0.6132  0.4940  1.3368
 6370TIP3    H240602   5.070   4.989   2.761  0.7791 -1.6802  0.3023
 6371TIP3   OH240603   1.571   4.808  15.173 -0.5215 -0.1436  0.6981
 6371TIP3    H140604   1.610   4.889  15.204 -0.1850 -0.1774  0.3642
 6371TIP3    H240605   1.583   4.810  15.078  2.5552 -2.1421  0.9000
 6372TIP3   OH240606   3.145   3.258  15.901 -0.5170 -0.2732 -0.5016
 6372TIP3    H140607   3.155   3.259  15.805  1.0624 -1.1839 -0.3820
 6372TIP3    H240608   3.115   3.169  15.920 -0.6899 -0.1360 -0.1363
 6373TIP3   OH240609   3.623   2.362   1.547  0.4174  0.0838 -0.9796
 6373TIP3    H140610   3.576   2.444   1.559  0.0960 -0.1587 -0.5555
 6373TIP3    H240611   3.632   2.326   1.635  2.0127  0.4540 -0.9562
 6374TIP3   OH240612   6.017   3.194   6.448 -0.9750  0.1846  0.0635
 6374TIP3    H140613   6.040   3.154   6.532  0.0418  0.1745 -0.2114
 6374TIP3    H240614   5.952   3.261   6.470  1.0021  1.8470  1.2067
 6375TIP3   OH240615   4.832   3.477  16.383 -0.1031 -0.6436  0.5709
 6375TIP3    H140616   4.842   3.403  16.323  2.2270 -0.7887  1.0371
 6375TIP3    H240617   4.863   3.444  16.467  0.0875  0.5716  1.0028
 6376TIP3   OH240618   0.342   2.857   5.468 -0.2236 -0.3624  0.4814
 6376TIP3    H140619   0.362   2.870   5.375  0.4470 -1.2108  0.4996
 6376TIP3    H240620   0.416   2.898   5.514 -1.6127  2.0547  0.7376
 6377TIP3   OH240621   2.448   4.368  17.376 -0.1322  0.3639 -0.0545
 6377TIP3    H140622   2.523   4.423  17.356 -1.2002  1.4549 -1.2792
 6377TIP3    H240623   2.460   4.342  17.467 -0.5059  4.1763  1.2278
 6378TIP3   OH240624   6.681   3.621   3.414 -0.0264  0.5660  1.0257
 6378TIP3    H140625   6.716   3.545   3.367  1.4771  2.2854 -0.8078
 6378TIP3    H240626   6.589   3.600   3.428  0.3723 -1.6323  0.7028
 6379TIP3   OH240627   6.043   3.741  13.568 -0.1878  0.1944  0.1566
 6379TIP3    H140628   6.091   3.680  13.512  0.1528  0.8443 -0.2711
 6379TIP3    H240629   6.071   3.719  13.657 -1.5254 -1.5483  0.1916
 6380TIP3   OH240630   3.568   3.777  14.096  0.5277 -0.6234  0.2382
 6380TIP3    H140631   3.522   3.767  14.012 -1.0333 -0.7340  1.0783
 6380TIP3    H240632   3.586   3.687  14.124  0.0470 -0.6261  0.5470
 6381TIP3   OH240633   2.352   4.289   2.215 -0.1042  0.2254 -0.3390
 6381TIP3    H140634   2.262   4.261   2.201  1.1827 -3.2258 -3.3813
 6381TIP3    H240635   2.390   4.222   2.271  0.5984  1.7714  1.1218
 6382TIP3   OH240636   5.659   3.964   3.330 -0.5739  0.2805 -0.5965
 6382TIP3    H140637   5.564   3.963   3.342 -0.4664  1.7390  0.5445
 6382TIP3    H240638   5.692   3.905   3.397 -0.5679  1.3227  0.3410
 6383TIP3   OH240639   3.861   2.724  14.610  0.3078  0.7113 -0.4461
 6383TIP3    H140640   3.907   2.802  14.643  1.0330 -0.2870  1.0160
 6383TIP3    H240641   3.786   2.759  14.563  0.6937  2.3117  0.0494
 6384TIP3   OH240642   5.000   6.028  13.485 -0.3692  0.5190  0.3208
 6384TIP3    H140643   4.968   5.943  13.514 -0.3525  0.1207 -0.7665
 6384TIP3    H240644   4.950   6.092  13.535  0.2149 -0.1242  1.7664
 6385TIP3   OH240645   6.718   2.309   2.598 -0.2243  0.4828 -0.1930
 6385TIP3    H140646   6.808   2.327   2.572  0.1510 -2.3086 -1.1141
 6385TIP3    H240647   6.666   2.327   2.520 -0.3727  1.1581  0.0504
 6386TIP3   OH240648   2.232   5.671  11.700 -0.3207 -0.1441 -0.8624
 6386TIP3    H140649   2.238   5.660  11.795 -0.6672 -0.5427 -0.8820
 6386TIP3    H240650   2.153   5.724  11.687 -1.5732 -1.9267 -1.0243
 6387TIP3   OH240651   5.067   0.696   1.322 -0.2833 -0.1282  0.0190
 6387TIP3    H140652   5.070   0.604   1.348 -0.3882 -0.3256 -0.6528
 6387TIP3    H240653   5.154   0.713   1.285 -0.3579 -0.0340 -0.1129
 6388TIP3   OH240654   4.900   1.723   5.751  0.3230 -0.2567  0.1228
 6388TIP3    H140655   4.833   1.786   5.780  0.4331 -0.5228  1.0004
 6388TIP3    H240656   4.982   1.771   5.760  0.3832 -0.4300  0.5494
 6389TIP3   OH240657   0.705   5.736   3.109 -0.1885  0.0503 -0.3432
 6389TIP3    H140658   0.677   5.739   3.017  0.1780 -1.3844 -0.5208
 6389TIP3    H240659   0.627   5.710   3.157  0.1644 -1.4766 -0.5446
 6390TIP3   OH240660   2.531   2.449   5.062  0.0442  0.1972  0.5058
 6390TIP3    H140661   2.490   2.528   5.096  0.1835  0.1901  0.6899
 6390TIP3    H240662   2.550   2.396   5.139  1.2234  0.5894  0.5172
 6391TIP3   OH240663   6.399   3.318  11.768 -0.5822  0.3935  0.0470
 6391TIP3    H140664   6.363   3.310  11.680  0.1523 -0.7976 -0.1676
 6391TIP3    H240665   6.335   3.273  11.824 -0.4870  0.1474 -0.0402
 6392TIP3   OH240666   5.371   6.107  12.217 -0.4909 -0.3486  0.5334
 6392TIP3    H140667   5.312   6.168  12.261  1.3450  0.9262  1.4022
 6392TIP3    H240668   5.338   6.099  12.128 -0.8481  1.8869  0.4266
 6393TIP3   OH240669   5.597   4.379   5.016 -0.9720  0.0585 -0.0447
 6393TIP3    H140670   5.572   4.321   4.944 -1.0086 -1.6431  1.2980
 6393TIP3    H240671   5.658   4.442   4.976 -2.9142  0.7686 -2.1086
 6394TIP3   OH240672   6.003   3.900   4.851  0.1041  0.0014  0.4312
 6394TIP3    H140673   6.044   3.854   4.924  0.0056 -0.6202  0.0958
 6394TIP3    H240674   5.965   3.831   4.797 -1.4871  0.5629  0.7861
 6395TIP3   OH240675   2.237   4.307   1.366 -0.3037  0.3755  0.6471
 6395TIP3    H140676   2.273   4.252   1.296 -1.1606 -0.1398  0.5959
 6395TIP3    H240677   2.313   4.347   1.407  0.2538  0.1490 -0.1473
 6396TIP3   OH240678   4.950   6.354   1.547  0.4423 -0.3933 -0.4606
 6396TIP3    H140679   4.855   6.367   1.554  0.6857  1.6751 -0.5800
 6396TIP3    H240680   4.986   6.401   1.622  1.4063 -0.9850 -0.5394
 6397TIP3   OH240681   4.804   6.041   5.585 -0.0449  0.3555 -0.2880
 6397TIP3    H140682   4.805   6.105   5.656 -1.4139  1.1257 -0.9312
 6397TIP3    H240683   4.759   5.965   5.623  1.5026 -0.2436  0.4450
 6398TIP3   OH240684   3.891   2.099   4.478 -0.0007 -0.1850  0.5110
 6398TIP3    H140685   3.961   2.164   4.470 -0.4709  0.1755 -1.0170
 6398TIP3    H240686   3.844   2.124   4.557  0.2039  0.9675  0.2834
 6399TIP3   OH240687   0.907   5.018   5.638  0.2835  0.0005  0.3088
 6399TIP3    H140688   0.975   5.009   5.705  0.5643 -1.3136 -0.1304
 6399TIP3    H240689   0.889   4.929   5.610 -2.2059  0.2137  0.9597
 6400TIP3   OH240690   5.057   5.175  12.981  0.1533 -0.0078  0.3648
 6400TIP3    H140691   5.060   5.198  12.888  1.2580 -0.1837  0.3472
 6400TIP3    H240692   5.020   5.086  12.982  2.3347 -0.9716 -0.1216
 6401TIP3   OH240693   5.437   0.269   0.537 -0.2742  0.3307  0.3102
 6401TIP3    H140694   5.511   0.289   0.594 -0.0349  0.9390 -0.2052
 6401TIP3    H240695   5.381   0.212   0.589  1.0938 -1.0762  0.3323
 6402TIP3   OH240696   2.121   4.653  16.474  0.4691  0.3621 -0.7009
 6402TIP3    H140697   2.204   4.651  16.523 -0.9014  1.2567  1.8242
 6402TIP3    H240698   2.110   4.564  16.441  2.0052  0.0077 -0.3403
 6403TIP3   OH240699   2.009   2.839   3.664 -0.4505 -0.2846 -0.3046
 6403TIP3    H140700   2.031   2.892   3.587  1.7990 -0.8045 -0.0830
 6403TIP3    H240701   1.988   2.753   3.629 -1.8787  0.1241 -0.4949
 6404TIP3   OH240702   3.786   0.121  16.887 -0.2684  0.1744 -0.2849
 6404TIP3    H140703   3.757   0.053  16.948  0.9728  1.7246  2.1886
 6404TIP3    H240704   3.845   0.075  16.827 -1.0910 -1.3154 -0.0053
 6405TIP3   OH240705   3.109   3.614   4.229 -0.7335  0.1707 -0.0166
 6405TIP3    H140706   3.200   3.628   4.201 -0.6888 -0.3763 -0.1684
 6405TIP3    H240707   3.098   3.519   4.224 -1.1708  0.1956  0.4474
 6406TIP3   OH240708   2.570   1.134   4.509  0.0855 -0.2508 -0.4105
 6406TIP3    H140709   2.574   1.227   4.488  0.5792 -0.8857 -3.7163
 6406TIP3    H240710   2.661   1.105   4.505 -0.2811 -1.3029 -2.0710
 6407TIP3   OH240711   4.258   0.891  10.812  0.1675  0.1563 -0.2351
 6407TIP3    H140712   4.328   0.828  10.793 -0.4687 -0.6241 -0.0147
 6407TIP3    H240713   4.298   0.976  10.792 -0.2605 -0.4707 -4.8740
 6408TIP3   OH240714   6.413   0.912   4.068  0.0726  0.6126 -0.4929
 6408TIP3    H140715   6.357   0.844   4.105  0.4585  0.7570  0.3986
 6408TIP3    H240716   6.374   0.995   4.098  0.9445  0.7055  0.4610
 6409TIP3   OH240717   2.892   4.800  14.323  0.4865  0.0328  0.0942
 6409TIP3    H140718   2.958   4.807  14.254  0.2105 -0.2172 -0.1897
 6409TIP3    H240719   2.846   4.718  14.306 -0.3133  0.5094 -0.0670
 6410TIP3   OH240720   5.610   2.170   2.572  0.3248  0.3949 -0.3280
 6410TIP3    H140721   5.605   2.080   2.604  1.7992  0.6558  0.7294
 6410TIP3    H240722   5.543   2.217   2.622  2.5327  0.7732  2.4974
 6411TIP3   OH240723   5.961   2.771  11.972 -0.8375 -0.5337  0.6045
 6411TIP3    H140724   5.990   2.680  11.964 -0.6576 -0.3648 -1.1481
 6411TIP3    H240725   5.890   2.779  11.908 -1.9036  0.1681  1.8317
 6412TIP3   OH240726   3.035   2.065   3.531  0.4059  0.2235 -0.1216
 6412TIP3    H140727   3.130   2.056   3.532  0.5104  1.2940  0.5974
 6412TIP3    H240728   3.005   2.006   3.600  0.5450 -0.1589 -0.3872
 6413TIP3   OH240729   1.065   3.165  13.659  0.4546 -0.3464 -0.2211
 6413TIP3    H140730   1.036   3.128  13.743 -1.6074  1.0188 -0.2643
 6413TIP3    H240731   1.031   3.104  13.593 -0.5263  0.1253 -0.1698
 6414TIP3   OH240732   3.827   2.599  15.746 -0.1523 -0.3539  0.0843
 6414TIP3    H140733   3.739   2.636  15.747  0.8077  2.0856  0.2596
 6414TIP3    H240734   3.857   2.611  15.656  1.1806  2.0194  0.7571
 6415TIP3   OH240735   6.614   1.324  14.937 -0.5218  0.0231  0.1387
 6415TIP3    H140736   6.591   1.409  14.974  2.3260  0.4463  1.1899
 6415TIP3    H240737   6.547   1.307  14.871 -1.7347  2.6029  0.6057
 6416TIP3   OH240738   4.894   6.689   4.015 -0.1562 -0.2949  0.1468
 6416TIP3    H140739   4.924   6.759   3.957  1.7749 -0.7145  0.5501
 6416TIP3    H240740   4.944   6.704   4.096 -1.3022 -0.9008  0.9868
 6417TIP3   OH240741   6.602   0.020  11.754  0.6367 -0.3412 -0.1128
 6417TIP3    H140742   6.672   0.038  11.817  0.5810  0.3921 -0.2508
 6417TIP3    H240743   6.595  -0.076  11.753  0.5541 -0.3629  1.0803
 6418TIP3   OH240744   5.474   4.187  12.851 -0.2091 -0.4731 -0.1132
 6418TIP3    H140745   5.502   4.148  12.933  1.0300  0.2982 -0.1597
 6418TIP3    H240746   5.450   4.277  12.873  2.0629  0.3795 -0.8996
 6419TIP3   OH240747   6.519   6.175   0.445  0.8826 -0.2996  0.9785
 6419TIP3    H140748   6.602   6.221   0.433  1.6709 -1.1872  2.7326
 6419TIP3    H240749   6.543   6.083   0.446 -0.4369 -0.7126 -0.6266
 6420TIP3   OH240750   6.003   2.363  14.358  0.2107  0.1336 -0.0938
 6420TIP3    H140751   6.039   2.391  14.442 -0.8806 -1.0885  0.8275
 6420TIP3    H240752   5.964   2.278  14.376 -0.4781  0.0653 -1.7315
 6421TIP3   OH240753   5.288   6.547   4.354 -0.3249 -0.9356 -0.0252
 6421TIP3    H140754   5.277   6.466   4.403 -0.3357 -1.0979 -0.2961
 6421TIP3    H240755   5.333   6.606   4.415 -1.7619 -0.5987  0.7599
 6422TIP3   OH240756   4.005   4.355  12.709  0.1515  0.8550  0.2191
 6422TIP3    H140757   3.975   4.268  12.686 -0.5389  1.0851  0.2435
 6422TIP3    H240758   4.039   4.346  12.799  2.4094  0.0673 -0.6274
 6423TIP3   OH240759   6.444   3.882   5.048 -0.2785  0.0923 -0.0578
 6423TIP3    H140760   6.395   3.801   5.062 -0.0632 -0.1283 -0.5506
 6423TIP3    H240761   6.477   3.905   5.135  0.1198 -0.6571 -0.0041
 6424TIP3   OH240762   1.479   3.153  16.800  0.1848  0.0612  0.0624
 6424TIP3    H140763   1.440   3.240  16.795 -0.1862 -0.1004  0.1141
 6424TIP3    H240764   1.480   3.133  16.893  3.5279  1.4681  0.4472
 6425TIP3   OH240765   2.869   5.917   4.572 -0.6712  0.1663  0.0090
 6425TIP3    H140766   2.838   6.005   4.594 -1.0683 -0.0986  0.5357
 6425TIP3    H240767   2.828   5.861   4.638  1.1482 -0.1633  0.9031
 6426TIP3   OH240768   2.708   4.217   1.690  0.8983  0.0249  0.0491
 6426TIP3    H140769   2.765   4.250   1.760 -0.7651  3.3250  0.0466
 6426TIP3    H240770   2.725   4.275   1.616 -0.4888 -0.6423 -0.8364
 6427TIP3   OH240771   2.293   5.433   6.593  0.3858  0.4517 -0.1103
 6427TIP3    H140772   2.331   5.505   6.542  0.0021  1.3181  0.8021
 6427TIP3    H240773   2.235   5.476   6.655  0.6349 -0.6019  0.8778
 6428TIP3   OH240774   2.549   2.505  12.618 -0.2669 -0.2081  0.2928
 6428TIP3    H140775   2.475   2.449  12.595  1.8353 -2.6256 -1.0420
 6428TIP3    H240776   2.616   2.445  12.649  1.4353  1.7944  0.6932
 6429TIP3   OH240777   3.901   4.131   5.627 -0.3746 -0.0087 -0.0107
 6429TIP3    H140778   3.842   4.108   5.555 -1.6271 -0.0554  0.9989
 6429TIP3    H240779   3.871   4.079   5.701  2.8961 -2.4842 -0.1760
 6430TIP3   OH240780   0.489   1.939   3.017 -0.2636  0.4175 -0.3259
 6430TIP3    H140781   0.412   1.886   2.997  1.3318 -1.8070 -1.0151
 6430TIP3    H240782   0.505   1.924   3.110 -0.5241  0.6779 -0.2403
 6431TIP3   OH240783   3.939   1.429  16.605 -0.0175  0.7102 -0.0979
 6431TIP3    H140784   3.865   1.432  16.546  1.7783  2.9888 -2.4481
 6431TIP3    H240785   4.016   1.422  16.548  1.6893 -1.0499  2.1841
 6432TIP3   OH240786   1.727   2.167  14.785  0.0249 -0.0606 -0.3534
 6432TIP3    H140787   1.704   2.119  14.864  0.2477 -0.2698 -0.4146
 6432TIP3    H240788   1.682   2.120  14.714 -1.5017  1.0665 -0.1775
 6433TIP3   OH240789   3.265   4.613  11.823 -0.0630 -0.1473  0.2003
 6433TIP3    H140790   3.301   4.694  11.786 -0.2957 -0.4488 -0.7073
 6433TIP3    H240791   3.342   4.565  11.855  0.9002 -2.1361 -4.3300
 6434TIP3   OH240792   1.738   1.993  11.038  0.6537 -0.8300  0.0224
 6434TIP3    H140793   1.813   2.043  11.006 -0.1380  0.8991  0.7576
 6434TIP3    H240794   1.777   1.923  11.090  1.7776 -0.7291 -0.6363
 6435TIP3   OH240795   5.836   5.932   6.680 -0.0407 -0.5648  0.4094
 6435TIP3    H140796   5.849   6.017   6.722  1.0099  0.2680 -1.4771
 6435TIP3    H240797   5.924   5.894   6.676 -0.1751 -0.7818 -0.6653
 6436TIP3   OH240798   3.312   3.515  14.561  0.4498  0.6533 -0.8770
 6436TIP3    H140799   3.405   3.495  14.575  0.7435  2.9821  1.4966
 6436TIP3    H240800   3.280   3.445  14.505  2.5792 -2.8594  1.8230
 6437TIP3   OH240801   4.714   2.305  11.412  0.1860  0.6041 -0.4618
 6437TIP3    H140802   4.742   2.326  11.501  3.5920 -0.2100 -1.1963
 6437TIP3    H240803   4.686   2.213  11.416  0.7932  0.4215 -0.3001
 6438TIP3   OH240804   3.432   4.719   4.330 -0.4330 -0.0810 -0.6068
 6438TIP3    H140805   3.379   4.782   4.280  0.0756  1.4972  0.7509
 6438TIP3    H240806   3.431   4.753   4.419 -0.8181 -2.4985  0.3816
 6439TIP3   OH240807   5.198   6.140   2.991  0.6226 -0.3829 -0.0986
 6439TIP3    H140808   5.285   6.167   2.962  0.9580 -0.4550  0.8013
 6439TIP3    H240809   5.156   6.105   2.913  1.5430 -0.7132 -0.4535
 6440TIP3   OH240810   4.247   6.788   3.060  0.0368  0.0986  0.1445
 6440TIP3    H140811   4.303   6.791   3.138 -0.1066  0.0593  0.2503
 6440TIP3    H240812   4.307   6.779   2.987  0.0965 -1.8811  0.3846
 6441TIP3   OH240813   0.559   2.817   2.364 -0.0723 -0.1220 -0.4526
 6441TIP3    H140814   0.634   2.874   2.382 -0.2567 -0.3908  1.3992
 6441TIP3    H240815   0.570   2.792   2.272  1.2317  1.0978 -0.6768
 6442TIP3   OH240816   5.263   4.127  16.859 -0.1384  0.3991 -0.0009
 6442TIP3    H140817   5.249   4.151  16.951 -2.6907 -0.9775  0.0680
 6442TIP3    H240818   5.335   4.183  16.830 -1.4374  3.3144  1.8871
 6443TIP3   OH240819   1.821   1.637   0.956  0.2608 -0.2026  0.1657
 6443TIP3    H140820   1.820   1.644   1.052 -3.9997  1.0573  0.2040
 6443TIP3    H240821   1.829   1.543   0.939  0.7242 -0.4847  1.7338
 6444TIP3   OH240822   3.156   4.217  16.309 -0.0184 -0.0326 -0.2072
 6444TIP3    H140823   3.190   4.134  16.343  0.2963  0.2265  0.1171
 6444TIP3    H240824   3.061   4.206  16.311 -0.0033 -0.1057  0.5589
 6445TIP3   OH240825   4.547   0.442  13.281 -0.0353  0.4300  0.2978
 6445TIP3    H140826   4.571   0.516  13.225  0.2073 -0.1461 -0.3789
 6445TIP3    H240827   4.498   0.384  13.223 -0.0385 -0.0381  0.7660
 6446TIP3   OH240828   4.846   1.453  16.433  0.5126 -0.1723 -0.0955
 6446TIP3    H140829   4.790   1.528  16.453  0.9994  0.0262  0.5856
 6446TIP3    H240830   4.890   1.477  16.352 -0.8447 -0.6015 -0.9784
 6447TIP3   OH240831   1.975   2.956  14.726  0.3158 -0.2981 -0.3485
 6447TIP3    H140832   1.960   2.862  14.717  2.5973 -0.7154 -0.4881
 6447TIP3    H240833   1.912   2.985  14.793 -1.0250 -1.7195 -0.9476
 6448TIP3   OH240834   1.624   2.829   0.128  0.3312 -0.7079  0.8266
 6448TIP3    H140835   1.600   2.740   0.102  1.3841 -0.8885  0.4350
 6448TIP3    H240836   1.559   2.853   0.194 -2.3337 -0.3434 -1.6695
 6449TIP3   OH240837   0.924   4.490   1.175 -0.2481  0.0267 -0.2419
 6449TIP3    H140838   0.893   4.568   1.130  0.4810 -0.2610 -1.3092
 6449TIP3    H240839   1.014   4.511   1.199  0.6636 -1.1255 -2.3236
 6450TIP3   OH240840   1.201   0.315  11.896  0.5338  0.1786  0.7235
 6450TIP3    H140841   1.141   0.240  11.892  0.3860  0.3192  0.2749
 6450TIP3    H240842   1.170   0.366  11.971  1.5225 -0.9563  1.9556
 6451TIP3   OH240843   0.562   2.974  15.653  0.1363 -0.0283  0.1106
 6451TIP3    H140844   0.620   2.918  15.602 -0.5284  1.3388 -2.2690
 6451TIP3    H240845   0.592   2.962  15.744  2.0333 -1.7775 -0.6636
 6452TIP3   OH240846   5.539   6.189   2.354  0.2878  0.5577  0.1252
 6452TIP3    H140847   5.529   6.262   2.415 -0.6345 -0.0401  0.7198
 6452TIP3    H240848   5.459   6.138   2.365  0.3436  0.1503 -1.2198
 6453TIP3   OH240849   2.380   6.725  15.802 -0.0108  0.0964  0.4567
 6453TIP3    H140850   2.459   6.754  15.848  0.2895 -0.8437  0.5532
 6453TIP3    H240851   2.414   6.680  15.725 -0.5020  2.6165 -1.3786
 6454TIP3   OH240852   4.725   6.625  15.571  0.2246  0.2463  0.9107
 6454TIP3    H140853   4.816   6.652  15.553  0.1737 -0.0574  0.1301
 6454TIP3    H240854   4.706   6.661  15.657 -0.2554  3.8516 -0.5022
 6455TIP3   OH240855   3.078   0.427   6.056 -0.0623 -0.0840  0.5518
 6455TIP3    H140856   3.087   0.449   6.148  1.4558  0.6082  0.2732
 6455TIP3    H240857   3.129   0.347   6.045 -1.0747 -0.7447  0.4850
 6456TIP3   OH240858   0.751   0.261  14.073  0.2562 -0.5455  0.4207
 6456TIP3    H140859   0.731   0.340  14.023  0.0793 -1.1689 -0.5193
 6456TIP3    H240860   0.828   0.284  14.125  0.5115  0.0858 -0.2202
 6457TIP3   OH240861   4.517   2.912   5.484 -0.2564 -0.1089  0.1616
 6457TIP3    H140862   4.526   3.002   5.451  0.2643  0.6390  2.1633
 6457TIP3    H240863   4.607   2.887   5.507 -0.4828 -0.9133  0.1698
 6458TIP3   OH240864   3.635   1.465   5.843 -0.0443 -0.7423  0.0851
 6458TIP3    H140865   3.643   1.488   5.936 -0.0928 -0.9870  0.1501
 6458TIP3    H240866   3.609   1.547   5.801 -2.7630 -1.2152  0.6707
 6459TIP3   OH240867   6.077   2.942   2.655  0.1738 -0.4082  0.6936
 6459TIP3    H140868   6.076   2.852   2.620  0.3005  0.1514 -0.8064
 6459TIP3    H240869   5.989   2.974   2.639  0.8488  0.6262 -1.2803
 6460TIP3   OH240870   1.098   0.920   2.275 -0.1384  0.1649  0.2255
 6460TIP3    H140871   1.113   0.860   2.202  0.9063  0.3522  0.2731
 6460TIP3    H240872   1.042   0.870   2.335 -0.6371 -0.1516 -0.4843
 6461TIP3   OH240873   0.898   2.082   3.780  0.4441  0.1572 -0.2889
 6461TIP3    H140874   0.993   2.081   3.779  0.5581  1.7053  1.7112
 6461TIP3    H240875   0.872   2.054   3.693  2.6946 -1.1309 -0.6114
 6462TIP3   OH240876   5.849   0.774   1.113 -0.5344 -0.3653  0.3974
 6462TIP3    H140877   5.943   0.758   1.111 -0.6300 -1.0579 -2.6014
 6462TIP3    H240878   5.831   0.798   1.204  2.1942 -2.0736  1.5085
 6463TIP3   OH240879   4.166   4.393  15.499  0.0358  0.2433 -0.1918
 6463TIP3    H140880   4.108   4.356  15.565 -1.3552  0.7249 -1.0944
 6463TIP3    H240881   4.243   4.336  15.499  0.0803  0.2361  1.8191
 6464TIP3   OH240882   4.392   3.885   2.759 -0.5792 -0.0849 -0.1785
 6464TIP3    H140883   4.450   3.957   2.734 -0.7364  0.1657  0.1676
 6464TIP3    H240884   4.451   3.818   2.793 -0.5479  0.5692  1.1313
 6465TIP3   OH240885   0.182   2.097   3.112  0.0911  0.2714 -0.3015
 6465TIP3    H140886   0.113   2.032   3.104  1.5956 -1.4340 -0.0116
 6465TIP3    H240887   0.235   2.086   3.034  0.4035  1.1375 -0.2267
 6466TIP3   OH240888   2.151   5.516   3.133  0.1746 -0.0474 -0.4530
 6466TIP3    H140889   2.062   5.483   3.128 -0.0815  0.5032  0.2640
 6466TIP3    H240890   2.150   5.576   3.207  0.4772  1.9768 -1.9994
 6467TIP3   OH240891   1.544   1.430  13.923 -0.2479  0.2602 -0.2268
 6467TIP3    H140892   1.461   1.463  13.960 -0.4209 -0.7052  0.2738
 6467TIP3    H240893   1.579   1.372  13.991  0.6550  0.3577 -0.5996
 6468TIP3   OH240894   3.788   2.558   4.625  0.2833  0.4348  0.1643
 6468TIP3    H140895   3.835   2.575   4.543 -1.9160 -0.5750 -1.4265
 6468TIP3    H240896   3.777   2.463   4.627  0.3033  0.4380  1.6716
 6469TIP3   OH240897   5.558   6.472  13.399 -0.2406 -0.6415 -0.1117
 6469TIP3    H140898   5.466   6.495  13.381 -0.7114 -0.4365  2.2063
 6469TIP3    H240899   5.603   6.557  13.401 -0.8042 -0.2979  2.4210
 6470TIP3   OH240900   4.987   4.781   4.906  0.1683 -0.1974  0.0314
 6470TIP3    H140901   5.078   4.766   4.880  0.2627  1.6344 -0.8765
 6470TIP3    H240902   4.935   4.753   4.831  0.0187 -0.6024  0.2819
 6471TIP3   OH240903   3.019   3.934   4.450 -0.1244 -0.8728  0.3103
 6471TIP3    H140904   3.062   4.014   4.481  1.0560 -0.6080 -1.8326
 6471TIP3    H240905   2.928   3.961   4.433  0.1122 -0.1398  0.1673
 6472TIP3   OH240906   1.817   0.892  14.031  0.0340 -0.2803  0.0811
 6472TIP3    H140907   1.787   0.918  14.118  1.5407 -0.3544  0.6424
 6472TIP3    H240908   1.855   0.971  13.994 -0.6879 -0.2228 -0.5719
 6473TIP3   OH240909   4.543   5.550  14.977 -0.2355  0.5652  0.4450
 6473TIP3    H140910   4.544   5.644  14.957 -0.4434  0.2143 -1.3986
 6473TIP3    H240911   4.550   5.508  14.891 -1.7204 -1.1082  1.0938
 6474TIP3   OH240912   6.672   3.568   4.903 -0.2786 -0.2961 -0.4245
 6474TIP3    H140913   6.592   3.534   4.942 -0.2815 -1.3894 -1.3315
 6474TIP3    H240914   6.649   3.656   4.873 -0.5422  0.1937  1.1361
 6475TIP3   OH240915   2.184   2.803   5.056  0.0518 -0.2901 -0.2095
 6475TIP3    H140916   2.190   2.712   5.084  1.1207 -0.2466 -0.2378
 6475TIP3    H240917   2.211   2.853   5.133  1.2199 -0.0930 -0.7140
 6476TIP3   OH240918   0.375   2.944  12.895 -0.0145  0.3838  0.5782
 6476TIP3    H140919   0.288   2.984  12.896 -0.4576 -0.3783 -1.5331
 6476TIP3    H240920   0.367   2.869  12.954 -0.8701  0.2246  0.2821
 6477TIP3   OH240921   2.408   1.874   4.790 -0.3470  0.2014  0.7437
 6477TIP3    H140922   2.373   1.960   4.811 -0.5159  0.2093  0.4215
 6477TIP3    H240923   2.345   1.813   4.828 -0.8145  0.2144 -0.0078
 6478TIP3   OH240924   4.710   2.481   2.846 -0.5413  0.6196  0.4017
 6478TIP3    H140925   4.709   2.427   2.767 -0.9741 -3.2814  2.8317
 6478TIP3    H240926   4.623   2.520   2.851 -1.8744 -2.2119  0.7839
 6479TIP3   OH240927   4.192   1.663   0.118  0.1472 -0.0940  0.3117
 6479TIP3    H140928   4.240   1.723   0.061 -1.0502  1.8463  1.2425
 6479TIP3    H240929   4.228   1.677   0.205  0.2368 -1.1787  0.4701
 6480TIP3   OH240930   3.199   1.069   1.231 -0.1039  0.3209  0.6855
 6480TIP3    H140931   3.229   1.141   1.286  0.5284 -0.0945  0.8979
 6480TIP3    H240932   3.106   1.085   1.218  0.1202  1.4438  0.3250
 6481TIP3   OH240933   5.513   1.218  16.720  0.1638 -0.1803  0.2440
 6481TIP3    H140934   5.451   1.204  16.647  1.4206  1.3744 -1.1931
 6481TIP3    H240935   5.504   1.310  16.742 -0.5172 -0.7029  2.4686
 6482TIP3   OH240936   5.726   4.901   1.465  0.0676  0.6802 -0.0377
 6482TIP3    H140937   5.686   4.821   1.430  1.0001  0.4433 -0.6040
 6482TIP3    H240938   5.677   4.972   1.424 -0.8589  0.4044  0.5747
 6483TIP3   OH240939   0.156   0.041  15.489  0.5383 -0.4914  0.1268
 6483TIP3    H140940   0.167  -0.028  15.555  2.6035 -1.8437 -1.4722
 6483TIP3    H240941   0.178   0.122  15.535 -1.7228 -0.8350  1.9959
 6484TIP3   OH240942   4.919   6.295   0.625  0.7711  0.6132 -0.3644
 6484TIP3    H140943   4.893   6.376   0.670 -1.3549 -1.0062  1.5978
 6484TIP3    H240944   4.878   6.301   0.539 -1.9153  0.4575  0.8016
 6485TIP3   OH240945   0.501   4.944   6.064  0.1672  0.4956 -0.0845
 6485TIP3    H140946   0.552   4.915   5.988 -1.7331  1.4233 -1.8003
 6485TIP3    H240947   0.522   5.038   6.072  1.0545  0.2177  1.1584
 6486TIP3   OH240948   1.320   2.371   4.314 -0.0993 -0.6437  0.3389
 6486TIP3    H140949   1.318   2.435   4.385  0.0640 -1.1443  0.8051
 6486TIP3    H240950   1.254   2.401   4.252 -0.4581 -0.3602  0.8484
 6487TIP3   OH240951   3.775   2.847   1.150  0.0752 -0.6246 -0.5524
 6487TIP3    H140952   3.680   2.842   1.160  0.1140 -0.2603  0.0462
 6487TIP3    H240953   3.809   2.805   1.229  0.4022  3.6766  1.8549
 6488TIP3   OH240954   5.846   2.265  14.035  0.0646 -0.1991 -0.0061
 6488TIP3    H140955   5.924   2.220  14.068  1.2582  1.2222 -0.7881
 6488TIP3    H240956   5.846   2.248  13.941 -1.4112 -1.3797  0.1624
 6489TIP3   OH240957   5.912   6.155   0.732 -0.0397 -0.1438  0.1366
 6489TIP3    H140958   5.903   6.088   0.800 -1.9074  0.2998  0.3585
 6489TIP3    H240959   5.842   6.218   0.750  0.3224  0.7389 -1.3592
 6490TIP3   OH240960   4.750   3.623   2.141  0.1675 -0.0361  0.3383
 6490TIP3    H140961   4.810   3.630   2.215  1.1503  0.6388 -0.4907
 6490TIP3    H240962   4.721   3.712   2.125 -0.5478 -0.2680  0.3062
 6491TIP3   OH240963   3.360   3.556  12.255 -0.1425 -0.6645 -0.6602
 6491TIP3    H140964   3.454   3.552  12.269 -0.1216  1.2165  0.0390
 6491TIP3    H240965   3.343   3.648  12.232 -1.5103 -1.4444 -3.2195
 6492TIP3   OH240966   0.208   3.059   1.083  0.5165 -0.2807  0.7525
 6492TIP3    H140967   0.169   2.971   1.081 -0.0724 -0.0054 -0.5707
 6492TIP3    H240968   0.145   3.115   1.039  1.1511  0.7104  1.0687
 6493TIP3   OH240969   1.234   0.100   3.748  0.0658  0.5231  0.1567
 6493TIP3    H140970   1.322   0.063   3.748  0.3023  1.0233 -1.4940
 6493TIP3    H240971   1.176   0.025   3.743  0.4897  0.2593 -1.2302
 6494TIP3   OH240972   1.859   4.749   5.773 -0.4367 -0.3606 -0.0513
 6494TIP3    H140973   1.776   4.793   5.792 -0.0147  1.0684 -1.3642
 6494TIP3    H240974   1.915   4.771   5.848 -0.1498  1.6609 -0.7803
 6495TIP3   OH240975   3.145   3.986  13.616 -0.5454 -0.2693  0.2035
 6495TIP3    H140976   3.071   3.952  13.667  0.2384 -1.4697  0.5664
 6495TIP3    H240977   3.209   4.013  13.682  0.0344 -0.8297 -0.1256
 6496TIP3   OH240978   5.869   4.523   1.556 -0.0098  0.0310 -0.2795
 6496TIP3    H140979   5.922   4.569   1.621 -0.2623 -0.1441  0.0530
 6496TIP3    H240980   5.786   4.572   1.553  0.2310  0.4101 -0.9268
 6497TIP3   OH240981   6.380   0.795  13.791  1.0627 -0.2422  0.5166
 6497TIP3    H140982   6.322   0.770  13.719  1.1382 -0.3160  0.4811
 6497TIP3    H240983   6.442   0.722  13.797  0.1868 -0.9216  1.5932
 6498TIP3   OH240984   0.192   5.485  12.054 -0.2808 -0.2071 -0.1851
 6498TIP3    H140985   0.145   5.553  12.103  1.0374  0.3770  0.3180
 6498TIP3    H240986   0.238   5.534  11.985  0.2630 -0.6512 -0.1419
 6499TIP3   OH240987   3.978   4.712  12.433  0.7857 -0.4066 -0.1532
 6499TIP3    H140988   4.005   4.762  12.510 -0.1952  0.0494 -0.0902
 6499TIP3    H240989   3.915   4.648  12.467 -0.6938  0.6834 -0.7445
 6500TIP3   OH240990   2.079   4.759   4.258 -0.1459  0.6974 -0.2268
 6500TIP3    H140991   2.087   4.677   4.208 -3.4124 -0.7836  1.3809
 6500TIP3    H240992   2.008   4.806   4.215 -1.2094  0.6161  1.3588
 6501TIP3   OH240993   5.479   0.453  11.908 -0.0842  0.2026 -0.0717
 6501TIP3    H140994   5.428   0.451  11.988  2.2182  1.0219  1.5142
 6501TIP3    H240995   5.550   0.390  11.922 -1.4153 -2.2202 -2.8916
 6502TIP3   OH240996   4.877   0.189  14.882 -0.0193  0.8201 -0.4377
 6502TIP3    H140997   4.961   0.158  14.848  1.1808  2.9143  0.4494
 6502TIP3    H240998   4.895   0.277  14.914 -2.3275  0.9218  0.7856
 6503TIP3   OH240999   3.754   3.093   3.759  0.2114  0.2201  0.5587
 6503TIP3    H141000   3.768   3.136   3.843  0.3051  1.5937 -0.1307
 6503TIP3    H241001   3.802   3.011   3.765  0.4955  0.4633  1.7121
 6504TIP3   OH241002   6.238   2.479   0.645  0.1443  0.2854 -0.3015
 6504TIP3    H141003   6.326   2.440   0.647  0.1747  0.2854  2.0902
 6504TIP3    H241004   6.182   2.412   0.685 -0.7564  0.6813 -0.8915
 6505TIP3   OH241005   6.575   2.758   1.092  0.8089  0.9651 -0.4324
 6505TIP3    H141006   6.524   2.720   1.163 -0.1865  2.2742 -0.4206
 6505TIP3    H241007   6.624   2.684   1.055 -1.4934 -0.4630 -0.8096
 6506TIP3   OH241008   0.286   5.436   1.101 -0.4506  0.1693 -0.2015
 6506TIP3    H141009   0.306   5.462   1.011 -0.1781 -1.7279 -0.7360
 6506TIP3    H241010   0.362   5.386   1.129 -0.6229  0.5632  1.0356
 6507TIP3   OH241011   0.951   6.260  14.979 -0.2492 -0.4477  0.0279
 6507TIP3    H141012   1.030   6.292  15.023  0.1075 -0.0622 -0.8697
 6507TIP3    H241013   0.982   6.192  14.920 -0.4855  0.1567 -0.8108
 6508TIP3   OH241014   6.667   0.936   3.989  0.7149 -0.2402 -0.0104
 6508TIP3    H141015   6.674   1.015   3.936 -0.4275 -0.4764 -0.5482
 6508TIP3    H241016   6.575   0.930   4.012  0.8004 -1.3718  0.0984
 6509TIP3   OH241017   3.539   5.608  16.442 -0.5348 -0.4283 -0.0838
 6509TIP3    H141018   3.630   5.580  16.452 -1.3605 -3.4631 -0.1112
 6509TIP3    H241019   3.534   5.645  16.354  0.8598  0.7199  0.2985
 6510TIP3   OH241020   6.447   2.110   2.953  0.7040 -0.0315 -0.2539
 6510TIP3    H141021   6.450   2.167   2.876  1.2436  2.1251  1.2427
 6510TIP3    H241022   6.364   2.131   2.996  1.5253  0.7237  1.0459
 6511TIP3   OH241023   0.627   2.161   0.430 -0.7003  0.3425 -0.2509
 6511TIP3    H141024   0.593   2.244   0.465 -0.5180  0.3131  0.0009
 6511TIP3    H241025   0.718   2.180   0.409 -0.3801 -0.0586  0.7265
 6512TIP3   OH241026   1.614   1.919   3.805  0.4033 -0.5949  0.0713
 6512TIP3    H141027   1.643   1.870   3.882  0.5711  0.2965  0.5936
 6512TIP3    H241028   1.525   1.888   3.789  1.0219 -2.1882 -0.5676
 6513TIP3   OH241029   2.871   6.283  15.193 -0.9743 -0.2722 -0.0742
 6513TIP3    H141030   2.886   6.210  15.133 -0.6355 -0.0572 -0.2533
 6513TIP3    H241031   2.872   6.361  15.137 -1.4853 -0.1386  0.0929
 6514TIP3   OH241032   5.175   5.262  15.230  0.1864 -0.1370  0.0297
 6514TIP3    H141033   5.153   5.169  15.240 -0.0983 -0.3774 -2.2874
 6514TIP3    H241034   5.257   5.262  15.182  1.2100  0.8617  1.6730
 6515TIP3   OH241035   5.973   3.037   3.960 -0.3581 -0.2464  0.0006
 6515TIP3    H141036   5.968   3.041   3.864  1.2839  0.5599 -0.0861
 6515TIP3    H241037   5.904   3.097   3.989 -0.6537 -0.2415 -0.6773
 6516TIP3   OH241038   3.890   3.604  14.753  0.5765 -0.2918  0.0236
 6516TIP3    H141039   3.807   3.632  14.714  1.0937  0.4401 -0.5842
 6516TIP3    H241040   3.884   3.509  14.756 -0.0753 -0.2756 -0.5224
 6517TIP3   OH241041   3.563   5.676  14.434  0.1871 -0.3252  0.2807
 6517TIP3    H141042   3.587   5.584  14.438 -1.2175 -0.7964 -0.9483
 6517TIP3    H241043   3.467   5.676  14.437  0.1807  1.1523  0.9983
 6518TIP3   OH241044   4.606   0.685  13.147 -0.1127 -0.0630  0.2756
 6518TIP3    H141045   4.511   0.699  13.150 -0.0368  1.3101 -1.7970
 6518TIP3    H241046   4.643   0.772  13.167  0.7720 -0.7698  1.9258
 6519TIP3   OH241047   5.589   4.837   4.383  0.2206 -0.4941  0.0358
 6519TIP3    H141048   5.528   4.850   4.457 -0.7518 -0.2996 -0.7779
 6519TIP3    H241049   5.555   4.895   4.315  2.9902  1.8744  0.4761
 6520TIP3   OH241050   5.433   5.703   2.192 -0.5197 -0.0259  0.3078
 6520TIP3    H141051   5.433   5.622   2.142  1.1224  0.0243  0.1706
 6520TIP3    H241052   5.447   5.772   2.127 -0.2547  0.2131  0.6154
 6521TIP3   OH241053   1.864   6.551  11.912  0.0347  0.3116 -0.5559
 6521TIP3    H141054   1.835   6.537  11.822 -1.9747  1.9885 -0.2409
 6521TIP3    H241055   1.786   6.535  11.965  0.6671  1.2844  0.7113
 6522TIP3   OH241056   5.481   0.979  15.481  0.0171 -0.3601 -0.0027
 6522TIP3    H141057   5.400   0.929  15.480  0.7951 -1.8099  2.5804
 6522TIP3    H241058   5.529   0.947  15.557  1.4688  2.9407  0.6612
 6523TIP3   OH241059   2.313   1.575  12.285 -0.0850  0.3681 -0.1079
 6523TIP3    H141060   2.282   1.664  12.265 -1.3102  0.2077  0.9136
 6523TIP3    H241061   2.233   1.521  12.284 -0.1404  0.1004  3.5830
 6524TIP3   OH241062   2.393   1.684   1.341 -0.0823  0.5835  0.0315
 6524TIP3    H141063   2.311   1.634   1.342 -0.5680  1.2435 -2.1962
 6524TIP3    H241064   2.458   1.623   1.378 -1.0443 -0.9657 -0.7040
 6525TIP3   OH241065   6.460   4.263  11.883 -0.4515  0.1600  0.2297
 6525TIP3    H141066   6.461   4.312  11.801  2.0269  0.0277  0.1036
 6525TIP3    H241067   6.475   4.330  11.950 -4.1220  0.5484  0.8922
 6526TIP3   OH241068   2.063   3.804   5.498 -0.1468  0.1466  0.2086
 6526TIP3    H141069   2.011   3.836   5.425  0.3910  0.8278  0.1102
 6526TIP3    H241070   2.121   3.738   5.460 -1.1224 -0.8299  0.3739
 6527TIP3   OH241071   3.401   0.246  17.045  0.0258 -0.0694 -0.0454
 6527TIP3    H141072   3.451   0.241  17.127 -1.6405  3.0151  1.3507
 6527TIP3    H241073   3.325   0.189  17.060 -0.5084  0.8338  0.8005
 6528TIP3   OH241074   1.727   1.130   5.638 -0.7141 -0.3160 -0.6172
 6528TIP3    H141075   1.720   1.208   5.583 -0.6701  0.7203  0.7954
 6528TIP3    H241076   1.821   1.121   5.654 -0.8448  0.6743  0.9919
 6529TIP3   OH241077   3.512   6.249   1.412 -0.6662  0.3430 -0.0688
 6529TIP3    H141078   3.563   6.268   1.333  0.4905  1.5740  0.9300
 6529TIP3    H241079   3.434   6.304   1.404 -1.1789 -0.4743 -0.9235
 6530TIP3   OH241080   1.262   3.246  13.928  0.1861 -0.4612  0.3965
 6530TIP3    H141081   1.206   3.313  13.967  0.2131 -0.4400  0.3992
 6530TIP3    H241082   1.245   3.167  13.979  1.7157  0.0428  1.7692
 6531TIP3   OH241083   2.450   3.829   3.310  0.1817  0.7175 -0.3529
 6531TIP3    H141084   2.397   3.808   3.233  0.5327  2.3000 -1.0611
 6531TIP3    H241085   2.540   3.808   3.284  0.1113 -0.3916  0.2584
 6532TIP3   OH241086   4.763   1.676   0.350  0.3258 -0.2073 -0.0123
 6532TIP3    H141087   4.812   1.636   0.279 -0.2106 -0.0623 -0.4760
 6532TIP3    H241088   4.675   1.640   0.342 -0.2645  1.2650 -0.6403
 6533TIP3   OH241089   5.106   6.192  15.470 -0.2740 -0.1405 -0.6251
 6533TIP3    H141090   5.058   6.111  15.451 -0.0666  0.1244 -2.4852
 6533TIP3    H241091   5.198   6.165  15.474 -0.3103 -0.1869  0.0808
 6534TIP3   OH241092   4.202   5.599  16.618 -0.4595  0.2944 -1.1012
 6534TIP3    H141093   4.250   5.607  16.700 -1.0683 -0.3426 -0.6820
 6534TIP3    H241094   4.227   5.514  16.583 -0.8963  0.1740 -1.1263
 6535TIP3   OH241095   0.751   1.218  12.086 -0.2451 -0.2029  0.2589
 6535TIP3    H141096   0.812   1.230  12.013  2.0424 -0.5381  1.9815
 6535TIP3    H241097   0.790   1.269  12.157 -2.2107 -0.1603  1.3703
 6536TIP3   OH241098   5.025   1.118  15.532  0.2129 -0.2316  0.1597
 6536TIP3    H141099   5.089   1.181  15.498 -1.2379  0.2846 -1.7861
 6536TIP3    H241100   5.079   1.051  15.575  1.8751  1.6205  1.1549
 6537TIP3   OH241101   3.647   4.943  10.836  0.7311 -0.1954 -0.4920
 6537TIP3    H141102   3.726   4.909  10.879  0.7851  0.6031  0.0674
 6537TIP3    H241103   3.672   4.952  10.744  1.0763 -0.5831 -0.4397
 6538TIP3   OH241104   2.551   3.977   0.832  0.2242  0.0277 -0.1087
 6538TIP3    H141105   2.486   3.944   0.894  1.7765 -0.5830  1.2542
 6538TIP3    H241106   2.589   4.054   0.875 -1.3275  2.0180 -2.0076
 6539TIP3   OH241107   1.404   1.604   2.213  0.2778 -0.1189 -0.2601
 6539TIP3    H141108   1.495   1.631   2.223 -0.1163  1.2654 -0.2179
 6539TIP3    H241109   1.354   1.665   2.267 -0.5862 -1.6868  0.7993
 6540TIP3   OH241110   1.227   3.688   1.153 -0.1062  0.0010  0.0047
 6540TIP3    H141111   1.154   3.743   1.126 -1.7529 -1.6788  0.7812
 6540TIP3    H241112   1.280   3.743   1.210 -0.2352  1.5412 -1.3022
 6541TIP3   OH241113   4.839   1.438   0.502  0.2681  0.3098  0.4840
 6541TIP3    H141114   4.794   1.445   0.586 -1.8620  2.7056 -0.7414
 6541TIP3    H241115   4.821   1.520   0.458 -3.0461 -2.5890 -4.4258
 6542TIP3   OH241116   2.099   4.539   2.217 -0.2419  0.1402  0.7276
 6542TIP3    H141117   2.032   4.601   2.246  1.7477  2.3296  0.9278
 6542TIP3    H241118   2.125   4.493   2.297 -1.7893 -1.1235  0.5625
 6543TIP3   OH241119   5.739   6.392   4.716  0.0459 -0.2231  0.1310
 6543TIP3    H141120   5.645   6.376   4.717  0.2435 -1.5712  0.2171
 6543TIP3    H241121   5.755   6.445   4.794 -0.4187 -1.5682  1.1806
 6544TIP3   OH241122   1.084   6.370  15.997 -0.4625 -0.2341 -0.5802
 6544TIP3    H141123   1.005   6.420  16.018 -0.4095 -0.7422  0.9615
 6544TIP3    H241124   1.054   6.279  15.994 -0.1629 -0.3134 -1.1971
 6545TIP3   OH241125   2.547   2.752   0.187 -0.2008 -0.1708 -0.3357
 6545TIP3    H141126   2.530   2.844   0.170 -1.2764 -0.4054 -0.6127
 6545TIP3    H241127   2.494   2.732   0.265  0.2923 -0.4708 -0.0738
 6546TIP3   OH241128   2.578   4.178   2.817 -0.1596  0.6139 -0.3914
 6546TIP3    H141129   2.594   4.130   2.899  0.0091  1.6045  0.1719
 6546TIP3    H241130   2.486   4.205   2.824  0.2085  1.8166  0.0949
 6547TIP3   OH241131   5.928   4.336   1.053  0.2200  0.3220  0.2038
 6547TIP3    H141132   5.885   4.332   0.968 -0.5113  1.4778  0.4933
 6547TIP3    H241133   5.931   4.429   1.074 -0.4313  0.0135  1.8359
 6548TIP3   OH241134   2.310   5.725  14.830  0.3512 -0.5149 -0.0409
 6548TIP3    H141135   2.320   5.644  14.780 -1.2860 -1.8926  1.7436
 6548TIP3    H241136   2.223   5.757  14.806 -1.0852 -1.9379  2.7375
 6549TIP3   OH241137   4.806   2.192   5.001 -0.1986  0.7722 -0.0430
 6549TIP3    H141138   4.813   2.258   4.932 -0.8583 -1.3655 -2.2956
 6549TIP3    H241139   4.876   2.129   4.982 -0.0286  0.4025  1.5990
 6550TIP3   OH241140   3.141   1.789  15.680  0.0647 -0.0103 -0.0466
 6550TIP3    H141141   3.175   1.700  15.686  0.1121 -0.2963 -2.9405
 6550TIP3    H241142   3.088   1.801  15.759  1.2308 -2.0483  1.1056
 6551TIP3   OH241143   5.946   3.211  13.301  0.7072  0.1463  0.2941
 6551TIP3    H141144   6.041   3.223  13.305  0.7656  0.2279 -0.9031
 6551TIP3    H241145   5.933   3.117  13.294  1.1556  0.1162 -6.0777
 6552TIP3   OH241146   4.367   5.040  12.288 -0.6466 -0.4590  0.3436
 6552TIP3    H141147   4.450   5.033  12.335 -1.0030 -1.6096  0.8426
 6552TIP3    H241148   4.389   5.091  12.210  0.5165 -0.6906  0.4882
 6553TIP3   OH241149   4.099   2.863  15.116  0.1067  0.8534  0.3962
 6553TIP3    H141150   4.157   2.802  15.069 -0.9461 -0.0257  0.1894
 6553TIP3    H241151   4.131   2.861  15.206  0.4151  0.4056  0.2840
 6554TIP3   OH241152   0.343   5.777   5.071 -0.1565 -0.9075 -0.2407
 6554TIP3    H141153   0.375   5.816   5.152 -1.4743 -0.0332 -0.0979
 6554TIP3    H241154   0.410   5.798   5.006  0.2312 -0.3633  0.3209
 6555TIP3   OH241155   2.359   6.787   4.020  0.0752  0.0605 -0.3320
 6555TIP3    H141156   2.266   6.774   4.039  0.2160 -0.4162  0.0360
 6555TIP3    H241157   2.394   6.699   4.005  0.8619  0.0371  1.4065
 6556TIP3   OH241158   3.585   3.436   0.910  0.5507 -0.7375  0.3739
 6556TIP3    H141159   3.531   3.494   0.963  1.1559  0.9285 -0.7383
 6556TIP3    H241160   3.587   3.354   0.959 -2.5100 -0.7341  0.7119
 6557TIP3   OH241161   4.760   1.660   2.309 -0.3264 -0.3855  0.8895
 6557TIP3    H141162   4.713   1.703   2.381 -2.2478  0.0132 -0.5018
 6557TIP3    H241163   4.829   1.722   2.286  1.1346 -1.0669  3.1150
 6558TIP3   OH241164   1.815   4.580  16.077  0.3815 -0.1674 -0.5645
 6558TIP3    H141165   1.769   4.632  16.012 -0.9182 -0.5545  0.0055
 6558TIP3    H241166   1.773   4.602  16.160  0.7038 -1.1062 -0.1308
 6559TIP3   OH241167   4.381   3.483  14.222 -0.6775  0.2972  0.3677
 6559TIP3    H141168   4.288   3.465  14.215 -0.7303  0.4328  0.7123
 6559TIP3    H241169   4.423   3.398  14.209 -0.7254  0.5665 -2.0357
 6560TIP3   OH241170   3.034   3.263  12.721  0.2740 -0.1112 -0.1899
 6560TIP3    H141171   2.944   3.250  12.690 -0.1580 -0.1561  0.9954
 6560TIP3    H241172   3.034   3.225  12.809  1.7827 -1.1744 -0.6141
 6561TIP3   OH241173   0.218   1.470  12.098 -0.6810  0.4163 -0.0547
 6561TIP3    H141174   0.298   1.450  12.147 -0.3166  0.3662 -0.6597
 6561TIP3    H241175   0.249   1.490  12.009 -1.3185  0.6417 -0.2289
 6562TIP3   OH241176   0.960   0.050  10.451 -0.4021 -0.1532  0.0127
 6562TIP3    H141177   0.957  -0.025  10.392 -0.4873  0.3594 -0.6535
 6562TIP3    H241178   0.876   0.047  10.498 -0.2776 -0.6401  0.2155
 6563TIP3   OH241179   2.725   6.465   5.454 -0.1234 -0.0479 -0.1992
 6563TIP3    H141180   2.739   6.375   5.483 -2.1163 -0.4533 -0.3713
 6563TIP3    H241181   2.672   6.505   5.522 -0.5004  0.5532 -0.8293
 6564TIP3   OH241182   4.350   5.704   3.706  0.2389  0.1468  0.5578
 6564TIP3    H141183   4.435   5.690   3.749  0.7253  1.1215 -0.0532
 6564TIP3    H241184   4.370   5.700   3.613  0.1938  3.2529  0.3206
 6565TIP3   OH241185   4.221   2.542   1.026 -0.3982  0.1977 -0.4873
 6565TIP3    H141186   4.190   2.611   1.086  0.5273 -0.9984  1.4627
 6565TIP3    H241187   4.141   2.496   1.000 -0.7483  0.1640  0.5850
 6566TIP3   OH241188   0.223   5.107  14.822 -0.0353  0.2309  0.7244
 6566TIP3    H141189   0.219   5.167  14.896 -0.8149  1.6392 -0.4101
 6566TIP3    H241190   0.307   5.124  14.781  0.0209  0.0662  0.7675
 6567TIP3   OH241191   6.431   2.640  13.134  0.8304 -0.2241  0.1196
 6567TIP3    H141192   6.447   2.563  13.078  4.0400 -0.0809  0.6618
 6567TIP3    H241193   6.378   2.606  13.206 -0.2773 -1.2410 -1.1358
 6568TIP3   OH241194   0.359   1.130  15.770 -0.6162 -1.1246  0.3104
 6568TIP3    H141195   0.334   1.046  15.732  0.0184 -1.3855  0.4485
 6568TIP3    H241196   0.392   1.108  15.858  2.0686 -1.1074 -0.5983
 6569TIP3   OH241197   2.667   2.703  15.840  0.7015 -0.0638  0.7370
 6569TIP3    H141198   2.657   2.798  15.839 -0.2709 -0.1577  0.6504
 6569TIP3    H241199   2.756   2.688  15.807  0.9764  0.8209  1.0487
 6570TIP3   OH241200   2.409   2.680  13.477 -0.1654  0.4465  0.6597
 6570TIP3    H141201   2.423   2.618  13.549 -1.6810  0.3379  0.8966
 6570TIP3    H241202   2.321   2.660  13.445  0.2183  0.9537 -0.7883
 6571TIP3   OH241203   3.737   2.888  17.094 -0.1273 -0.6541  0.2567
 6571TIP3    H141204   3.683   2.827  17.044 -0.1570 -0.3261 -0.1162
 6571TIP3    H241205   3.677   2.958  17.120 -0.4180 -1.4680  1.9018
 6572TIP3   OH241206   0.576   3.541  15.608 -0.1900 -0.8461 -0.3974
 6572TIP3    H141207   0.606   3.452  15.589 -0.8729 -1.6058  1.8726
 6572TIP3    H241208   0.484   3.541  15.582 -0.5939 -1.2919  0.9576
 6573TIP3   OH241209   6.155   4.370   5.910  0.2072 -0.1115  0.4666
 6573TIP3    H141210   6.166   4.332   5.997 -0.9565 -0.4794  0.4727
 6573TIP3    H241211   6.092   4.313   5.867  0.0833  0.5837 -0.3051
 6574TIP3   OH241212   4.019   2.330   0.331 -0.2434 -0.8833  0.4008
 6574TIP3    H141213   4.002   2.380   0.411 -0.4054  0.4778 -0.4501
 6574TIP3    H241214   4.106   2.292   0.344  0.4173  0.6264  0.6163
 6575TIP3   OH241215   6.732   2.006   4.248 -0.3688 -0.2380  0.5102
 6575TIP3    H141216   6.772   2.078   4.296 -0.6083  0.5398 -0.4421
 6575TIP3    H241217   6.701   2.045   4.167  2.8241 -2.0754 -1.8002
 6576TIP3   OH241218   5.839   0.381   1.163  0.1699  0.2105 -0.4282
 6576TIP3    H141219   5.745   0.395   1.148  0.0329 -1.0683 -0.8769
 6576TIP3    H241220   5.847   0.372   1.258  0.0127  1.3804 -0.2873
 6577TIP3   OH241221   0.490   6.343   6.008  0.2601 -0.0037  0.3826
 6577TIP3    H141222   0.405   6.356   6.050 -0.3803  0.1611 -0.8942
 6577TIP3    H241223   0.551   6.328   6.080 -1.0813 -1.4476  1.2712
 6578TIP3   OH241224   2.432   4.562   1.301 -0.1543  0.6096  0.0433
 6578TIP3    H141225   2.412   4.646   1.261 -1.6816  0.8978  1.3465
 6578TIP3    H241226   2.407   4.572   1.393 -2.8780 -2.0321 -0.2628
 6579TIP3   OH241227   6.102   6.007   3.843  0.0401 -0.0750 -0.0501
 6579TIP3    H141228   6.165   6.048   3.783  0.9306  0.7570  1.3917
 6579TIP3    H241229   6.112   5.913   3.827  0.4045  0.1165 -1.0491
 6580TIP3   OH241230   2.751   1.973  14.375  0.3367  0.0585 -0.2539
 6580TIP3    H141231   2.783   1.891  14.336  2.5996  0.9093 -0.3389
 6580TIP3    H241232   2.672   1.993  14.325  0.5950 -1.2876 -1.2791
 6581TIP3   OH241233   1.113   6.233  10.600  0.1554  0.5599 -0.3150
 6581TIP3    H141234   1.108   6.220  10.506 -0.4646 -0.9676 -0.1077
 6581TIP3    H241235   1.105   6.328  10.613  1.8246  0.9549 -1.8601
 6582TIP3   OH241236   0.063   0.047  15.957 -0.5567 -0.0557 -0.1003
 6582TIP3    H141237   0.024   0.109  15.895 -1.7311 -1.1849 -0.5549
 6582TIP3    H241238   0.138   0.011  15.911  0.1584  1.0281  0.1813
 6583TIP3   OH241239   3.498   0.106  10.904 -0.5227 -0.6380 -0.6930
 6583TIP3    H141240   3.461   0.023  10.934  1.2402 -1.9687 -1.9731
 6583TIP3    H241241   3.584   0.110  10.945 -0.7948  0.8454 -0.2314
 6584TIP3   OH241242   1.472   3.644  15.401  0.1638 -0.2570  0.4116
 6584TIP3    H141243   1.500   3.553  15.390 -0.6131 -0.3664 -0.8487
 6584TIP3    H241244   1.502   3.689  15.323 -0.1007  0.4085  0.6829
 6585TIP3   OH241245   3.304   0.645  12.979  0.5136  0.1280  0.2460
 6585TIP3    H141246   3.362   0.574  12.951  2.1571  1.4751  0.0787
 6585TIP3    H241247   3.311   0.645  13.075 -1.1137 -1.2061  0.4108
 6586TIP3   OH241248   6.513   0.898  14.150  0.0480 -0.3803 -0.3042
 6586TIP3    H141249   6.562   0.824  14.185  0.0189 -0.6792 -0.8954
 6586TIP3    H241250   6.564   0.928  14.075  0.2520  0.4335  0.1536
 6587TIP3   OH241251   6.548   2.040   5.799  0.4433 -0.1585  0.0559
 6587TIP3    H141252   6.509   2.074   5.880 -1.0914 -0.1929 -0.6274
 6587TIP3    H241253   6.578   2.118   5.753 -0.2975  0.0334 -0.1237
 6588TIP3   OH241254   5.374   0.818   6.145 -0.0954 -0.5288 -0.2889
 6588TIP3    H141255   5.414   0.744   6.100  0.6104 -0.8972  0.8767
 6588TIP3    H241256   5.324   0.864   6.078 -0.5433 -2.0549 -1.0515
 6589TIP3   OH241257   3.056   4.380   1.250 -0.2729 -0.4873 -0.1335
 6589TIP3    H141258   3.069   4.440   1.177 -0.6438 -0.1153  0.1013
 6589TIP3    H241259   3.127   4.401   1.312  0.5093 -1.3254 -0.7128
 6590TIP3   OH241260   4.407   3.101  14.629  0.3524 -0.0344 -0.0904
 6590TIP3    H141261   4.398   3.147  14.713  1.1631 -0.4429  0.2320
 6590TIP3    H241262   4.377   3.012  14.648  0.0367  0.0111 -0.3750
 6591TIP3   OH241263   2.909   2.673   6.478  0.9361 -0.8539  0.3483
 6591TIP3    H141264   2.913   2.768   6.464  0.2136 -0.7679  0.6476
 6591TIP3    H241265   2.872   2.664   6.567 -0.2656 -1.4197 -0.1813
 6592TIP3   OH241266   5.547   5.788  12.747 -0.0577 -0.3909  0.1196
 6592TIP3    H141267   5.522   5.702  12.713 -0.3728 -0.3973  0.3691
 6592TIP3    H241268   5.475   5.846  12.722  0.3066 -0.1216 -0.3429
 6593TIP3   OH241269   6.536   6.002   0.021  0.1191 -0.1489  0.0597
 6593TIP3    H141270   6.540   6.067  -0.050 -2.0253 -0.1089 -0.0965
 6593TIP3    H241271   6.465   6.033   0.078 -1.8352 -2.9053 -0.6459
 6594TIP3   OH241272   0.006   4.952   2.766  0.4988  0.0840  0.4619
 6594TIP3    H141273  -0.011   4.866   2.805  0.1777  0.7346  1.8146
 6594TIP3    H241274   0.101   4.959   2.763  0.5403  0.1899  1.5632
 6595TIP3   OH241275   3.066   2.045  16.108  0.2386  0.0356 -0.5261
 6595TIP3    H141276   2.992   2.096  16.075 -1.4003 -1.4588  0.5821
 6595TIP3    H241277   3.135   2.109  16.123 -0.7449  1.4772 -1.7992
 6596TIP3   OH241278   3.341   0.693   4.956 -0.4139  0.1416 -0.1895
 6596TIP3    H141279   3.264   0.745   4.976  1.1799  2.3592  0.5952
 6596TIP3    H241280   3.336   0.677   4.861 -1.6561  0.4897 -0.1922
 6597TIP3   OH241281   6.487   2.007  15.231 -0.1044 -0.8544 -0.3402
 6597TIP3    H141282   6.487   2.032  15.324  1.7823 -0.3126 -0.4552
 6597TIP3    H241283   6.530   2.079  15.186 -1.2339 -0.9885 -1.7123
 6598TIP3   OH241284   5.505   3.449  13.951 -0.2989  0.2204  0.6706
 6598TIP3    H141285   5.494   3.538  13.919 -1.0785 -0.3141 -0.5967
 6598TIP3    H241286   5.518   3.396  13.873  1.0338 -0.6713  1.4635
 6599TIP3   OH241287   0.767   1.489  17.091 -0.1825 -0.3828 -0.0126
 6599TIP3    H141288   0.750   1.401  17.056 -2.0478 -0.2582  0.4652
 6599TIP3    H241289   0.720   1.490  17.174 -1.8739  1.7025 -0.9134
 6600TIP3   OH241290   5.218   1.319  15.561  0.2482  0.3563 -0.1341
 6600TIP3    H141291   5.267   1.294  15.640  0.7651 -1.0558 -0.8548
 6600TIP3    H241292   5.278   1.298  15.489 -0.7514  0.2723 -0.9638
 6601TIP3   OH241293   1.501   5.270   5.005 -0.5786 -0.2776  0.2417
 6601TIP3    H141294   1.594   5.256   4.984 -1.2140 -0.3881 -3.0722
 6601TIP3    H241295   1.484   5.212   5.079  1.8075 -0.8527  0.4254
 6602TIP3   OH241296   0.054   5.799  15.293  0.0354  0.7735 -0.2664
 6602TIP3    H141297   0.125   5.806  15.229 -0.8297 -0.8887 -1.4908
 6602TIP3    H241298   0.056   5.707  15.321 -0.4667  1.1477  1.0896
 6603TIP3   OH241299   0.021   3.907  11.735  0.6785  0.0562 -0.5595
 6603TIP3    H141300   0.020   3.982  11.795 -0.0270  0.3806 -0.9674
 6603TIP3    H241301  -0.069   3.876  11.733  1.0835 -1.2133  0.0924
 6604TIP3   OH241302   5.072   6.703   5.552 -0.0712  0.2129 -0.5263
 6604TIP3    H141303   5.112   6.753   5.623  2.1234 -1.7433 -0.2601
 6604TIP3    H241304   4.977   6.709   5.569  0.3309  0.5734  2.0263
 6605TIP3   OH241305   0.167   1.353  16.940 -0.2992 -0.0668 -0.5713
 6605TIP3    H141306   0.193   1.443  16.920 -1.7672  0.5315  0.0792
 6605TIP3    H241307   0.120   1.323  16.862 -0.1539 -0.1260 -0.6354
 6606TIP3   OH241308   4.066   1.542   2.432 -0.0084  0.4647 -0.0072
 6606TIP3    H141309   4.045   1.615   2.374 -0.5605  0.9475  0.7783
 6606TIP3    H241310   4.138   1.496   2.388 -0.0780  1.1080 -0.8170
 6607TIP3   OH241311   1.602   3.969  12.844  0.4969  0.2721  0.5575
 6607TIP3    H141312   1.516   3.978  12.886 -0.3702  0.5345 -1.2099
 6607TIP3    H241313   1.608   4.045  12.786  1.2828 -0.5384 -0.4467
 6608TIP3   OH241314   4.610   1.576  15.966  0.2412  0.0558 -0.5058
 6608TIP3    H141315   4.681   1.632  15.933 -0.0587  0.7964  0.0763
 6608TIP3    H241316   4.631   1.489  15.933  1.5037  0.2309 -0.2135
 6609TIP3   OH241317   1.847   0.596  12.073 -0.2277  0.2983 -0.0176
 6609TIP3    H141318   1.814   0.524  12.128 -0.3818  0.7369  0.4757
 6609TIP3    H241319   1.942   0.591  12.081 -0.2521  1.5282  1.8839
 6610TIP3   OH241320   4.821   5.770   0.583  0.0679 -0.2526  0.3990
 6610TIP3    H141321   4.852   5.684   0.611  0.3552 -1.5334 -3.2955
 6610TIP3    H241322   4.728   5.769   0.605  0.5642 -0.4187  2.6751
 6611TIP3   OH241323   1.074   4.983   3.465  0.0241  0.2807 -0.3450
 6611TIP3    H141324   1.120   4.938   3.536 -0.9118 -0.5633 -0.2438
 6611TIP3    H241325   1.117   4.953   3.385 -1.6925 -2.3326 -0.4318
 6612TIP3   OH241326   2.413   2.593   4.693 -0.1477 -0.7327  0.0725
 6612TIP3    H141327   2.328   2.629   4.716 -0.4141 -2.2469  1.7303
 6612TIP3    H241328   2.471   2.669   4.686 -2.0579  0.6206 -3.7505
 6613TIP3   OH241329   2.628   3.605   6.442  0.1228  0.4827 -0.1062
 6613TIP3    H141330   2.546   3.556   6.434  0.6156 -0.2929 -0.5803
 6613TIP3    H241331   2.675   3.561   6.514  2.0335 -2.0163 -2.6492
 6614TIP3   OH241332   6.216   4.612  16.970 -0.1094  0.4194 -0.1900
 6614TIP3    H141333   6.168   4.630  17.051  0.5641  0.7116  0.1504
 6614TIP3    H241334   6.197   4.520  16.951 -0.1301  0.2950  0.3993
 6615TIP3   OH241335   6.155   6.173   1.737 -0.2355  0.1484 -0.0667
 6615TIP3    H141336   6.210   6.194   1.662  0.0746 -1.1165 -0.2158
 6615TIP3    H241337   6.215   6.137   1.802 -0.7001 -0.0474  0.2589
 6616TIP3   OH241338   4.790   4.856  12.274  0.9771 -0.4230  0.0451
 6616TIP3    H141339   4.841   4.910  12.213 -1.0721  2.1917  0.4564
 6616TIP3    H241340   4.722   4.817  12.219  1.9718 -2.0756 -0.0975
 6617TIP3   OH241341   1.525   0.562   1.201 -0.2975  0.0720  0.0139
 6617TIP3    H141342   1.576   0.554   1.281 -1.3099 -1.2923  0.5454
 6617TIP3    H241343   1.588   0.595   1.136  0.6851  0.5775  1.1901
 6618TIP3   OH241344   0.698   1.822  11.337  0.2517  0.1982 -0.5019
 6618TIP3    H141345   0.652   1.858  11.413 -0.7067 -1.5558 -0.2031
 6618TIP3    H241346   0.703   1.728  11.354  1.2354 -0.0581 -1.9873
 6619TIP3   OH241347   0.233   1.447  16.135  0.0230  0.2769 -0.1954
 6619TIP3    H141348   0.232   1.357  16.104 -0.1583  0.1697  0.1085
 6619TIP3    H241349   0.147   1.482  16.109 -1.7361 -0.9275  3.2951
 6620TIP3   OH241350   6.476   3.414  12.865  0.3959 -0.1632  0.2276
 6620TIP3    H141351   6.437   3.353  12.803 -0.5823  2.2365 -1.7261
 6620TIP3    H241352   6.410   3.424  12.933  0.2768 -0.7611  0.2060
 6621TIP3   OH241353   1.527   1.185   2.343 -0.7055 -0.1601  0.3928
 6621TIP3    H141354   1.579   1.155   2.269  0.5338  0.0176  1.1606
 6621TIP3    H241355   1.438   1.156   2.323 -0.3652 -0.2939 -1.0517
 6622TIP3   OH241356   4.894   5.170   3.516 -1.0916  0.0929 -0.8367
 6622TIP3    H141357   4.945   5.116   3.576 -0.3573  1.7590  0.0908
 6622TIP3    H241358   4.944   5.250   3.507 -1.7639  0.3544 -2.8025
 6623TIP3   OH241359   2.844   5.045  14.486 -0.2042  0.0560  0.2007
 6623TIP3    H141360   2.780   5.004  14.545 -1.3381  1.3839 -0.0469
 6623TIP3    H241361   2.872   4.974  14.429 -0.1848 -0.9325  1.3789
 6624TIP3   OH241362   6.607   3.477   3.883 -0.3120 -0.7460  0.5125
 6624TIP3    H141363   6.666   3.551   3.869  0.1970 -1.0671  0.9300
 6624TIP3    H241364   6.519   3.514   3.872 -0.0837  0.0299  1.1790
 6625TIP3   OH241365   5.323   5.781   2.926 -0.1711  0.3056 -0.5026
 6625TIP3    H141366   5.354   5.851   2.983  1.3722  0.8845 -1.9700
 6625TIP3    H241367   5.402   5.731   2.905 -1.0440 -1.1215 -0.5178
 6626TIP3   OH241368   3.245   2.634   2.514 -0.1711 -0.0610 -0.2510
 6626TIP3    H141369   3.241   2.558   2.572  1.9118 -0.0688 -0.0685
 6626TIP3    H241370   3.153   2.662   2.506 -0.6205 -0.4591  2.4984
 6627TIP3   OH241371   0.274   5.439  11.648 -0.2031 -0.1329 -0.1851
 6627TIP3    H141372   0.256   5.532  11.635  0.6102 -0.0061 -0.4804
 6627TIP3    H241373   0.279   5.402  11.560  0.0828 -0.3300 -0.0897
 6628TIP3   OH241374   5.872   3.918  12.376  0.3032  0.1037  0.2198
 6628TIP3    H141375   5.965   3.906  12.394  0.2254 -1.5154 -0.2686
 6628TIP3    H241376   5.849   3.842  12.322 -0.8789  1.4550 -1.2466
 6629TIP3   OH241377   5.482   6.329  17.089 -0.4780 -0.4670 -0.1299
 6629TIP3    H141378   5.566   6.287  17.108 -0.1662 -0.0282 -0.4998
 6629TIP3    H241379   5.420   6.287  17.149 -0.0369 -0.9430  0.0014
 6630TIP3   OH241380   5.036   1.399   2.142 -0.0706 -0.8707 -0.6823
 6630TIP3    H141381   5.092   1.344   2.196  2.3315  1.8465 -0.1659
 6630TIP3    H241382   4.958   1.346   2.126  0.6483 -3.1534  2.4403
 6631TIP3   OH241383   5.409   2.977   5.313  0.1774 -0.3667 -0.3184
 6631TIP3    H141384   5.363   3.059   5.297 -1.2075 -0.6387  1.7939
 6631TIP3    H241385   5.499   3.003   5.334 -0.0899  0.5441 -0.2804
 6632TIP3   OH241386   0.530   2.318  14.464  0.3310  0.1317  0.5708
 6632TIP3    H141387   0.487   2.290  14.545  0.6950 -1.4723  0.2583
 6632TIP3    H241388   0.602   2.373  14.493 -0.3760  0.7172  1.2489
 6633TIP3   OH241389   5.203   6.276   4.583 -0.2093 -0.3581  0.3155
 6633TIP3    H141390   5.118   6.299   4.544  0.0887 -1.4049 -1.0583
 6633TIP3    H241391   5.246   6.223   4.515  1.4328 -0.0741  1.0975
 6634TIP3   OH241392   1.241   4.725   6.211  0.3383  0.0883  0.2558
 6634TIP3    H141393   1.267   4.804   6.260 -0.0737 -0.2982  1.1142
 6634TIP3    H241394   1.291   4.654   6.252  1.4217  0.0228 -1.1282
 6635TIP3   OH241395   6.342   0.276  13.139 -0.0938  0.1341 -0.1321
 6635TIP3    H141396   6.390   0.257  13.058 -0.1959 -2.7028  0.3794
 6635TIP3    H241397   6.410   0.291  13.204  0.0283  0.2043 -0.2751
 6636TIP3   OH241398   3.599   6.458   2.715  0.0133 -0.5926 -0.2107
 6636TIP3    H141399   3.552   6.376   2.725 -1.1210 -0.1261 -1.4082
 6636TIP3    H241400   3.536   6.518   2.675  0.9533  0.7306  0.1896
 6637TIP3   OH241401   4.624   5.371  11.616  1.0055 -0.0271 -0.4317
 6637TIP3    H141402   4.631   5.465  11.635 -0.6997 -0.1079  0.7303
 6637TIP3    H241403   4.689   5.330  11.674  1.1304  0.3560 -0.2971
 6638TIP3   OH241404   3.222   3.015  12.469  1.0000  0.0988 -0.1673
 6638TIP3    H141405   3.133   2.980  12.464  1.5518 -1.2643 -1.5503
 6638TIP3    H241406   3.253   2.989  12.556  0.5473 -0.7929 -0.2546
 6639TIP3   OH241407   1.355   5.978   0.841 -0.0928 -0.1078 -0.1154
 6639TIP3    H141408   1.309   6.001   0.922 -1.1170 -1.9104 -0.1376
 6639TIP3    H241409   1.311   6.031   0.773  0.6463  1.2652  0.4352
 6640TIP3   OH241410   1.833   5.817   4.150  0.3190 -0.1992 -0.2515
 6640TIP3    H141411   1.910   5.764   4.171  0.5470  0.3536  0.3364
 6640TIP3    H241412   1.858   5.865   4.072 -0.4924 -2.1815 -1.8164
 6641TIP3   OH241413   1.072   2.036  13.486 -0.2864  0.4551 -0.6420
 6641TIP3    H141414   1.045   2.040  13.577  0.6257 -2.4448 -0.1151
 6641TIP3    H241415   0.999   1.992  13.441 -0.0838  0.4715 -0.9924
 6642TIP3   OH241416   0.237   6.669   0.230 -0.0764 -0.3507  0.0583
 6642TIP3    H141417   0.177   6.744   0.218  0.7407  0.4682  0.9425
 6642TIP3    H241418   0.236   6.625   0.145  0.2850  1.3185 -0.8636
 6643TIP3   OH241419   2.912   2.350  11.499  0.6625  0.0849 -0.1027
 6643TIP3    H141420   2.973   2.305  11.440 -0.3980  0.1768 -1.3200
 6643TIP3    H241421   2.951   2.437  11.511  0.7439  0.1761 -0.9415
 6644TIP3   OH241422   4.301   0.535   4.848 -0.1703  0.2895 -0.1366
 6644TIP3    H141423   4.299   0.608   4.911 -1.9443  1.2946 -1.2539
 6644TIP3    H241424   4.274   0.459   4.899 -1.0739  0.9867  0.4701
 6645TIP3   OH241425   1.482   4.919   4.779 -0.5675 -0.0387 -0.1409
 6645TIP3    H141426   1.458   4.827   4.768 -1.4524  0.1404  0.1756
 6645TIP3    H241427   1.411   4.956   4.831  0.0067  0.7234  0.1231
 6646TIP3   OH241428   4.284   5.672  13.394  0.0789 -0.3075  0.0466
 6646TIP3    H141429   4.337   5.733  13.342  1.7525 -2.9194 -1.5061
 6646TIP3    H241430   4.240   5.617  13.329 -0.4404 -1.5353  1.3893
 6647TIP3   OH241431   5.073   6.334  16.745 -0.2665  0.2651  0.0796
 6647TIP3    H141432   5.106   6.295  16.664  0.3146  1.1584 -0.1278
 6647TIP3    H241433   4.995   6.384  16.717  1.0035  2.1449 -0.3071
 6648TIP3   OH241434   6.312   3.403  13.106 -0.0768  0.1236 -0.3068
 6648TIP3    H141435   6.261   3.339  13.156  0.2271  0.4618  0.4519
 6648TIP3    H241436   6.253   3.478  13.097  0.2980  0.5410  0.6296
 6649TIP3   OH241437   0.248   5.770  15.104 -0.8607 -0.1970  0.9199
 6649TIP3    H141438   0.245   5.847  15.047 -1.9195 -0.6364  0.3586
 6649TIP3    H241439   0.231   5.697  15.045  1.0373 -0.9931  1.2680
 6650TIP3   OH241440   0.291   4.421  14.287  0.3173 -0.1899  0.5736
 6650TIP3    H141441   0.387   4.427  14.279  0.3047  0.2667  0.6964
 6650TIP3    H241442   0.277   4.360  14.359  0.5003 -0.8610  0.0495
 6651TIP3   OH241443   1.851   3.044   2.560 -0.2289  0.4754 -0.3601
 6651TIP3    H141444   1.851   3.106   2.633  1.7112 -0.2233  0.2779
 6651TIP3    H241445   1.759   3.021   2.549 -0.4525 -1.0156  3.2761
 6652TIP3   OH241446   2.710   1.173   1.028  0.0643 -0.0215  0.2094
 6652TIP3    H141447   2.770   1.115   0.981  2.0033  1.5854  0.5687
 6652TIP3    H241448   2.667   1.117   1.092  0.3418 -1.4406 -0.8036
 6653TIP3   OH241449   2.206   1.624   2.180 -0.4248  0.4357  0.0327
 6653TIP3    H141450   2.238   1.535   2.167 -0.2920  0.6746 -1.5200
 6653TIP3    H241451   2.111   1.614   2.190 -0.4257  0.1254 -0.2660
 6654TIP3   OH241452   1.143   2.954   0.452 -0.4437  0.5270 -0.3941
 6654TIP3    H141453   1.173   2.882   0.509  0.2937  0.3416 -0.9944
 6654TIP3    H241454   1.162   3.033   0.502  1.7075  0.4567 -0.9965
 6655TIP3   OH241455   3.282   2.220  15.284 -0.4683  0.1742  0.1529
 6655TIP3    H141456   3.271   2.271  15.203 -1.5076 -0.5201 -0.1587
 6655TIP3    H241457   3.372   2.238  15.311  0.1112 -0.0697 -1.4974
 6656TIP3   OH241458   2.741   2.160   5.719  0.2097  0.6347  0.7394
 6656TIP3    H141459   2.772   2.077   5.755 -0.7172 -0.5311 -1.0099
 6656TIP3    H241460   2.658   2.176   5.764  0.2611  0.4888  0.8847
 6657TIP3   OH241461   6.643   0.421  11.466 -0.1194  0.4476 -0.5902
 6657TIP3    H141462   6.651   0.460  11.553 -0.0205 -0.0368 -0.3779
 6657TIP3    H241463   6.703   0.471  11.411 -0.6438  1.1629 -0.5300
 6658TIP3   OH241464   0.542   1.333   2.868 -0.2921  0.3606 -0.1489
 6658TIP3    H141465   0.458   1.309   2.828 -0.5987  0.6019  0.3421
 6658TIP3    H241466   0.553   1.425   2.847 -0.2965  0.4049  0.0396
 6659TIP3   OH241467   4.463   3.407  13.369 -0.2789 -0.7636 -0.3716
 6659TIP3    H141468   4.385   3.458  13.348 -0.7797 -1.4918 -0.3463
 6659TIP3    H241469   4.524   3.424  13.298 -0.3028  0.1199 -0.1929
 6660TIP3   OH241470   6.741   2.275   3.959 -0.1643  0.6480 -0.1535
 6660TIP3    H141471   6.697   2.353   3.924  0.8294  1.4567  0.3478
 6660TIP3    H241472   6.798   2.245   3.888  0.6477  1.3394  0.1884
 6661TIP3   OH241473   4.469   0.006   5.033  1.0646 -0.3830  0.2307
 6661TIP3    H141474   4.556   0.035   5.004  1.7150 -1.5029  0.9771
 6661TIP3    H241475   4.484  -0.082   5.069 -0.5971 -1.1373 -0.7804
 6662TIP3   OH241476   5.774   3.691  17.151 -0.2708 -0.3013  0.1171
 6662TIP3    H141477   5.805   3.774  17.189  0.0512 -0.2045 -0.3436
 6662TIP3    H241478   5.726   3.649  17.222  0.0057  0.0429  0.5189
 6663TIP3   OH241479   2.944   4.185  14.034 -0.1365 -0.6038 -0.4805
 6663TIP3    H141480   2.870   4.243  14.055  0.4436 -0.3701  1.0009
 6663TIP3    H241481   2.976   4.155  14.119  0.6914 -1.7078 -1.1572
 6664TIP3   OH241482   5.347   6.604  10.576 -0.3104 -0.5361 -0.2050
 6664TIP3    H141483   5.419   6.598  10.513 -1.4722  0.2163 -1.6693
 6664TIP3    H241484   5.369   6.679  10.631  0.0022 -0.2931 -0.6529
 6665TIP3   OH241485   2.250   3.509   0.534 -0.0188  0.5555 -0.2818
 6665TIP3    H141486   2.278   3.439   0.476 -0.4073 -0.7189  1.0098
 6665TIP3    H241487   2.331   3.540   0.575 -0.1490 -2.1274  2.3505
 6666TIP3   OH241488   0.206   4.377   1.646 -1.6321  0.7433 -0.0513
 6666TIP3    H141489   0.298   4.384   1.623 -1.3404 -1.5606  0.1608
 6666TIP3    H241490   0.169   4.462   1.623  0.3082  1.3498 -1.1917
 6667TIP3   OH241491   1.661   6.250  15.427 -0.2271  0.0982 -0.0599
 6667TIP3    H141492   1.580   6.199  15.429  0.0085 -0.2992 -0.3114
 6667TIP3    H241493   1.647   6.321  15.490 -0.1724 -0.8650  1.0660
 6668TIP3   OH241494   6.453   6.044   2.972 -1.1270 -0.2402 -0.2117
 6668TIP3    H141495   6.497   5.959   2.980  0.0841  0.4205  0.4975
 6668TIP3    H241496   6.362   6.027   2.998 -1.0705 -1.4450 -0.7449
 6669TIP3   OH241497   5.468   4.587   0.228 -0.3634  0.2768 -0.2460
 6669TIP3    H141498   5.444   4.512   0.283  1.8014 -0.7638 -0.6323
 6669TIP3    H241499   5.558   4.607   0.251 -0.8683  2.8146 -0.1684
 6670TIP3   OH241500   3.981   2.034   3.540 -0.0357  0.2263  0.5152
 6670TIP3    H141501   3.996   2.088   3.463  0.0416  0.7217  0.8742
 6670TIP3    H241502   3.961   1.947   3.505  0.8817  0.2281 -0.0408
 6671TIP3   OH241503   1.374   0.392  15.069 -0.0805 -0.0056 -0.0040
 6671TIP3    H141504   1.316   0.319  15.048  1.1770 -1.0017 -0.1595
 6671TIP3    H241505   1.344   0.422  15.155 -0.8499 -0.4646 -0.1015
 6672TIP3   OH241506   1.911   3.779  17.324  0.2773  0.0316  0.3309
 6672TIP3    H141507   1.919   3.851  17.387  1.2568 -0.1982  0.4907
 6672TIP3    H241508   1.817   3.768  17.312  0.0006 -0.7862  2.7818
 6673TIP3   OH241509   3.048   6.217   4.710 -0.4936  0.6192  0.0225
 6673TIP3    H141510   2.989   6.162   4.762 -0.2324 -1.2250 -1.5253
 6673TIP3    H241511   3.136   6.191   4.737 -0.3643  0.0525 -0.9016
 6674TIP3   OH241512   4.632   3.868  12.216 -0.1826  0.3393  0.4431
 6674TIP3    H141513   4.537   3.875  12.207 -0.1390  2.6686  1.2579
 6674TIP3    H241514   4.652   3.913  12.298  1.7005  0.4905 -0.0505
 6675TIP3   OH241515   5.290   6.472   1.130 -0.1384  0.1539  1.1300
 6675TIP3    H141516   5.215   6.516   1.089  0.6298  1.2656  0.8817
 6675TIP3    H241517   5.362   6.534   1.122  1.2767 -1.5297 -0.1449
 6676TIP3   OH241518   4.948   6.059   4.196  0.0692 -0.0230  0.3894
 6676TIP3    H141519   4.993   6.143   4.200  1.0430 -0.5601  0.8565
 6676TIP3    H241520   4.906   6.059   4.109  0.6507  0.6405  0.0989
 6677TIP3   OH241521   3.623   3.683  14.700 -0.5282  0.2520 -0.0394
 6677TIP3    H141522   3.592   3.679  14.609  0.8835 -3.5035 -0.5725
 6677TIP3    H241523   3.562   3.626  14.748  0.6696 -0.5446  0.5855
 6678TIP3   OH241524   2.859   1.051   5.505  0.3495 -0.4468  0.1265
 6678TIP3    H141525   2.924   1.062   5.574 -0.4167  1.8284  0.5686
 6678TIP3    H241526   2.858   1.135   5.460 -2.4221 -0.3098  0.2777
 6679TIP3   OH241527   0.523   5.748  12.508 -0.2151 -0.2544  0.0881
 6679TIP3    H141528   0.570   5.667  12.525  0.1261 -0.2601 -0.7879
 6679TIP3    H241529   0.578   5.816  12.546  0.0106 -0.3519 -0.0585
 6680TIP3   OH241530   2.284   4.196  12.405 -0.1075  0.3302  0.4680
 6680TIP3    H141531   2.223   4.259  12.366 -1.0017 -0.4947  0.5000
 6680TIP3    H241532   2.360   4.197  12.347 -0.7824  0.2595 -0.4249
 6681TIP3   OH241533   5.417   5.493  13.000 -0.3138  0.2185  0.0334
 6681TIP3    H141534   5.366   5.520  13.077  0.9541  1.2677  0.5249
 6681TIP3    H241535   5.361   5.428  12.957 -1.8653  0.9919  0.8029
 6682TIP3   OH241536   0.869   1.694  15.761 -0.4046 -0.1987 -0.2856
 6682TIP3    H141537   0.957   1.657  15.762  0.7007  1.8977 -3.3897
 6682TIP3    H241538   0.823   1.643  15.695 -0.5887  0.4645 -0.6804
 6683TIP3   OH241539   2.238   3.564  14.254  0.5935  0.3686 -0.1172
 6683TIP3    H141540   2.190   3.555  14.336  1.3024 -1.8001  0.1323
 6683TIP3    H241541   2.324   3.597  14.280 -0.0059  2.2050 -0.3284
 6684TIP3   OH241542   2.161   4.470  14.203  0.3545 -0.3468  0.2779
 6684TIP3    H141543   2.140   4.564  14.200 -0.3987 -0.4930  0.5756
 6684TIP3    H241544   2.089   4.432  14.253  0.1685 -1.2210 -0.6391
 6685TIP3   OH241545   1.021   0.621   3.012 -0.5825  0.9051  0.5013
 6685TIP3    H141546   1.102   0.655   2.973 -0.4533  0.7792  0.6587
 6685TIP3    H241547   1.051   0.561   3.081 -0.6529 -2.6177 -2.1938
 6686TIP3   OH241548   6.030   1.321   4.396 -0.0024 -0.3659  0.0358
 6686TIP3    H141549   6.123   1.300   4.398 -0.1350 -0.9891  0.0679
 6686TIP3    H241550   5.987   1.236   4.386 -0.5515 -0.0502 -0.3476
 6687TIP3   OH241551   4.765   0.588   6.165 -0.1727 -0.5296 -0.0059
 6687TIP3    H141552   4.698   0.622   6.106  0.6163 -0.3314 -0.8188
 6687TIP3    H241553   4.806   0.666   6.203 -0.0745 -0.6342  0.1044
 6688TIP3   OH241554   0.228   5.253   3.593 -0.2344 -0.1763  0.0105
 6688TIP3    H141555   0.140   5.225   3.568 -1.0563  0.5831  1.9117
 6688TIP3    H241556   0.225   5.262   3.688  1.7794  0.2948  0.0765
 6689TIP3   OH241557   4.080   4.819  12.000 -0.2223 -0.3783  0.2892
 6689TIP3    H141558   4.082   4.891  11.937  1.7203 -0.2962  0.3758
 6689TIP3    H241559   4.156   4.766  11.977 -1.3205 -2.1477  0.5564
 6690TIP3   OH241560   6.716   0.418  12.934 -0.5280  0.4578  0.1490
 6690TIP3    H141561   6.643   0.402  12.873 -0.5846 -0.0700  0.3531
 6690TIP3    H241562   6.673   0.431  13.019 -0.4855  1.6849  0.0041
 6691TIP3   OH241563   2.476   3.332  16.704 -0.3371  0.5826  0.3956
 6691TIP3    H141564   2.525   3.414  16.710  0.4788  0.1387 -0.0360
 6691TIP3    H241565   2.411   3.338  16.774 -1.0392  2.0775 -0.3388
 6692TIP3   OH241566   0.628   1.536  16.707 -0.3511  0.2363  0.0939
 6692TIP3    H141567   0.609   1.567  16.796  1.4590  0.6783  0.3523
 6692TIP3    H241568   0.541   1.526  16.667 -1.1777  0.6477  1.6911
 6693TIP3   OH241569   6.241   3.385   3.674  0.1287 -0.1014  0.2138
 6693TIP3    H141570   6.165   3.395   3.731 -1.7418  0.3181 -2.1883
 6693TIP3    H241571   6.213   3.320   3.608  2.8663 -2.0239  0.7886
 6694TIP3   OH241572   1.109   5.418   2.994  0.4882  0.6898 -0.4258
 6694TIP3    H141573   1.118   5.369   2.912 -0.7995 -1.3211  0.5514
 6694TIP3    H241574   1.182   5.480   2.993  1.4371 -0.3625 -2.3471
 6695TIP3   OH241575   1.205   6.705  12.088 -0.0410  0.4358  0.0881
 6695TIP3    H141576   1.152   6.773  12.131  0.2212  1.2130 -0.7996
 6695TIP3    H241577   1.248   6.659  12.160 -1.7841 -0.1177  0.8399
 6696TIP3   OH241578   4.411   1.472  14.391 -0.4498  0.2123 -0.4309
 6696TIP3    H141579   4.395   1.488  14.484  1.3586  1.2273 -0.2516
 6696TIP3    H241580   4.423   1.559  14.354 -3.2904  0.0122 -2.1132
 6697TIP3   OH241581   3.854   1.849   3.348  0.0486  0.1650 -0.2768
 6697TIP3    H141582   3.846   1.764   3.305  2.6988  0.5493 -1.7473
 6697TIP3    H241583   3.807   1.910   3.289  0.6257  0.1476 -0.7596
 6698TIP3   OH241584   1.853   5.433  15.531  0.0544  0.7917 -0.0296
 6698TIP3    H141585   1.928   5.374  15.531  0.2880  1.0536 -1.7267
 6698TIP3    H241586   1.885   5.512  15.575  0.2738  0.3154  0.6809
 6699TIP3   OH241587   6.159   5.376   3.114  0.2706 -0.5368  0.2632
 6699TIP3    H141588   6.251   5.371   3.088  0.3981  1.3728  0.2078
 6699TIP3    H241589   6.162   5.395   3.208 -0.0173  0.7106  0.0383
 6700TIP3   OH241590   4.469   5.005   3.573 -0.0565 -0.4494 -0.0308
 6700TIP3    H141591   4.556   4.970   3.552 -0.2449 -1.4356  0.7660
 6700TIP3    H241592   4.410   4.932   3.556 -0.8276  0.4021 -1.1666
 6701TIP3   OH241593   4.939   0.695  13.643 -0.1790  0.3682 -0.1202
 6701TIP3    H141594   4.882   0.771  13.650  1.6443  1.7454  0.8931
 6701TIP3    H241595   4.979   0.702  13.556 -0.1454  0.4870 -0.0955
 6702TIP3   OH241596   5.008   4.917  17.006  0.0029  0.1695  0.0385
 6702TIP3    H141597   4.998   5.012  17.009 -0.4026  0.2108 -1.4823
 6702TIP3    H241598   4.976   4.893  16.919 -0.1864 -1.3996  0.5154
 6703TIP3   OH241599   4.647   0.153  13.118  0.2492 -0.7928  0.0608
 6703TIP3    H141600   4.636   0.090  13.047 -1.4207  1.1040 -1.4935
 6703TIP3    H241601   4.562   0.156  13.161  0.3823  0.1791  0.2844
 6704TIP3   OH241602   4.228   2.705  14.250 -0.3746 -0.3792 -0.6133
 6704TIP3    H141603   4.198   2.680  14.337  0.0785 -1.8775 -0.8731
 6704TIP3    H241604   4.154   2.685  14.193 -1.2246  1.9358 -0.4439
 6705TIP3   OH241605   0.259   5.633   1.302 -0.1276 -0.2484  0.3714
 6705TIP3    H141606   0.255   5.562   1.238  1.6115 -0.4198  0.4183
 6705TIP3    H241607   0.240   5.590   1.386 -1.0225 -0.2767  0.1668
 6706TIP3   OH241608   0.234   3.836  16.472 -0.7330  0.1629  0.5235
 6706TIP3    H141609   0.146   3.834  16.510 -0.8098 -0.5765  0.3271
 6706TIP3    H241610   0.238   3.758  16.416 -0.2613  0.6601 -0.1635
 6707TIP3   OH241611   1.605   3.513   1.711  0.4327  0.5457 -0.2066
 6707TIP3    H141612   1.559   3.596   1.714  0.9777  0.8489  0.0534
 6707TIP3    H241613   1.543   3.449   1.747 -0.2975  0.6816 -1.2076
 6708TIP3   OH241614   5.713   2.790   4.645 -0.2598 -0.2942  0.1901
 6708TIP3    H141615   5.800   2.754   4.660 -0.3638 -1.0205 -0.8363
 6708TIP3    H241616   5.725   2.884   4.642  0.3849 -0.3585  0.6669
 6709TIP3   OH241617   1.417   4.606   4.392 -0.0585 -0.8054 -0.4515
 6709TIP3    H141618   1.324   4.587   4.386 -0.0595 -0.5453 -1.5610
 6709TIP3    H241619   1.452   4.584   4.305  1.0413 -1.5585  0.1531
 6710TIP3   OH241620   3.390   5.078  14.467  0.0053 -0.5371 -0.3954
 6710TIP3    H141621   3.448   5.005  14.490  0.3449 -0.2295 -0.2664
 6710TIP3    H241622   3.427   5.113  14.386  0.0244 -0.3164 -0.2925
 6711TIP3   OH241623   4.034   2.841   4.355  0.6979 -0.2964 -0.4138
 6711TIP3    H141624   3.975   2.913   4.376 -0.2899 -0.8651 -1.1565
 6711TIP3    H241625   4.118   2.867   4.393  0.0470  0.6537  0.4317
 6712TIP3   OH241626   1.808   3.930  11.525 -0.1816 -0.4646  0.2305
 6712TIP3    H141627   1.843   3.899  11.609 -0.0127  0.5199  0.5334
 6712TIP3    H241628   1.740   3.993  11.549 -0.3328 -0.3904 -0.3737
 6713TIP3   OH241629   0.583   4.344  16.791 -0.5785  0.2144  0.4538
 6713TIP3    H141630   0.638   4.414  16.756 -1.8443  0.4236 -1.2315
 6713TIP3    H241631   0.543   4.383  16.870  0.6222  0.5112  0.9322
 6714TIP3   OH241632   0.759   6.355   1.458 -0.2827  0.0250 -0.1884
 6714TIP3    H141633   0.797   6.279   1.413  0.2830  0.0595  0.2266
 6714TIP3    H241634   0.697   6.391   1.394  0.9619  0.4445 -1.2158
 6715TIP3   OH241635   2.549   4.933  12.163 -0.0738 -0.8327 -0.2824
 6715TIP3    H141636   2.526   4.960  12.252  0.5560  0.1324 -0.3949
 6715TIP3    H241637   2.469   4.894  12.128 -1.0690  0.9594 -0.1070
 6716TIP3   OH241638   4.048   4.955   3.754 -0.1253  0.4125  0.1346
 6716TIP3    H141639   3.966   5.002   3.741  0.0046  0.5580 -0.1666
 6716TIP3    H241640   4.107   5.018   3.794 -0.9193 -0.3886  2.7751
 6717TIP3   OH241641   0.569   0.838   3.470 -0.2758  0.1342 -0.1944
 6717TIP3    H141642   0.627   0.914   3.469  0.2090 -0.2317 -1.0367
 6717TIP3    H241643   0.512   0.851   3.393 -1.0215  0.2652  0.3692
 6718TIP3   OH241644   0.251   6.012  11.976  0.4331 -0.4232  0.4106
 6718TIP3    H141645   0.243   5.948  11.906  2.1759  2.0520 -2.2910
 6718TIP3    H241646   0.163   6.018  12.014 -0.8897 -1.1367 -2.3178
 6719TIP3   OH241647   2.597   1.789   5.037 -0.4080 -0.3948 -0.0344
 6719TIP3    H141648   2.573   1.703   5.003  0.4733 -0.5574 -0.2626
 6719TIP3    H241649   2.521   1.844   5.019 -0.1206 -0.5584 -1.9899
 6720TIP3   OH241650   4.449   4.288   2.708  0.2605  0.7068 -0.0563
 6720TIP3    H141651   4.390   4.275   2.634  1.4227  0.3775 -0.9547
 6720TIP3    H241652   4.396   4.268   2.786 -0.7041  0.1091 -0.8520
 6721TIP3   OH241653   0.126   3.485   2.095 -0.4558  0.3418 -0.4394
 6721TIP3    H141654   0.125   3.434   2.014 -0.5141  2.3544 -1.7829
 6721TIP3    H241655   0.166   3.427   2.159 -0.5402 -1.3759 -1.8578
 6722TIP3   OH241656   2.115   5.905   1.926 -0.0190  0.1856 -0.0489
 6722TIP3    H141657   2.181   5.950   1.874  0.6130 -0.8114 -0.1170
 6722TIP3    H241658   2.148   5.816   1.937 -0.8380 -0.0310  0.8213
 6723TIP3   OH241659   0.441   4.462   4.460  0.3440  0.3976  0.3150
 6723TIP3    H141660   0.352   4.483   4.489 -0.4081 -1.9358 -0.0270
 6723TIP3    H241661   0.437   4.369   4.437  2.9586  0.1398  0.5650
 6724TIP3   OH241662   6.333   5.469   0.743  0.2877 -0.2317  0.1980
 6724TIP3    H141663   6.240   5.483   0.729  0.0555 -0.7606  1.1617
 6724TIP3    H241664   6.340   5.378   0.769  1.1213 -0.2920 -0.1892
 6725TIP3   OH241665   0.507   0.287  12.131  0.4461 -0.4409 -0.1739
 6725TIP3    H141666   0.498   0.369  12.083 -0.3246  0.0507  0.7741
 6725TIP3    H241667   0.455   0.224  12.080  2.1449 -0.7087 -1.6450
 6726TIP3   OH241668   2.967   2.336   1.610  0.1751 -0.5998  0.0153
 6726TIP3    H141669   2.878   2.302   1.602 -0.5778  1.3510 -0.5684
 6726TIP3    H241670   3.005   2.324   1.523  0.9308 -2.4422  0.5447
 6727TIP3   OH241671   0.806   0.892   2.861  0.5585 -0.2848 -0.0735
 6727TIP3    H141672   0.795   0.799   2.840 -0.3388  0.1100 -1.5370
 6727TIP3    H241673   0.890   0.916   2.822  1.1689 -0.6494  0.9930
 6728TIP3   OH241674   1.371   6.091  12.804  0.0434 -0.8134 -0.0768
 6728TIP3    H141675   1.432   6.088  12.730  0.1341 -0.3554 -0.0262
 6728TIP3    H241676   1.423   6.066  12.880  0.2184 -0.2724 -0.0088
 6729TIP3   OH241677   0.165   5.657   2.091  0.5137 -0.3514  0.7397
 6729TIP3    H141678   0.208   5.721   2.035  1.4161 -1.3260  0.2927
 6729TIP3    H241679   0.113   5.710   2.152 -0.5196  0.7287 -1.0025
 6730TIP3   OH241680   5.237   4.743  13.968  0.3934 -0.3543 -0.3355
 6730TIP3    H141681   5.233   4.673  13.903  0.4753 -0.9176  0.2457
 6730TIP3    H241682   5.324   4.780  13.959 -0.3439  1.0927 -2.0614
 6731TIP3   OH241683   0.130   0.616  12.841  0.0265 -0.5730 -0.3075
 6731TIP3    H141684   0.048   0.581  12.875 -0.5446  0.6884 -0.3468
 6731TIP3    H241685   0.125   0.710  12.857  1.4155 -0.4546 -0.4239
 6732TIP3   OH241686   1.951   6.358   6.817  0.2263 -0.3793  0.1069
 6732TIP3    H141687   1.963   6.278   6.766 -0.5953 -1.3080  1.3183
 6732TIP3    H241688   2.020   6.355   6.884  0.5280  0.2002 -0.1733
 6733TIP3   OH241689   5.090   1.250  14.671 -0.1218  0.0551  0.4997
 6733TIP3    H141690   5.090   1.306  14.594 -1.9171 -1.2035 -0.4696
 6733TIP3    H241691   5.000   1.217  14.677  0.0706 -0.1971  2.9088
 6734TIP3   OH241692   1.232   1.173  14.026 -0.1627 -0.1943  0.0245
 6734TIP3    H141693   1.272   1.142  14.107 -0.2643 -1.1102 -0.2645
 6734TIP3    H241694   1.293   1.146  13.957 -0.4186 -0.0499 -0.2636
 6735TIP3   OH241695   2.729   3.733  15.501  0.0516  0.0444  0.1856
 6735TIP3    H141696   2.737   3.727  15.406 -0.8993  0.6647  0.0457
 6735TIP3    H241697   2.635   3.726  15.518  0.2653 -0.7854  1.1463
 6736TIP3   OH241698   0.565   6.780   2.442 -0.4498 -0.1570 -0.7176
 6736TIP3    H141699   0.656   6.749   2.445 -0.4850 -0.4616 -2.0441
 6736TIP3    H241700   0.551   6.802   2.350 -1.0932  1.8409 -0.1820
 6737TIP3   OH241701   2.775   6.238   5.560 -0.8437 -0.0268 -0.1233
 6737TIP3    H141702   2.737   6.278   5.638  0.9677 -0.2088  0.9095
 6737TIP3    H241703   2.837   6.173   5.594 -0.2312 -0.3323 -1.7179
 6738TIP3   OH241704   2.556   5.942   5.813 -0.2537  0.4724 -0.0659
 6738TIP3    H141705   2.632   5.948   5.870  0.7660  1.1702 -1.4230
 6738TIP3    H241706   2.590   5.904   5.731 -1.6497 -0.4720 -0.2459
 6739TIP3   OH241707   4.126   1.185  15.649 -0.2805 -0.4825 -0.2226
 6739TIP3    H141708   4.208   1.230  15.629  0.9119 -2.3876  0.0515
 6739TIP3    H241709   4.154   1.109  15.700 -2.3438 -0.6457  0.7438
 6740TIP3   OH241710   5.222   2.679   3.236  0.2862  0.9281  0.4610
 6740TIP3    H141711   5.278   2.604   3.218 -1.7874 -0.0064 -3.1720
 6740TIP3    H241712   5.272   2.754   3.204  1.5542  0.9375  2.2925
 6741TIP3   OH241713   4.380   6.531   1.223 -0.2040 -0.3861 -0.0468
 6741TIP3    H141714   4.412   6.441   1.223 -0.7103 -0.5792 -0.9590
 6741TIP3    H241715   4.318   6.534   1.296 -2.2907 -1.5995 -1.6444
 6742TIP3   OH241716   6.023   2.621  11.083  0.4134  0.2427  0.3817
 6742TIP3    H141717   5.957   2.603  11.017  0.6301  2.0068 -0.3805
 6742TIP3    H241718   6.105   2.592  11.043  0.2859 -0.7828  0.8240
 6743TIP3   OH241719   2.040   5.160   1.365 -0.6854  0.1280 -0.1900
 6743TIP3    H141720   2.073   5.225   1.304  2.6259  0.8313  2.1029
 6743TIP3    H241721   2.003   5.211   1.437  1.8732 -0.3474  1.5929
 6744TIP3   OH241722   4.941   2.412   0.962 -0.2221  0.2071  0.0263
 6744TIP3    H141723   5.023   2.394   1.008 -0.1108 -1.1204 -0.6582
 6744TIP3    H241724   4.876   2.357   1.005 -0.7628  1.1574  0.4783
 6745TIP3   OH241725   6.339   0.918  11.233  0.3719 -0.3819 -0.4639
 6745TIP3    H141726   6.356   0.844  11.291 -0.2454 -0.9469 -0.9844
 6745TIP3    H241727   6.405   0.910  11.164  1.6122  0.7394  0.5380
 6746TIP3   OH241728   4.476   0.827   3.735 -0.0843 -0.0780 -0.8690
 6746TIP3    H141729   4.522   0.883   3.673  0.2284  0.8014  0.1199
 6746TIP3    H241730   4.530   0.830   3.815 -1.0424 -0.2825 -0.1948
 6747TIP3   OH241731   5.851   3.241   4.530 -0.2257  0.3211  0.2775
 6747TIP3    H141732   5.838   3.189   4.451 -2.3216  2.3297 -0.8223
 6747TIP3    H241733   5.926   3.297   4.510 -0.2979  0.3197 -0.0014
 6748TIP3   OH241734   5.793   5.261   5.691  0.3899  0.5603 -0.3607
 6748TIP3    H141735   5.819   5.333   5.748 -3.5426  0.5200  1.8827
 6748TIP3    H241736   5.697   5.265   5.691 -0.0736 -4.4405 -0.3625
 6749TIP3   OH241737   5.889   2.110   3.978  0.4010  0.1931  0.2210
 6749TIP3    H141738   5.800   2.130   4.008  0.8100 -0.2382  1.8144
 6749TIP3    H241739   5.933   2.074   4.055  1.6307 -0.6660 -0.8324
 6750TIP3   OH241740   6.181   4.576  11.036 -0.6913 -0.0392  0.1956
 6750TIP3    H141741   6.104   4.618  10.997  1.4469  2.4690 -1.7082
 6750TIP3    H241742   6.222   4.529  10.963  0.3653 -0.1088  0.8111
 6751TIP3   OH241743   2.952   1.073  14.865  0.5832 -0.3222 -0.3170
 6751TIP3    H141744   2.922   1.006  14.804 -2.1103  0.0622  0.4900
 6751TIP3    H241745   2.978   1.147  14.810 -0.1718 -0.6077 -1.0732
 6752TIP3   OH241746   6.369   2.135  13.847 -0.3796  0.1353 -0.3295
 6752TIP3    H141747   6.463   2.116  13.851 -0.3450  0.3038 -0.3534
 6752TIP3    H241748   6.364   2.227  13.821 -0.5266  0.8859  2.1226
 6753TIP3   OH241749   1.164   6.282   1.676  0.1351 -0.1929  0.0063
 6753TIP3    H141750   1.175   6.315   1.586  3.4189  0.5623  0.5554
 6753TIP3    H241751   1.182   6.358   1.731  0.4136 -1.1778  1.2991
 6754TIP3   OH241752   5.854   4.838   2.011  0.2422  0.4756 -0.2599
 6754TIP3    H141753   5.904   4.915   2.039  0.6168 -0.2029  1.0630
 6754TIP3    H241754   5.811   4.865   1.930  1.2802  1.6886 -0.4446
 6755TIP3   OH241755   1.541   3.587   4.820  0.6281  0.2469  0.2768
 6755TIP3    H141756   1.599   3.656   4.790 -1.1796  1.1642 -1.3818
 6755TIP3    H241757   1.544   3.591   4.916  1.1515  2.1041  0.2038
 6756TIP3   OH241758   0.713   4.677  12.173 -0.0734 -0.0095  0.4966
 6756TIP3    H141759   0.627   4.693  12.212 -0.5448  0.0538 -0.5341
 6756TIP3    H241760   0.705   4.710  12.084  1.1730  0.3988  0.5256
 6757TIP3   OH241761   6.426   3.058  17.042  0.5289 -0.1392 -0.1771
 6757TIP3    H141762   6.481   3.108  17.102  0.3502 -1.7447  1.3899
 6757TIP3    H241763   6.480   2.984  17.016 -0.4057 -1.0237  0.3413
 6758TIP3   OH241764   6.708   5.171  14.920  0.5451 -0.4216 -0.5835
 6758TIP3    H141765   6.672   5.124  14.995 -1.6316  1.8254 -0.0804
 6758TIP3    H241766   6.687   5.116  14.844 -2.2965 -0.1809 -0.0753
 6759TIP3   OH241767   3.726   1.382   3.653 -0.3676 -0.2770  0.0663
 6759TIP3    H141768   3.748   1.301   3.701  1.4073 -0.5689 -1.1330
 6759TIP3    H241769   3.796   1.443   3.677 -0.8538  0.4080 -0.2289
 6760TIP3   OH241770   5.859   3.354  11.756  0.9065 -0.1150  0.5250
 6760TIP3    H141771   5.846   3.377  11.664 -0.2881 -0.8054  0.5004
 6760TIP3    H241772   5.842   3.260  11.760 -1.1021  0.2402  1.7731
 6761TIP3   OH241773   3.343   1.327  11.536  0.0753  0.1414 -0.1296
 6761TIP3    H141774   3.429   1.352  11.570 -0.3423 -0.2537  1.2553
 6761TIP3    H241775   3.362   1.262  11.468  0.8542 -0.5438  0.7161
 6762TIP3   OH241776   6.536   5.026  16.647 -0.1527  0.2349 -0.0145
 6762TIP3    H141777   6.612   4.998  16.596 -0.2220  0.3571 -0.1827
 6762TIP3    H241778   6.485   4.946  16.660 -0.1850  0.2235 -0.2174
 6763TIP3   OH241779   1.240   3.973  14.872  0.4727 -0.0922  0.0997
 6763TIP3    H141780   1.281   3.891  14.847 -1.8531 -0.9148 -1.3669
 6763TIP3    H241781   1.211   4.012  14.789 -0.5496  1.0383  0.9385
 6764TIP3   OH241782   3.764   2.720   2.233  0.4382  0.0446  0.0962
 6764TIP3    H141783   3.821   2.728   2.309 -0.5424 -1.1667  0.9821
 6764TIP3    H241784   3.717   2.803   2.229  0.6652  0.2008  0.6585
 6765TIP3   OH241785   6.307   4.010  16.456  0.8237 -0.2342  0.3810
 6765TIP3    H141786   6.215   3.992  16.476  0.2587  1.7749 -0.0961
 6765TIP3    H241787   6.309   4.017  16.360  1.2659  0.6117  0.4465
 6766TIP3   OH241788   4.614   0.895  11.770 -0.1840 -0.5475  0.4244
 6766TIP3    H141789   4.618   0.929  11.860 -1.5295 -1.2778  0.7912
 6766TIP3    H241790   4.632   0.801  11.779  1.3403 -0.3432 -0.2987
 6767TIP3   OH241791   3.899   6.724  15.509  0.0056 -0.1542 -0.2616
 6767TIP3    H141792   3.876   6.632  15.521 -0.5220 -0.0796 -0.6662
 6767TIP3    H241793   3.836   6.757  15.444  0.0095  0.5580  0.0790
 6768TIP3   OH241794   2.621   1.189  11.895 -0.2186 -0.3901  0.0171
 6768TIP3    H141795   2.604   1.281  11.873  1.1619 -0.0082  0.4649
 6768TIP3    H241796   2.633   1.189  11.990 -1.3642 -1.2457  0.1891
 6769TIP3   OH241797   1.109   3.763   6.014 -0.0453  0.0672  0.6066
 6769TIP3    H141798   1.118   3.733   5.923  0.0201 -0.1117  0.6717
 6769TIP3    H241799   1.040   3.708   6.050  1.0781 -1.0254  1.1590
 6770TIP3   OH241800   6.382   0.871  14.736 -0.8194 -0.3862  0.4124
 6770TIP3    H141801   6.433   0.937  14.782  0.8214 -0.4650 -1.1782
 6770TIP3    H241802   6.322   0.836  14.802  0.3352  0.5904  2.0360
 6771TIP3   OH241803   4.376   0.082  14.160 -0.4349 -0.6808  0.0150
 6771TIP3    H141804   4.462   0.106  14.193  0.2400 -0.7811 -1.5807
 6771TIP3    H241805   4.340   0.024  14.227 -0.0999  0.8803  1.6226
 6772TIP3   OH241806   2.161   4.646  11.472 -0.3410  0.2073  0.0322
 6772TIP3    H141807   2.085   4.601  11.435 -0.1137 -2.5542  2.5948
 6772TIP3    H241808   2.140   4.739  11.461 -2.7800 -0.4376 -1.8026
 6773TIP3   OH241809   1.772   3.842   2.490 -0.0738  0.4017 -0.1164
 6773TIP3    H141810   1.798   3.846   2.398 -1.6700  0.8810 -0.5693
 6773TIP3    H241811   1.684   3.804   2.489  0.7159 -1.6821  1.4107
 6774TIP3   OH241812   3.450   5.826   5.697  0.1655 -0.4693  0.4663
 6774TIP3    H141813   3.490   5.832   5.784  0.9613 -1.7167  0.2214
 6774TIP3    H241814   3.523   5.838   5.637 -0.6164  2.0314 -0.1191
 6775TIP3   OH241815   1.530   0.435  12.029 -0.0531  0.2788 -0.4148
 6775TIP3    H141816   1.507   0.527  12.012 -1.8226 -0.3246 -1.4932
 6775TIP3    H241817   1.576   0.407  11.950 -0.8966 -0.1823 -0.7552
 6776TIP3   OH241818   1.223   5.080  12.509  0.1865  0.1181  1.0671
 6776TIP3    H141819   1.139   5.037  12.520 -0.8275  1.6651 -0.2351
 6776TIP3    H241820   1.283   5.010  12.483 -1.3933 -0.5890 -0.9315
 6777TIP3   OH241821   2.031   0.706  15.352 -0.0321  0.3106 -0.2007
 6777TIP3    H141822   2.114   0.753  15.347  2.2540 -3.3041  0.1690
 6777TIP3    H241823   2.005   0.713  15.443  0.8767 -0.0016  0.0954
 6778TIP3   OH241824   4.471   2.618  15.874  0.0936  0.0256 -0.7000
 6778TIP3    H141825   4.501   2.533  15.908 -0.0220 -0.0541 -0.7966
 6778TIP3    H241826   4.375   2.611  15.874  0.0351  0.5506  0.3091
 6779TIP3   OH241827   6.211   0.990  10.939  0.3324  0.1525 -0.7499
 6779TIP3    H141828   6.209   0.957  10.849 -1.4094  1.5438 -1.2800
 6779TIP3    H241829   6.256   1.074  10.933  0.9361 -0.1248 -0.1710
 6780TIP3   OH241830   6.477   2.446  12.195  0.0622 -0.1104 -0.4864
 6780TIP3    H141831   6.563   2.469  12.231  0.9949 -3.2833 -0.3915
 6780TIP3    H241832   6.424   2.424  12.271 -0.6875  1.2214 -0.5918
 6781TIP3   OH241833   5.653   0.308   6.174  0.1643 -0.3429 -0.3349
 6781TIP3    H141834   5.724   0.363   6.206 -0.2565  0.3025 -0.4656
 6781TIP3    H241835   5.635   0.342   6.086 -1.7031  0.9409  0.4709
 6782TIP3   OH241836   2.119   0.015  13.953  0.1683  0.0841 -0.0365
 6782TIP3    H141837   2.154  -0.038  13.881  1.4913  1.1202 -0.1822
 6782TIP3    H241838   2.150  -0.029  14.032  0.4712  0.1110 -0.1387
 6783TIP3   OH241839   1.158   0.278   0.922 -0.4439 -0.5036  0.7657
 6783TIP3    H141840   1.221   0.209   0.900  0.7840  0.3946  1.3694
 6783TIP3    H241841   1.073   0.243   0.892  0.4132 -1.4601 -0.6917
 6784TIP3   OH241842   2.640   6.157   2.274  0.0279  0.0449  0.4512
 6784TIP3    H141843   2.666   6.068   2.251 -0.3999  0.0509 -0.0612
 6784TIP3    H241844   2.555   6.169   2.232 -1.4837 -0.4411  3.1404
 6785TIP3   OH241845   5.479   2.234  16.811  0.1205  0.6755  0.3835
 6785TIP3    H141846   5.502   2.289  16.736 -2.4795  1.1625 -0.1556
 6785TIP3    H241847   5.508   2.284  16.887 -2.1338  2.9308 -0.0902
 6786TIP3   OH241848   0.365   5.640   3.680  0.6834  0.1471 -0.5024
 6786TIP3    H141849   0.345   5.730   3.656 -1.8352  0.1446  1.1749
 6786TIP3    H241850   0.399   5.646   3.770 -0.7381 -0.6334  0.1175
 6787TIP3   OH241851   5.703   5.403  16.229 -0.2465 -0.2589 -0.0554
 6787TIP3    H141852   5.698   5.480  16.171  1.7589  1.0822  1.4097
 6787TIP3    H241853   5.650   5.427  16.305 -0.0711 -0.5787  0.1678
 6788TIP3   OH241854   4.290   5.743  14.051 -0.3804  0.7684 -0.0002
 6788TIP3    H141855   4.344   5.668  14.029 -0.3370  0.4193  1.1887
 6788TIP3    H241856   4.201   5.708  14.055 -0.2419  0.5129  1.5670
 6789TIP3   OH241857   0.944   0.470  15.175  0.8799  0.5057  0.0897
 6789TIP3    H141858   0.958   0.534  15.245  0.7681  0.3983  0.2123
 6789TIP3    H241859   1.022   0.413  15.178  0.8271  0.4381  0.1961
 6790TIP3   OH241860   5.338   6.746  13.066  0.0320 -0.2602 -0.4313
 6790TIP3    H141861   5.244   6.766  13.059  0.0008  0.0065  0.5747
 6790TIP3    H241862   5.348   6.710  13.154  1.2129  1.6671  0.2902
 6791TIP3   OH241863   2.913   1.282   3.428 -0.0349 -0.2822 -0.2955
 6791TIP3    H141864   2.945   1.196   3.403 -1.7802 -1.2086  0.4828
 6791TIP3    H241865   2.825   1.266   3.463 -0.1433  1.7216  0.5011
 6792TIP3   OH241866   3.055   4.167   5.638 -0.1763  0.1878 -0.0753
 6792TIP3    H141867   2.983   4.169   5.701 -0.0256 -0.8981  0.1484
 6792TIP3    H241868   3.111   4.240   5.664  0.6127 -1.0610  1.9608
 6793TIP3   OH241869   4.321   0.966   2.756 -0.6060  0.3559  0.0365
 6793TIP3    H141870   4.282   0.948   2.842  2.6225 -1.6362  1.3028
 6793TIP3    H241871   4.392   0.902   2.749  0.3055  1.5421 -3.4393
 6794TIP3   OH241872   3.733   6.101   3.352  0.2106 -0.0039 -0.2881
 6794TIP3    H141873   3.673   6.027   3.341  1.5239 -1.1538 -0.0336
 6794TIP3    H241874   3.737   6.142   3.266  1.4967 -1.8840 -1.2016
 6795TIP3   OH241875   4.836   4.132   6.166  0.0214  0.5789 -0.8295
 6795TIP3    H141876   4.756   4.138   6.113  0.6657  0.2546 -1.8759
 6795TIP3    H241877   4.907   4.148   6.104  0.7492  1.6473  0.2410
 6796TIP3   OH241878   4.153   2.742  16.927  0.1899 -0.7384  0.0011
 6796TIP3    H141879   4.182   2.653  16.943  1.4649 -0.3173  0.1372
 6796TIP3    H241880   4.221   2.780  16.872 -1.0077 -0.2457 -1.2265
 6797TIP3   OH241881   4.657   5.405   5.888 -0.0376 -0.2007 -0.5331
 6797TIP3    H141882   4.665   5.343   5.961 -2.0813  0.2545  0.1533
 6797TIP3    H241883   4.727   5.468   5.903  1.7476 -2.0069 -0.9469
 6798TIP3   OH241884   2.697   4.147   2.565 -0.4058  0.0212 -0.4055
 6798TIP3    H141885   2.638   4.192   2.625  1.3055  0.2181  1.2269
 6798TIP3    H241886   2.716   4.063   2.608  0.9230  0.2014 -0.6014
 6799TIP3   OH241887   3.634   1.883   0.367 -0.3503  0.3607 -0.2455
 6799TIP3    H141888   3.678   1.945   0.425 -2.0716  0.3182  1.1933
 6799TIP3    H241889   3.624   1.804   0.419 -0.9787 -0.0492 -0.9716
 6800TIP3   OH241890   3.214   6.684   3.861 -0.3420  0.1647  0.2760
 6800TIP3    H141891   3.211   6.714   3.771 -2.1628  1.5938  0.7595
 6800TIP3    H241892   3.221   6.589   3.855 -1.1785  0.1813 -1.3760
 6801TIP3   OH241893   1.808   4.966  12.364  0.4363  0.5457  0.2624
 6801TIP3    H141894   1.756   5.027  12.312 -0.4522  1.1258  1.7855
 6801TIP3    H241895   1.865   4.923  12.300 -0.9252  0.9032 -1.2493
 6802TIP3   OH241896   2.222   1.114  11.901 -0.4246 -0.2403 -0.5458
 6802TIP3    H141897   2.217   1.150  11.990 -1.9174 -2.1765  0.2209
 6802TIP3    H241898   2.187   1.184  11.845 -0.6133  0.5605  0.5407
 6803TIP3   OH241899   3.395   0.279  16.208  0.0262  0.0790 -0.5104
 6803TIP3    H141900   3.432   0.195  16.181  0.1362  0.7340 -2.5679
 6803TIP3    H241901   3.391   0.274  16.303 -0.8966 -2.6345 -0.6068
 6804TIP3   OH241902   3.599   1.705   4.075 -0.5829  0.1368  0.0920
 6804TIP3    H141903   3.571   1.621   4.040 -1.2106 -0.0208  0.9241
 6804TIP3    H241904   3.541   1.769   4.033 -1.7320 -0.1107  1.2234
 6805TIP3   OH241905   1.351   5.468   1.558 -0.2823 -0.1410 -0.4867
 6805TIP3    H141906   1.301   5.541   1.522  1.4515  0.4962 -1.7794
 6805TIP3    H241907   1.394   5.428   1.481  0.9528 -0.7995  0.4960
 6806TIP3   OH241908   5.635   2.042   1.674  0.0090 -0.1213 -0.0175
 6806TIP3    H141909   5.718   2.006   1.704 -0.0628  0.6941  1.1990
 6806TIP3    H241910   5.658   2.097   1.599  0.8325  1.5553  1.4241
 6807TIP3   OH241911   5.929   6.122  15.703 -0.2086  0.1369  0.3418
 6807TIP3    H141912   5.853   6.175  15.726 -1.4888 -1.4026 -0.1154
 6807TIP3    H241913   5.938   6.131  15.608 -1.3785 -1.5621  0.0235
 6808TIP3   OH241914   6.197   3.983   2.025  0.0067 -0.1408  0.3945
 6808TIP3    H141915   6.254   4.016   1.956 -0.2392 -0.0706  0.2253
 6808TIP3    H241916   6.217   3.890   2.030  0.8448  0.0537  1.0053
 6809TIP3   OH241917   6.332   5.460   6.039  0.1849 -0.1395 -0.6039
 6809TIP3    H141918   6.388   5.435   6.113  0.6742  1.1354 -0.5177
 6809TIP3    H241919   6.362   5.405   5.966 -0.0351 -1.1244  0.0230
 6810TIP3   OH241920   3.362   1.082   3.883  0.1961  0.2016 -0.4554
 6810TIP3    H141921   3.329   1.148   3.821  1.6266  0.1115 -1.3796
 6810TIP3    H241922   3.347   0.998   3.839  0.2147  0.0620 -0.1946
 6811TIP3   OH241923   4.645   5.623   3.260  0.2902 -0.3256  0.1121
 6811TIP3    H141924   4.637   5.718   3.267  0.8009 -0.0954 -1.8977
 6811TIP3    H241925   4.571   5.597   3.206 -0.6157 -1.2804  1.7450
 6812TIP3   OH241926   4.656   0.042   1.790  0.4943  0.2107  0.3750
 6812TIP3    H141927   4.752   0.048   1.798  0.7678 -0.9000 -1.3189
 6812TIP3    H241928   4.626   0.020   1.878  1.8276  0.3159  0.8866
 6813TIP3   OH241929   4.912   4.033   0.902 -0.2415  0.3726 -0.6089
 6813TIP3    H141930   4.896   4.041   0.808  2.0367  1.2216 -0.9986
 6813TIP3    H241931   4.958   3.949   0.912 -1.6945 -0.3813 -0.0314
 6814TIP3   OH241932   6.652   0.658  15.217  0.3154 -1.0823 -0.7209
 6814TIP3    H141933   6.594   0.706  15.277 -1.1187 -2.2274 -1.1327
 6814TIP3    H241934   6.731   0.711  15.213 -1.1713  1.2616 -1.1283
 6815TIP3   OH241935   6.149   3.565  14.866  0.6236 -0.2551 -0.1542
 6815TIP3    H141936   6.157   3.483  14.817  0.4646 -0.0632 -0.4977
 6815TIP3    H241937   6.153   3.634  14.800  1.2108  0.0406  0.1726
 6816TIP3   OH241938   4.584   0.785   6.784 -0.2560  1.1277  0.6173
 6816TIP3    H141939   4.632   0.702   6.785  0.6812  1.6439  1.6735
 6816TIP3    H241940   4.493   0.761   6.794 -0.3801  0.0629 -2.1016
 6817TIP3   OH241941   2.917   4.918  11.022  0.3406  0.2765  0.5268
 6817TIP3    H141942   3.012   4.925  11.026  0.2783  0.6040  2.2080
 6817TIP3    H241943   2.900   4.854  10.954  1.8690 -1.4379  1.6730
 6818TIP3   OH241944   5.891   3.213  14.899  0.2451  0.5505 -0.1145
 6818TIP3    H141945   5.897   3.261  14.982  1.8682  1.2265 -0.5955
 6818TIP3    H241946   5.947   3.136  14.912  1.0206  0.9889 -0.7881
 6819TIP3   OH241947   5.363   2.090  17.175 -0.2638 -0.5323  0.3764
 6819TIP3    H141948   5.346   2.176  17.215  0.6298  0.4105 -1.1447
 6819TIP3    H241949   5.291   2.035  17.205 -1.2890  0.9626  0.8036
 6820TIP3   OH241950   2.581   2.360  12.332 -0.1098  0.3076  0.2553
 6820TIP3    H141951   2.601   2.276  12.290  1.0333  1.1888 -1.0267
 6820TIP3    H241952   2.504   2.341  12.386 -1.4019 -0.9891 -1.8841
 6821TIP3   OH241953   1.451   5.766   2.042  0.4224 -0.0630 -0.5130
 6821TIP3    H141954   1.404   5.731   1.966 -3.0907  0.2552  1.3224
 6821TIP3    H241955   1.465   5.689   2.097  1.1444  0.0313 -0.5554
 6822TIP3   OH241956   0.994   4.801   3.882 -0.4944 -0.1704  0.0990
 6822TIP3    H141957   1.075   4.853   3.885 -0.8584  0.4800 -0.7334
 6822TIP3    H241958   0.925   4.866   3.868 -1.0022 -0.8512 -0.6230
 6823TIP3   OH241959   2.423   4.894   5.927 -0.3791 -0.2856 -0.1018
 6823TIP3    H141960   2.346   4.840   5.912 -1.4219  1.3826 -1.1390
 6823TIP3    H241961   2.388   4.983   5.939  1.3944  0.5982 -1.0502
 6824TIP3   OH241962   1.726   2.999  16.693  0.1093  0.0813  0.2603
 6824TIP3    H141963   1.699   3.090  16.682 -2.8351 -0.7418 -0.2264
 6824TIP3    H241964   1.790   3.001  16.764  1.9038  2.7537 -1.2675
 6825TIP3   OH241965   4.093   0.961  11.023  0.6956 -0.1358  0.0514
 6825TIP3    H141966   4.163   0.972  10.959 -0.1632 -0.5117 -0.9784
 6825TIP3    H241967   4.105   0.873  11.057  1.6358  0.3464  1.0272
 6826TIP3   OH241968   5.523   2.316  13.209 -0.1230  0.1868 -0.3849
 6826TIP3    H141969   5.474   2.258  13.151  1.4726 -0.4694 -1.1342
 6826TIP3    H241970   5.560   2.383  13.151 -0.1142  0.6668  0.1609
 6827TIP3   OH241971   2.353   5.057   6.251  0.2849  0.2980 -0.2776
 6827TIP3    H141972   2.273   5.075   6.301 -0.9684 -1.2279 -1.6433
 6827TIP3    H241973   2.401   4.995   6.305 -0.7946 -0.9083 -0.6504
 6828TIP3   OH241974   3.656   5.353  14.465 -0.1949  0.0883  0.1199
 6828TIP3    H141975   3.658   5.266  14.424 -1.9474 -0.2696  0.7099
 6828TIP3    H241976   3.678   5.413  14.393  2.1024 -0.8682 -0.0530
 6829TIP3   OH241977   1.950   0.250   6.017  0.1068 -0.2869 -0.5038
 6829TIP3    H141978   2.029   0.285   6.058  0.4462 -0.3005 -1.1321
 6829TIP3    H241979   1.969   0.157   6.003  0.1560 -0.2014 -1.0479
 6830TIP3   OH241980   4.517   3.659   2.890  0.2285 -0.3602 -0.2971
 6830TIP3    H141981   4.538   3.584   2.834 -0.0808  0.4284 -1.4843
 6830TIP3    H241982   4.603   3.688   2.922  0.4694 -0.4407 -0.8521
 6831TIP3   OH241983   5.943   4.577  11.739  0.1545 -0.3298  0.6346
 6831TIP3    H141984   5.941   4.671  11.725 -0.1435 -0.3307  0.6549
 6831TIP3    H241985   5.862   4.558  11.786 -0.2512 -0.7133 -0.1823
 6832TIP3   OH241986   2.480   2.582  10.729  0.0925 -0.1261 -0.0607
 6832TIP3    H141987   2.568   2.571  10.763 -0.0470  2.6925  1.5080
 6832TIP3    H241988   2.423   2.547  10.797 -0.0627  0.3760  0.0690
 6833TIP3   OH241989   2.266   1.802   2.810 -0.2897 -0.4824  0.0437
 6833TIP3    H141990   2.277   1.765   2.898 -1.3186 -1.0558 -0.0501
 6833TIP3    H241991   2.354   1.828   2.784  0.2328 -1.4609  0.7418
 6834TIP3   OH241992   2.148   5.066   1.661  0.0918 -0.4001 -0.6448
 6834TIP3    H141993   2.175   5.123   1.733  0.0369 -0.5911 -0.4714
 6834TIP3    H241994   2.198   5.096   1.585  1.1757 -1.0835 -0.2151
 6835TIP3   OH241995   4.151   5.087   1.274  0.2207 -0.2232  0.1843
 6835TIP3    H141996   4.126   5.091   1.182  2.5987 -1.8272 -0.6314
 6835TIP3    H241997   4.207   5.163   1.287 -1.6965  1.1524  0.9480
 6836TIP3   OH241998   1.587   1.805   5.896 -0.2510 -0.0973 -0.3994
 6836TIP3    H141999   1.659   1.771   5.843  0.2263 -1.7253  1.1865
 6836TIP3    H242000   1.519   1.737   5.888 -0.5936  0.1777  0.1795
 6837TIP3   OH242001   5.566   5.104  12.832  0.0691 -0.3530 -0.6362
 6837TIP3    H142002   5.546   5.011  12.843  1.7232 -0.9477 -2.1936
 6837TIP3    H242003   5.659   5.106  12.812 -0.1561  1.5567 -1.7131
 6838TIP3   OH242004   1.607   0.340   5.180 -0.7030 -0.5641 -0.1553
 6838TIP3    H142005   1.553   0.363   5.103  0.4621  1.0297 -0.5505
 6838TIP3    H242006   1.638   0.251   5.161 -1.2239 -0.5733 -1.0578
 6839TIP3   OH242007   6.705   1.338   0.430  0.2077 -1.3557  0.6017
 6839TIP3    H142008   6.627   1.356   0.481  0.3655  0.5350  0.2592
 6839TIP3    H242009   6.705   1.404   0.361  0.9744 -2.6805 -0.7358
 6840TIP3   OH242010   3.277   4.998  11.554  0.1332  0.2725 -0.3997
 6840TIP3    H142011   3.267   4.911  11.592  0.5571  1.1771  1.9670
 6840TIP3    H242012   3.192   5.016  11.513  0.6604 -1.9699 -2.7458
 6841TIP3   OH242013   0.802   1.299   2.116 -0.2749 -0.1348 -0.0636
 6841TIP3    H142014   0.780   1.215   2.156 -0.5818 -0.2483 -0.4588
 6841TIP3    H242015   0.844   1.275   2.033 -1.3928  0.0941 -0.7234
 6842TIP3   OH242016   1.019   2.780  16.464  0.2339  0.7338 -0.0896
 6842TIP3    H142017   0.987   2.690  16.462  0.2926  0.7315 -0.9106
 6842TIP3    H242018   1.112   2.774  16.440 -0.1163  1.1598 -1.6598
 6843TIP3   OH242019   4.929   2.415  11.586  0.5093 -0.1828  0.1204
 6843TIP3    H142020   5.017   2.376  11.590  0.8048  0.5387  1.5551
 6843TIP3    H242021   4.935   2.491  11.645 -1.5148 -1.0312  1.5251
 6844TIP3   OH242022   6.006   0.187  12.467  0.1611 -0.1878  0.0129
 6844TIP3    H142023   5.918   0.224  12.458  0.0373 -0.2806  0.7895
 6844TIP3    H242024   6.005   0.109  12.411 -0.1013  0.0615 -0.3366
 6845TIP3   OH242025   2.163   1.456  12.805 -0.5547  0.3528 -0.0784
 6845TIP3    H142026   2.139   1.388  12.868  0.2368  1.0078  0.9646
 6845TIP3    H242027   2.143   1.538  12.850  1.4145  0.8640 -0.0756
 6846TIP3   OH242028   2.982   3.009  15.892 -0.1351 -0.4273  0.3213
 6846TIP3    H142029   2.903   3.061  15.879 -0.5153 -0.7463  1.2665
 6846TIP3    H242030   2.997   2.967  15.807 -0.6360  0.1014 -0.0388
 6847TIP3   OH242031   0.694   4.471  16.132  0.1872  0.0769  0.2839
 6847TIP3    H142032   0.680   4.473  16.038  1.3032 -0.8951  0.0737
 6847TIP3    H242033   0.664   4.385  16.160  0.0058  0.3007  0.7931
 6848TIP3   OH242034   3.846   2.438   3.364 -0.7601  0.4422  0.7148
 6848TIP3    H142035   3.765   2.484   3.387  0.2443  2.5897  0.2568
 6848TIP3    H242036   3.817   2.352   3.335 -3.0980  1.7681 -1.2906
 6849TIP3   OH242037   0.825   1.525  15.356 -0.1915  0.4093  0.5831
 6849TIP3    H142038   0.906   1.547  15.309  0.5364  0.6186  1.8893
 6849TIP3    H242039   0.756   1.536  15.291  0.9669 -1.4373 -1.0698
 6850TIP3   OH242040   2.434   3.874   2.750  0.0716  0.4010  0.0866
 6850TIP3    H142041   2.423   3.955   2.801 -0.7414  1.4012 -1.5645
 6850TIP3    H242042   2.510   3.891   2.694  0.1651 -0.1479  0.0479
 6851TIP3   OH242043   0.774   4.112  11.877 -0.0341 -0.1418 -0.1590
 6851TIP3    H142044   0.837   4.050  11.841  0.8025  1.1575 -1.0097
 6851TIP3    H242045   0.728   4.063  11.945 -0.8458 -2.3242 -2.1680
 6852TIP3   OH242046   1.043   2.037  12.170 -0.6339 -1.2466  0.0092
 6852TIP3    H142047   0.978   2.101  12.198  1.6694  0.1200  2.7039
 6852TIP3    H242048   1.007   1.952  12.197 -1.5689 -0.5963  0.8304
 6853TIP3   OH242049   2.625   6.039   4.022  0.4100  0.6139 -0.2938
 6853TIP3    H142050   2.679   6.043   4.101  0.3683 -0.3030 -0.2107
 6853TIP3    H242051   2.557   6.105   4.036  0.9287  1.0845  0.0367
 6854TIP3   OH242052   2.061   2.925  11.635 -0.0391  0.7163 -0.0693
 6854TIP3    H142053   1.997   2.914  11.706  1.3028 -1.1160  0.9428
 6854TIP3    H242054   2.049   3.015  11.606 -1.5719  1.1069  1.5765
 6855TIP3   OH242055   0.151   3.668   2.883 -0.2590  0.0996 -0.2786
 6855TIP3    H142056   0.107   3.657   2.968  2.9836  3.4652  2.1655
 6855TIP3    H242057   0.088   3.715   2.829 -2.0332 -1.1565  0.5983
 6856TIP3   OH242058   6.541   3.357  15.467  0.1274  0.9716  0.6674
 6856TIP3    H142059   6.634   3.381  15.469  0.3510  0.3018 -0.7160
 6856TIP3    H242060   6.504   3.409  15.396 -0.0352 -0.4254 -0.3221
 6857TIP3   OH242061   0.689   0.470   1.287 -0.3871 -0.2309  0.3305
 6857TIP3    H142062   0.731   0.393   1.249 -0.0276  0.2652 -0.2884
 6857TIP3    H242063   0.605   0.477   1.241 -0.4235 -0.2518  0.3927
 6858TIP3   OH242064   2.018   2.472   3.909  0.0723  0.8378 -0.1205
 6858TIP3    H142065   1.933   2.433   3.887 -0.7104  2.5635 -0.3669
 6858TIP3    H242066   2.067   2.468   3.827  1.1995 -2.2869  0.5736
 6859TIP3   OH242067   1.735   4.676   0.282  0.2208  0.0725  0.8979
 6859TIP3    H142068   1.730   4.599   0.225  2.0669 -0.0040  0.7553
 6859TIP3    H242069   1.741   4.640   0.370  2.1172 -0.0579  0.7665
 6860TIP3   OH242070   3.265   0.741  13.734  0.1827 -0.5253 -0.0246
 6860TIP3    H142071   3.297   0.687  13.806  0.3653  0.5809  0.7329
 6860TIP3    H242072   3.341   0.792  13.706 -0.3335  0.3873  0.2128
 6861TIP3   OH242073   6.098   2.410   1.423  0.4269  0.7112 -0.5339
 6861TIP3    H142074   6.073   2.325   1.460  1.1958  0.6921 -0.0274
 6861TIP3    H242075   6.161   2.387   1.353  0.6697  0.8623 -0.3658
 6862TIP3   OH242076   3.231   4.784   3.681 -0.6446  0.0072 -0.4295
 6862TIP3    H142077   3.281   4.861   3.709  0.4766 -0.1906 -1.7642
 6862TIP3    H242078   3.216   4.798   3.588 -0.3422 -1.4132 -0.7136
 6863TIP3   OH242079   0.994   3.821   1.109  0.1979 -0.0227  0.4001
 6863TIP3    H142080   1.026   3.900   1.065 -1.0032 -0.8473 -2.1454
 6863TIP3    H242081   0.899   3.831   1.110  0.0692 -1.1553  0.6133
 6864TIP3   OH242082   4.852   4.030  15.358 -0.2309  0.7813  0.0368
 6864TIP3    H142083   4.845   4.092  15.431 -0.0321  1.1649 -0.2670
 6864TIP3    H242084   4.887   3.951  15.399  1.8060  1.6158  0.0516
 6865TIP3   OH242085   1.002   6.369   3.052 -0.0929 -0.3854  0.0812
 6865TIP3    H142086   0.995   6.454   3.095 -0.8101  0.2600 -1.2644
 6865TIP3    H242087   1.074   6.379   2.990 -0.7814 -0.4423 -0.7446
 6866TIP3   OH242088   5.988   6.662   0.841 -0.3657  0.5923 -0.0981
 6866TIP3    H142089   6.026   6.705   0.764 -1.1043  0.6941 -0.4098
 6866TIP3    H242090   6.060   6.659   0.904  0.4610 -0.1587 -1.0477
 6867TIP3   OH242091   1.036   5.635   2.004 -0.5465  0.9790 -0.6996
 6867TIP3    H142092   1.061   5.717   2.048 -0.0056 -0.1221  1.1307
 6867TIP3    H242093   0.947   5.617   2.035 -0.3637  0.4678 -0.4634
 6868TIP3   OH242094   6.122   4.353  16.890 -0.0464 -0.1775 -0.5918
 6868TIP3    H142095   6.030   4.346  16.915  0.0226 -3.0647 -0.8287
 6868TIP3    H242096   6.170   4.319  16.966  0.6700 -0.7899 -1.3005
 6869TIP3   OH242097   2.302   5.880  11.357 -0.2918  0.4201 -0.2963
 6869TIP3    H142098   2.316   5.945  11.426 -1.1513  1.4627 -1.0707
 6869TIP3    H242099   2.334   5.923  11.277 -1.3286  0.0883 -0.9044
 6870TIP3   OH242100   1.082   3.156   1.445  0.0188  0.4597 -0.1296
 6870TIP3    H142101   1.040   3.072   1.462  1.1603 -0.3113 -0.9104
 6870TIP3    H242102   1.053   3.180   1.357  0.2820  0.4852 -0.2127
 6871TIP3   OH242103   0.207   4.231   5.698 -0.3675  0.0676 -0.5544
 6871TIP3    H142104   0.286   4.237   5.645  0.2474  0.9381  0.4152
 6871TIP3    H242105   0.136   4.215   5.635  0.6345 -1.2876 -1.3839
 6872TIP3   OH242106   1.250   6.150  11.950 -0.3060  0.5088 -0.3142
 6872TIP3    H142107   1.290   6.214  12.009  1.0111 -0.6173  0.0747
 6872TIP3    H242108   1.250   6.069  12.000 -1.2204  0.0267 -1.0842
 6873TIP3   OH242109   1.793   3.556  16.771 -0.4728  0.0593 -0.5534
 6873TIP3    H142110   1.781   3.620  16.841  0.5250 -0.3487  0.0038
 6873TIP3    H242111   1.775   3.604  16.690  0.6234  1.1399 -0.1699
 6874TIP3   OH242112   2.545   3.806  12.818 -0.0884 -0.5733  0.0837
 6874TIP3    H142113   2.617   3.766  12.770  0.8204 -1.6271  2.2152
 6874TIP3    H242114   2.548   3.899  12.794  0.1990 -1.0748 -1.9624
 6875TIP3   OH242115   3.212   6.612  14.731 -0.1000  0.1576  0.0623
 6875TIP3    H142116   3.299   6.626  14.694 -0.6335 -0.4117 -1.5054
 6875TIP3    H242117   3.183   6.529  14.692 -1.7603  0.8773 -0.3073
 6876TIP3   OH242118   2.070   5.104  10.664  0.3950  0.1558  0.1086
 6876TIP3    H142119   2.154   5.126  10.705 -0.3888  1.3920  1.1346
 6876TIP3    H242120   2.051   5.180  10.608 -1.3857  1.2977  2.1210
 6877TIP3   OH242121   6.487   0.004  13.545  0.1146 -0.1911  0.0810
 6877TIP3    H142122   6.399  -0.025  13.520 -0.2502 -0.2518  1.3319
 6877TIP3    H242123   6.542  -0.074  13.534  0.0235 -0.1459 -0.7313
 6878TIP3   OH242124   3.265   3.790   3.360 -0.1309 -0.1657 -0.0352
 6878TIP3    H142125   3.277   3.854   3.290 -0.3718 -0.2924 -0.1963
 6878TIP3    H242126   3.266   3.705   3.315  1.4800 -0.3640  0.3317
 6879TIP3   OH242127   5.767   6.037  10.813 -0.3745  0.3458  0.3852
 6879TIP3    H142128   5.803   6.114  10.857  0.2806 -0.7492  1.8586
 6879TIP3    H242129   5.837   6.006  10.755 -1.2486  1.8065 -1.5643
 6880TIP3   OH242130   6.562   3.483   2.797 -0.2218  0.0003  0.4671
 6880TIP3    H142131   6.654   3.464   2.777  0.0980  0.1355  1.7150
 6880TIP3    H242132   6.523   3.398   2.814 -0.7178 -0.2079 -1.4796
 6881TIP3   OH242133   2.435   5.216   5.336 -0.1619 -0.4370 -0.3865
 6881TIP3    H142134   2.345   5.198   5.311 -0.1819  0.6593 -1.1920
 6881TIP3    H242135   2.471   5.131   5.359 -1.4663 -0.8555  0.1888
 6882TIP3   OH242136   1.699   5.851  17.248  0.5092 -0.2902 -0.6010
 6882TIP3    H142137   1.737   5.887  17.327 -0.1391  0.6042 -0.6727
 6882TIP3    H242138   1.628   5.794  17.279 -0.8977  1.4100 -0.5320
 6883TIP3   OH242139   0.401   4.153  13.990  0.6470  0.1367  0.0464
 6883TIP3    H142140   0.305   4.154  13.992  0.6214  0.4995 -0.8857
 6883TIP3    H242141   0.422   4.062  13.967  0.5456 -0.0603  0.7138
 6884TIP3   OH242142   2.469   6.296  12.680 -0.4015  0.3023  0.7740
 6884TIP3    H142143   2.551   6.256  12.650 -0.4427  0.3557  0.5906
 6884TIP3    H242144   2.444   6.355  12.609 -0.5130  0.4084  0.9031
 6885TIP3   OH242145   5.765   5.555   0.709  0.0063 -0.6968  0.1824
 6885TIP3    H142146   5.671   5.556   0.695 -0.2751  0.0899  1.8722
 6885TIP3    H242147   5.798   5.633   0.663 -0.1253 -1.0758 -0.5646
 6886TIP3   OH242148   0.031   4.297  15.690 -0.6663 -0.5343  0.1764
 6886TIP3    H142149   0.086   4.330  15.618  0.2627 -1.7234  0.3047
 6886TIP3    H242150  -0.039   4.362  15.699  0.8104  1.1584  0.1191
 6887TIP3   OH242151   4.949   2.501   2.374 -0.3888 -0.8770 -0.4224
 6887TIP3    H142152   4.976   2.493   2.282 -1.1032  0.2432 -0.7524
 6887TIP3    H242153   4.878   2.565   2.372 -1.1526 -1.6528  0.7830
 6888TIP3   OH242154   6.428   2.581  15.800  0.0742 -0.4596 -0.1980
 6888TIP3    H142155   6.483   2.659  15.806 -0.0738  0.0878 -3.6820
 6888TIP3    H242156   6.489   2.510  15.779 -0.1471 -0.6089 -0.3427
 6889TIP3   OH242157   5.412   3.246  13.756  0.3277  0.2846  0.4807
 6889TIP3    H142158   5.444   3.235  13.667  0.6510 -0.9175  0.7242
 6889TIP3    H242159   5.379   3.160  13.781 -1.0175  0.9264  1.0566
 6890TIP3   OH242160   5.374   0.737   4.780  0.7609 -0.3725  0.0805
 6890TIP3    H142161   5.321   0.697   4.710 -1.1390 -0.8695  1.7099
 6890TIP3    H242162   5.410   0.816   4.740 -0.0124 -0.7934 -1.5543
 6891TIP3   OH242163   2.227   0.476  16.057 -0.3760 -0.2152 -0.0974
 6891TIP3    H142164   2.172   0.534  16.004  1.4526 -0.5923 -2.6281
 6891TIP3    H242165   2.307   0.526  16.073 -1.2278  0.2783  3.3877
 6892TIP3   OH242166   2.772   5.583   3.417  0.5800  0.1200 -0.1118
 6892TIP3    H142167   2.787   5.676   3.433  2.6892 -0.0689 -0.6465
 6892TIP3    H242168   2.860   5.544   3.413 -0.2564 -2.1671  1.4782
 6893TIP3   OH242169   6.047   2.496   0.896  0.0027 -0.5618 -0.2459
 6893TIP3    H142170   5.996   2.497   0.816  1.2491 -0.6930 -1.0717
 6893TIP3    H242171   6.114   2.429   0.882  2.1002  1.4139 -0.3410
 6894TIP3   OH242172   4.033   0.384   2.497 -0.1041  0.3168  0.7718
 6894TIP3    H142173   4.125   0.364   2.515 -0.1753  0.6078  1.4869
 6894TIP3    H242174   3.991   0.383   2.583 -0.9535 -0.7011  0.3630
 6895TIP3   OH242175   3.860   0.203  13.285  0.0421  0.1152  0.0511
 6895TIP3    H142176   3.910   0.177  13.362 -0.3669  1.5453  0.8452
 6895TIP3    H242177   3.798   0.132  13.271  1.9952 -1.5258 -0.7411
 6896TIP3   OH242178   0.649   1.718  10.878  0.3024  0.4521 -0.1156
 6896TIP3    H142179   0.745   1.715  10.880  0.4258  2.1519 -1.2447
 6896TIP3    H242180   0.627   1.702  10.786 -0.5506 -0.6056  0.2624
 6897TIP3   OH242181   4.785   4.763   2.686  0.2430 -0.2414  0.6414
 6897TIP3    H142182   4.695   4.794   2.676  0.7051  1.9579  2.5052
 6897TIP3    H242183   4.778   4.685   2.741 -0.5426 -0.2133  0.5851
 6898TIP3   OH242184   5.018   3.882   2.971  0.3891  0.4297  0.5857
 6898TIP3    H142185   4.994   3.807   3.026 -0.4836  0.7650  0.6734
 6898TIP3    H242186   4.982   3.860   2.885  0.8109  0.3995  0.4141
 6899TIP3   OH242187   1.726   1.017   0.446  0.7863 -0.2548  0.0943
 6899TIP3    H142188   1.737   1.097   0.394 -0.4617 -0.6486 -0.8296
 6899TIP3    H242189   1.741   1.045   0.536  2.7981  0.4853 -0.4170
 6900TIP3   OH242190   5.672   1.051  14.192 -0.3944 -1.1330 -0.1706
 6900TIP3    H142191   5.607   1.012  14.250 -0.4289 -0.7100  0.0818
 6900TIP3    H242192   5.753   1.004  14.212  0.3724  1.0918  2.5674
 6901TIP3   OH242193   1.823   5.532  11.266  0.5696 -1.3004 -0.8935
 6901TIP3    H142194   1.741   5.483  11.257 -0.5322  0.3491 -0.3034
 6901TIP3    H242195   1.864   5.496  11.345 -1.3350  0.1371  0.8706
 6902TIP3   OH242196   2.138   4.984  16.049 -0.2395  0.2203  0.4705
 6902TIP3    H142197   2.159   4.946  15.964  0.6676  1.4267  0.1397
 6902TIP3    H242198   2.098   4.912  16.097 -0.8812 -0.4506 -1.0066
 6903TIP3   OH242199   2.421   4.468   6.098  0.0510 -0.0319 -0.1355
 6903TIP3    H142200   2.367   4.509   6.031 -1.7699 -0.0578  1.2388
 6903TIP3    H242201   2.493   4.530   6.112 -0.9517  1.2154 -0.3033
 6904TIP3   OH242202   4.634   2.855  15.120 -0.0275 -0.6546  0.3446
 6904TIP3    H142203   4.680   2.779  15.083 -0.0157 -1.3744  1.7578
 6904TIP3    H242204   4.581   2.818  15.191 -1.6615  0.3737 -0.2843
 6905TIP3   OH242205   5.227   6.464  17.380 -0.3784  0.3872  0.5872
 6905TIP3    H142206   5.175   6.448  17.459 -0.4302  0.8634  0.6535
 6905TIP3    H242207   5.207   6.390  17.323  0.3515 -0.4411  1.3628
 6906TIP3   OH242208   5.836   5.088   4.456 -0.4601 -0.1724  0.7726
 6906TIP3    H142209   5.833   5.156   4.524 -0.8596  0.1756  0.4110
 6906TIP3    H242210   5.855   5.007   4.504 -0.9985  0.0268  1.3364
 6907TIP3   OH242211   5.689   3.982  16.323 -0.2454 -0.2104  0.6044
 6907TIP3    H142212   5.699   3.919  16.395 -1.8134  0.0745  1.1117
 6907TIP3    H242213   5.603   4.022  16.338 -0.3018  0.3647 -1.0384
 6908TIP3   OH242214   6.550   1.547   3.526 -0.5424  0.0537  0.0870
 6908TIP3    H142215   6.523   1.623   3.577 -0.5865  0.2192 -0.1804
 6908TIP3    H242216   6.477   1.485   3.534 -0.1670 -0.2946  0.9679
 6909TIP3   OH242217   6.670   4.478  17.086 -0.2275  0.1342 -0.4689
 6909TIP3    H142218   6.735   4.409  17.103 -0.0959  0.0920 -1.1446
 6909TIP3    H242219   6.590   4.430  17.066 -1.1929  0.1304  2.7670
 6910TIP3   OH242220   4.025   1.982   2.291 -0.0916 -0.0333  0.5314
 6910TIP3    H142221   4.044   2.073   2.267 -1.7015  0.0118 -0.6706
 6910TIP3    H242222   4.101   1.933   2.260 -0.5018  0.5251 -1.4528
 6911TIP3   OH242223   1.615   0.739   2.460 -0.3573  0.0583  0.9515
 6911TIP3    H142224   1.698   0.737   2.508 -0.3243 -1.0044  0.8776
 6911TIP3    H242225   1.565   0.810   2.501  0.4261  0.4432  1.2590
 6912TIP3   OH242226   0.612   0.302   2.694  0.3598 -0.0126  0.4257
 6912TIP3    H142227   0.694   0.351   2.689  0.9836 -0.8451  1.9322
 6912TIP3    H242228   0.639   0.210   2.697 -0.6202 -0.2981  0.9136
 6913TIP3   OH242229   2.041   5.398   0.736 -0.0119 -0.7563  0.8454
 6913TIP3    H142230   2.004   5.471   0.787  0.4801 -1.9456  2.9986
 6913TIP3    H242231   1.978   5.385   0.666 -0.1657  1.6655  0.4382
 6914TIP3   OH242232   2.861   4.961   5.324 -0.0412 -0.5366  0.1448
 6914TIP3    H142233   2.893   4.876   5.294 -2.4471 -1.9208  1.1999
 6914TIP3    H242234   2.853   4.952   5.419 -0.9842  0.6262  0.2035
 6915TIP3   OH242235   5.281   5.503   6.281  0.2084  0.7559 -0.3340
 6915TIP3    H142236   5.305   5.504   6.374 -0.1882 -1.1853 -0.1592
 6915TIP3    H242237   5.361   5.475   6.236 -0.8486 -3.6579  0.0486
 6916TIP3   OH242238   4.364   5.797  12.739  0.2295 -0.6536  0.3078
 6916TIP3    H142239   4.315   5.812  12.659 -0.6854  1.5626  1.2179
 6916TIP3    H242240   4.454   5.822  12.717  0.3951 -1.9081 -0.5301
 6917TIP3   OH242241   3.066   2.136   3.887  0.0832  0.0333 -0.0411
 6917TIP3    H142242   2.985   2.188   3.884  0.4322  0.5496 -0.8442
 6917TIP3    H242243   3.133   2.195   3.853  1.4721  0.7749  3.4967
 6918TIP3   OH242244   2.703   4.146  13.137 -0.2958 -0.3286  0.3827
 6918TIP3    H142245   2.742   4.092  13.206  0.0229  1.3475  1.5765
 6918TIP3    H242246   2.773   4.157  13.072 -0.2259 -0.9626  0.3472
 6919TIP3   OH242247   1.501   4.758   3.062  0.3854 -0.5159  0.0141
 6919TIP3    H142248   1.528   4.705   3.136 -0.1540 -2.9483 -1.4225
 6919TIP3    H242249   1.470   4.840   3.101  2.4391 -0.6871  2.2386
 6920TIP3   OH242250   5.882   3.154  17.133  0.3742 -0.5499  0.0122
 6920TIP3    H142251   5.923   3.240  17.143  0.9190 -0.8566  0.4181
 6920TIP3    H242252   5.802   3.172  17.084  1.2761 -0.0088 -1.3372
 6921TIP3   OH242253   3.953   4.378  12.345  0.2224 -0.3997  0.1323
 6921TIP3    H142254   3.869   4.393  12.388  0.8010  2.2297  0.5068
 6921TIP3    H242255   3.944   4.419  12.259  0.9463 -0.5781 -0.0377
 6922TIP3   OH242256   2.200   0.470   1.130 -0.0874  0.0938 -0.1607
 6922TIP3    H142257   2.145   0.393   1.146  0.3001 -0.1010  0.2457
 6922TIP3    H242258   2.233   0.457   1.041 -1.4316  0.6757 -0.7778
 6923TIP3   OH242259   3.738   0.633  12.409 -0.6636  0.5446 -0.1604
 6923TIP3    H142260   3.799   0.681  12.353  0.3819 -0.7200 -0.1467
 6923TIP3    H242261   3.712   0.557  12.357  0.4708 -0.7549  1.0644
 6924TIP3   OH242262   4.771   2.571   3.115  0.7515 -0.1045 -0.1480
 6924TIP3    H142263   4.753   2.665   3.116 -0.3821 -0.2822  1.7726
 6924TIP3    H242264   4.768   2.547   3.023 -0.1898  1.5140 -0.5834
 6925TIP3   OH242265   6.170   0.982   4.619 -0.0078  0.3392 -0.4237
 6925TIP3    H142266   6.228   1.035   4.673 -1.8125  1.8961  0.1304
 6925TIP3    H242267   6.190   1.009   4.529  0.2597  0.7260 -0.2516
 6926TIP3   OH242268   1.902   3.488   4.990 -0.2306  0.1645  0.7998
 6926TIP3    H142269   1.963   3.560   4.973  0.2919  0.0122  1.9376
 6926TIP3    H242270   1.879   3.497   5.083  0.1681 -1.3704  1.0726
 6927TIP3   OH242271   5.206   6.336  12.217 -0.1094 -0.1384 -0.1922
 6927TIP3    H142272   5.160   6.354  12.135 -1.5539 -0.3148  0.5460
 6927TIP3    H242273   5.262   6.411  12.230  0.7305 -0.4627 -1.7285
 6928TIP3   OH242274   1.750   4.158  12.678  0.2907 -0.0449 -0.2647
 6928TIP3    H142275   1.765   4.210  12.756 -1.8421 -0.7852  0.6930
 6928TIP3    H242276   1.832   4.166  12.628  0.6135  2.8733  0.5734
 6929TIP3   OH242277   5.596   3.535   3.452  0.0852 -0.6470  0.3629
 6929TIP3    H142278   5.522   3.489   3.412  0.3145 -0.1171 -0.6870
 6929TIP3    H242279   5.579   3.627   3.433 -1.2506 -0.0194  3.8225
 6930TIP3   OH242280   6.423   3.636   2.625 -0.4233  0.2113 -0.2656
 6930TIP3    H142281   6.439   3.718   2.672  1.9847  0.4934 -1.4500
 6930TIP3    H242282   6.467   3.570   2.677 -0.5848 -0.0078 -0.4071
 6931TIP3   OH242283   3.556   2.713   3.735 -0.2985  0.5976 -0.2070
 6931TIP3    H142284   3.636   2.752   3.699 -0.5076  0.7476 -0.5187
 6931TIP3    H242285   3.577   2.695   3.826 -0.4900  2.3197  0.2090
 6932TIP3   OH242286   0.392   1.775   4.841 -0.1965  0.9533  0.0270
 6932TIP3    H142287   0.383   1.807   4.931 -0.2463  1.7568 -0.2580
 6932TIP3    H242288   0.384   1.854   4.786  0.0617  0.5047 -0.6687
 6933TIP3   OH242289   6.274   1.674   4.265 -0.5916  0.3595 -0.3517
 6933TIP3    H142290   6.289   1.732   4.340  2.6761 -1.1289  0.3560
 6933TIP3    H242291   6.316   1.720   4.192 -0.0559 -0.0469 -0.3034
 6934TIP3   OH242292   5.270   2.660   0.614 -0.4224  0.4905 -0.1817
 6934TIP3    H142293   5.218   2.739   0.623 -4.8797 -2.3047  2.2722
 6934TIP3    H242294   5.313   2.649   0.699 -0.5955 -0.2205 -0.1830
 6935TIP3   OH242295   3.206   2.976  13.424 -0.6046  0.4224 -0.3958
 6935TIP3    H142296   3.128   2.966  13.477 -1.0627 -0.6442 -1.2170
 6935TIP3    H242297   3.254   3.049  13.463 -2.3535  1.5778 -0.3042
 6936TIP3   OH242298   4.948   6.431   3.963 -0.1217  0.6907  0.0630
 6936TIP3    H142299   4.953   6.524   3.987 -0.9326  1.1823 -1.4852
 6936TIP3    H242300   4.938   6.432   3.867  3.4201 -1.1248 -0.4886
 6937TIP3   OH242301   6.708   0.604  12.264 -0.2690  0.4576 -0.1839
 6937TIP3    H142302   6.803   0.608  12.267 -0.2589  0.3548 -0.3658
 6937TIP3    H242303   6.688   0.535  12.201 -0.4631 -0.0290  0.3973
 6938TIP3   OH242304   0.497   1.260  10.893  0.4794 -0.3166  0.0814
 6938TIP3    H142305   0.528   1.171  10.910  0.9194 -0.1768  0.0327
 6938TIP3    H242306   0.571   1.316  10.916 -0.0613  0.0958  0.8736
 6939TIP3   OH242307   3.021   2.340   5.418  0.1381  0.1890  0.0536
 6939TIP3    H142308   3.082   2.401   5.460 -0.7974  0.1977  1.4674
 6939TIP3    H242309   3.020   2.367   5.326 -1.5516  3.5624  0.8773
 6940TIP3   OH242310   0.892   3.829  16.025  0.4769  0.8880 -0.7687
 6940TIP3    H142311   0.912   3.909  15.977  0.2230  1.8825  0.7161
 6940TIP3    H242312   0.896   3.855  16.117 -3.3751  0.1749 -0.2520
 6941TIP3   OH242313   5.300   1.287  15.826 -0.5082  0.0480  0.4707
 6941TIP3    H142314   5.263   1.248  15.905  0.2299  1.6868  1.6929
 6941TIP3    H242315   5.392   1.304  15.849  0.2320 -1.0796 -1.4012
 6942TIP3   OH242316   0.583   2.367  17.299 -0.3255 -0.2434  1.0490
 6942TIP3    H142317   0.633   2.348  17.378  0.6679 -3.5747 -0.2001
 6942TIP3    H242318   0.527   2.291  17.286 -2.1043  1.1905 -0.3217
 6943TIP3   OH242319   4.277   4.255  16.082  0.2555 -0.8372 -0.1774
 6943TIP3    H142320   4.306   4.164  16.073 -0.4448 -1.0596 -0.2211
 6943TIP3    H242321   4.182   4.249  16.091  0.4075 -0.3279  2.7593
 6944TIP3   OH242322   6.151   2.719  16.261  0.0032  0.0811 -0.0153
 6944TIP3    H142323   6.232   2.745  16.304 -0.3204 -0.8751  1.2264
 6944TIP3    H242324   6.177   2.700  16.171  0.4973  3.1514 -0.6361
 6945TIP3   OH242325   2.700   4.181  14.214 -0.9017  0.2878 -0.1565
 6945TIP3    H142326   2.712   4.091  14.184  0.5111  0.5958 -0.6434
 6945TIP3    H242327   2.655   4.174  14.298  0.3531 -0.9800  0.4572
 6946TIP3   OH242328   0.301   2.056  13.976 -0.1375  0.4026  0.4191
 6946TIP3    H142329   0.297   2.136  14.029 -1.4468  1.1994 -0.7926
 6946TIP3    H242330   0.278   2.086  13.887 -2.0365 -1.5194  0.1745
 6947TIP3   OH242331   6.264   1.269  13.141 -0.6954  0.8620 -0.0382
 6947TIP3    H142332   6.240   1.254  13.232  0.2085  1.3502  0.2928
 6947TIP3    H242333   6.212   1.346  13.116 -1.8539  0.0133 -0.3253
 6948TIP3   OH242334   2.046   3.033  12.122  0.0391  0.1852 -0.2622
 6948TIP3    H142335   2.126   2.986  12.145  2.0400  3.4118  0.0686
 6948TIP3    H242336   1.988   3.021  12.197  2.1574  1.5337  1.7378
 6949TIP3   OH242337   1.476   2.964  16.422 -0.1312 -0.4429  0.1817
 6949TIP3    H142338   1.562   2.998  16.446 -0.3698  1.2584 -1.1768
 6949TIP3    H242339   1.445   3.023  16.353 -1.8612 -1.7511 -0.2317
 6950TIP3   OH242340   1.253   2.574  12.967  0.8067  0.3140  1.0107
 6950TIP3    H142341   1.234   2.653  12.916  2.8078  0.5635  0.5548
 6950TIP3    H242342   1.281   2.510  12.902  2.2964  0.2746  1.6441
 6951TIP3   OH242343   5.989   0.455  14.951  0.1857  0.7733  0.4301
 6951TIP3    H142344   6.013   0.378  15.003 -1.5089  0.2305  0.4836
 6951TIP3    H242345   6.033   0.443  14.867 -0.1554 -0.3254  0.3962
 6952TIP3   OH242346   1.931   5.911   5.528  0.1989  0.6838 -0.3382
 6952TIP3    H142347   1.924   5.977   5.459 -1.3041  0.8042 -0.1004
 6952TIP3    H242348   1.852   5.858   5.518  1.0464 -0.6835 -0.0945
 6953TIP3   OH242349   3.670   4.603  16.383  0.0556  0.0347  0.1159
 6953TIP3    H142350   3.590   4.586  16.433  0.1270 -2.5587 -0.4806
 6953TIP3    H242351   3.663   4.694  16.355 -2.3433  0.0691  0.6655
 6954TIP3   OH242352   3.845   0.902  14.627 -0.3052 -0.1219  0.2854
 6954TIP3    H142353   3.790   0.933  14.699  0.4549  0.0293  0.8160
 6954TIP3    H242354   3.930   0.944  14.643 -0.9063  2.4149 -2.3968
 6955TIP3   OH242355   1.221   1.726  12.329  0.0337 -0.1620  0.2868
 6955TIP3    H142356   1.293   1.789  12.337  0.6674 -0.8565  0.1251
 6955TIP3    H242357   1.145   1.780  12.311  0.3397  0.6708  1.3333
 6956TIP3   OH242358   5.158   2.445  17.317 -0.3350 -0.3857 -0.3430
 6956TIP3    H142359   5.151   2.480  17.406  1.2193  0.1118 -0.3882
 6956TIP3    H242360   5.071   2.410  17.298 -0.9611  0.3646  1.0091
 6957TIP3   OH242361   5.758   3.619  13.232  0.4125  0.6926 -0.1575
 6957TIP3    H142362   5.734   3.552  13.169  1.1931  0.7241 -0.4946
 6957TIP3    H242363   5.814   3.574  13.295 -1.6448  0.2574  1.4762
 6958TIP3   OH242364   3.183   4.525   2.115 -0.2048  0.3062  0.4062
 6958TIP3    H142365   3.279   4.523   2.114 -0.1879  0.1307  1.4755
 6958TIP3    H242366   3.160   4.592   2.050  0.6655  0.9292  0.7243
 6959TIP3   OH242367   5.697   0.077   5.383 -0.1023 -0.0731  0.0647
 6959TIP3    H142368   5.667   0.071   5.292 -0.2536  0.3656  0.0845
 6959TIP3    H242369   5.790   0.054   5.379 -0.0618  0.1363 -0.2265
 6960TIP3   OH242370   4.085   4.948   0.556  0.0245 -0.8712 -0.0780
 6960TIP3    H142371   4.059   4.953   0.648  0.0623 -0.4393 -0.0848
 6960TIP3    H242372   4.120   5.036   0.537  0.9314 -1.2517 -0.2267
 6961TIP3   OH242373   4.598   6.351   2.448  0.8331 -0.0925 -0.2217
 6961TIP3    H142374   4.574   6.390   2.532 -1.2936  0.5726 -1.0600
 6961TIP3    H242375   4.694   6.357   2.445  0.8109  1.9699  1.1715
 6962TIP3   OH242376   3.786   5.952  13.920 -0.1909  0.2313 -0.5227
 6962TIP3    H142377   3.806   6.035  13.877  0.5070 -0.3934 -1.4257
 6962TIP3    H242378   3.693   5.958  13.941  0.2018  1.9592  1.0219
 6963TIP3   OH242379   5.157   4.818  12.853  0.5445  0.1687 -0.6058
 6963TIP3    H142380   5.157   4.815  12.758  2.0643 -0.9560 -0.6063
 6963TIP3    H242381   5.249   4.825  12.877  0.6383 -3.3614  0.7840
 6964TIP3   OH242382   4.642   1.160  13.616  0.5037 -0.4661  0.0824
 6964TIP3    H142383   4.716   1.183  13.672 -1.2850  0.5483  2.1910
 6964TIP3    H242384   4.618   1.242  13.573  0.0518 -0.5854  0.1078
 6965TIP3   OH242385   3.291   2.825  15.146 -0.1533  0.3156  0.0758
 6965TIP3    H142386   3.320   2.744  15.188  0.8456 -0.6300 -2.2036
 6965TIP3    H242387   3.365   2.884  15.155 -0.1998  0.3465  0.2454
 6966TIP3   OH242388   5.037   1.299  16.543 -0.4514 -0.2640  0.4292
 6966TIP3    H142389   5.006   1.208  16.550 -1.1339 -0.1231 -0.4921
 6966TIP3    H242390   4.971   1.342  16.488 -0.5488  0.9860  1.4858
 6967TIP3   OH242391   6.647   1.999   1.481 -0.3888 -0.2643 -0.3412
 6967TIP3    H142392   6.724   1.957   1.520  0.4647  1.3810 -0.1687
 6967TIP3    H242393   6.650   2.089   1.513 -1.8305  0.1112 -1.1625
 6968TIP3   OH242394   4.294   5.619  12.944  0.4237  0.0018  0.1919
 6968TIP3    H142395   4.295   5.698  12.890 -0.5493  0.6814  1.1228
 6968TIP3    H242396   4.363   5.563  12.907 -0.8085  0.0167 -2.3269
 6969TIP3   OH242397   3.602   5.505  15.162  0.1648  0.3395 -0.1982
 6969TIP3    H142398   3.510   5.526  15.179  0.5496  1.4603  0.6474
 6969TIP3    H242399   3.599   5.426  15.108 -1.3076  0.8004 -0.8497
 6970TIP3   OH242400   2.855   5.703   5.765 -0.0328 -0.1930 -0.1791
 6970TIP3    H142401   2.841   5.658   5.681  1.4855 -1.5444  0.2379
 6970TIP3    H242402   2.782   5.675   5.820 -0.0937 -0.6881 -0.5065
 6971TIP3   OH242403   2.452   2.241  10.904  0.1063  0.1750  0.0521
 6971TIP3    H142404   2.391   2.281  10.841 -1.0924  0.5378  1.3847
 6971TIP3    H242405   2.487   2.165  10.858 -0.8711  0.3222 -0.9915
 6972TIP3   OH242406   4.473   4.910  13.882 -0.0346  0.3825  0.4232
 6972TIP3    H142407   4.436   4.998  13.887 -1.1231 -0.0940  1.2766
 6972TIP3    H242408   4.532   4.905  13.957  3.0480  1.6382 -1.7280
 6973TIP3   OH242409   0.250   2.305  11.823 -0.0791 -0.5342 -0.2788
 6973TIP3    H142410   0.211   2.293  11.910 -0.5947 -3.4265 -0.7980
 6973TIP3    H242411   0.331   2.254  11.826  0.3605  0.0948 -1.2060
 6974TIP3   OH242412   3.624   2.554   0.807  0.2705  0.1175 -0.5540
 6974TIP3    H142413   3.695   2.554   0.744  1.5958  0.0852  0.8832
 6974TIP3    H242414   3.623   2.466   0.844 -0.8345 -0.0281 -0.8806
 6975TIP3   OH242415   2.854   6.235   3.003  0.3367  0.4642  0.2432
 6975TIP3    H142416   2.844   6.290   2.925 -0.6958 -0.0703 -0.0217
 6975TIP3    H242417   2.765   6.229   3.039  0.3810 -1.2665  0.1062
 6976TIP3   OH242418   1.218   0.149  17.055  0.6386  0.4474  0.1426
 6976TIP3    H142419   1.191   0.237  17.081  1.3283  0.5218  0.6318
 6976TIP3    H242420   1.312   0.147  17.073  0.7820 -0.1148 -0.6360
 6977TIP3   OH242421   5.469   3.710  11.331 -0.2841 -0.3770 -0.0469
 6977TIP3    H142422   5.513   3.682  11.412 -1.0064 -0.5427  0.2936
 6977TIP3    H242423   5.503   3.798  11.315 -1.1195  0.1882  1.1710
 6978TIP3   OH242424   6.243   5.369   2.429 -0.5198  0.0214 -0.9070
 6978TIP3    H142425   6.332   5.370   2.463 -0.8925 -1.0133  0.1947
 6978TIP3    H242426   6.253   5.377   2.334  0.6453  1.3873 -0.6941
 6979TIP3   OH242427   2.307   3.593  17.238 -0.7947 -0.1035  0.0194
 6979TIP3    H142428   2.227   3.638  17.212 -0.3676  0.6550 -0.0249
 6979TIP3    H242429   2.372   3.620  17.172 -0.5141 -0.7515  0.0192
 6980TIP3   OH242430   6.778   5.017  11.173 -0.3079  0.1580  0.2955
 6980TIP3    H142431   6.871   4.997  11.167 -0.6566 -2.3255  1.7311
 6980TIP3    H242432   6.745   4.957  11.240 -2.7160  1.8430  0.7438
 6981TIP3   OH242433   3.744   1.410  15.835 -0.1311 -0.0617 -0.1566
 6981TIP3    H142434   3.791   1.418  15.752 -1.4945 -1.4750 -1.1246
 6981TIP3    H242435   3.662   1.457  15.821 -0.4517 -0.4665  0.3143
 6982TIP3   OH242436   6.564   1.881   3.011 -0.4565 -0.5854 -0.6117
 6982TIP3    H142437   6.595   1.861   2.922  2.4564  0.5861  0.0259
 6982TIP3    H242438   6.548   1.976   3.009 -0.9098 -0.6471 -0.0134
 6983TIP3   OH242439   4.644   3.242   2.431 -0.6993 -0.1569  0.0096
 6983TIP3    H142440   4.634   3.313   2.368  0.5063 -0.4874 -0.5786
 6983TIP3    H242441   4.736   3.216   2.425 -0.7710 -0.8004  1.2656
 6984TIP3   OH242442   1.688   6.621   3.817 -0.1359 -0.6557  0.8964
 6984TIP3    H142443   1.593   6.606   3.821 -0.9724  3.3872  0.1952
 6984TIP3    H242444   1.706   6.635   3.724  1.2274 -1.5338  1.0037
 6985TIP3   OH242445   3.652   5.105  13.579 -0.0414 -0.3534  0.6195
 6985TIP3    H142446   3.597   5.046  13.527 -0.1066  1.3259 -1.3262
 6985TIP3    H242447   3.594   5.134  13.650 -0.5764 -1.1610  0.5365
 6986TIP3   OH242448   6.699   1.143   3.820 -0.3276 -0.0023  0.0922
 6986TIP3    H142449   6.761   1.216   3.814  1.1309 -1.1204  0.9349
 6986TIP3    H242450   6.670   1.129   3.729  1.9348 -0.4842 -0.6349
 6987TIP3   OH242451   5.589   5.845   1.938  0.2600 -0.1035 -0.2047
 6987TIP3    H142452   5.639   5.790   1.878 -1.8911 -1.8254 -0.5960
 6987TIP3    H242453   5.583   5.930   1.895  2.8543  0.2037 -0.0664
 6988TIP3   OH242454   6.746   3.611   1.762  0.6712 -0.2235 -0.0213
 6988TIP3    H142455   6.783   3.637   1.677  1.2809  0.9413  0.5758
 6988TIP3    H242456   6.651   3.604   1.745  1.0052 -2.5820 -1.4017
 6989TIP3   OH242457   1.666   3.299  12.141 -0.0180 -0.0873  1.0583
 6989TIP3    H142458   1.683   3.267  12.229  0.7922 -1.9302  0.2888
 6989TIP3    H242459   1.751   3.332  12.110  0.3449 -1.7541  0.1281
 6990TIP3   OH242460   6.472   6.250   1.217 -0.3814 -0.4438  0.0073
 6990TIP3    H142461   6.547   6.310   1.216 -0.5918 -0.1583  0.9679
 6990TIP3    H242462   6.401   6.299   1.175  0.3474 -1.2609 -2.3317
 6991TIP3   OH242463   3.926   2.718   1.955  0.4703 -0.6625  0.0443
 6991TIP3    H142464   3.900   2.796   1.906  1.7993 -1.1288 -1.4735
 6991TIP3    H242465   3.920   2.745   2.047 -0.5191  0.7394 -0.3895
 6992TIP3   OH242466   2.117   5.518  10.983 -0.0090 -0.0217  0.2475
 6992TIP3    H142467   2.049   5.467  10.940  1.1313 -1.0386 -0.4160
 6992TIP3    H242468   2.070   5.581  11.037 -1.4551 -1.3512  0.5844
 6993TIP3   OH242469   1.015   4.485   4.624 -0.0428 -0.5951  0.4856
 6993TIP3    H142470   0.961   4.419   4.583 -0.3473 -0.3453  0.4793
 6993TIP3    H242471   0.968   4.567   4.609  1.1252 -0.1429 -0.9364
 6994TIP3   OH242472   3.536   2.290  15.349 -0.7053  0.1107 -0.4252
 6994TIP3    H142473   3.574   2.362  15.299 -0.7694 -0.6636 -1.6242
 6994TIP3    H242474   3.535   2.322  15.439 -1.3185  1.8550 -1.0076
 6995TIP3   OH242475   3.792   1.067   2.814  0.2689  0.0760  0.3000
 6995TIP3    H142476   3.850   1.132   2.855 -0.0438  0.4922  0.0872
 6995TIP3    H242477   3.707   1.110   2.809  0.5102  0.3965 -1.6409
 6996TIP3   OH242478   2.859   1.896  15.830  0.7282  0.4232 -0.2056
 6996TIP3    H142479   2.837   1.985  15.802  1.3290  0.3976 -0.7714
 6996TIP3    H242480   2.778   1.847  15.819 -0.1168  1.2552  1.7168
 6997TIP3   OH242481   0.431   1.998  13.581 -0.5491 -0.2306  0.1681
 6997TIP3    H142482   0.452   1.926  13.641 -0.3565  0.6549  1.2009
 6997TIP3    H242483   0.466   1.970  13.497  0.1162 -1.0543  0.7004
 6998TIP3   OH242484   6.199   5.996  13.605  0.1542  0.0430  0.1724
 6998TIP3    H142485   6.248   5.979  13.525  0.5525  2.0232 -0.0504
 6998TIP3    H242486   6.112   5.961  13.588  1.0927 -2.5614  0.1745
 6999TIP3   OH242487   2.881   2.585  14.881 -0.4480 -0.1644 -0.1439
 6999TIP3    H142488   2.871   2.660  14.939 -2.2681  1.1084 -1.9348
 6999TIP3    H242489   2.854   2.510  14.933 -0.6026  0.7176  1.0851
 7000TIP3   OH242490   0.105   6.334  17.112  0.6806 -0.1479 -0.0862
 7000TIP3    H142491   0.076   6.399  17.176  1.0258  0.5946 -0.6685
 7000TIP3    H242492   0.091   6.376  17.028  0.5757 -0.9780 -0.4927
 7001TIP3   OH242493   1.488   0.445   0.490 -0.4067 -0.0994 -0.3544
 7001TIP3    H142494   1.578   0.412   0.495 -0.7499 -1.0351 -0.2610
 7001TIP3    H242495   1.492   0.515   0.425  0.3755 -0.1733 -0.3980
 7002TIP3   OH242496   3.422   5.234   2.371 -0.2566  0.3265 -0.3015
 7002TIP3    H142497   3.417   5.196   2.284  0.6335  1.7956 -1.0464
 7002TIP3    H242498   3.501   5.196   2.410 -0.9394 -0.7220  0.0771
 7003TIP3   OH242499   4.587   5.599   1.913  0.9249 -0.5174  0.4156
 7003TIP3    H142500   4.620   5.524   1.864 -0.8133 -1.1307  0.1006
 7003TIP3    H242501   4.497   5.610   1.882  0.5108  0.4881  1.8657
 7004TIP3   OH242502   3.985   6.763   0.995 -0.0182  0.4415  0.4167
 7004TIP3    H142503   4.074   6.797   1.002 -0.1133  0.6630  0.5530
 7004TIP3    H242504   3.931   6.840   0.978 -0.2121  0.3370  0.5537
 7005TIP3   OH242505   3.026   1.932  11.600  0.1523 -0.0821 -0.1434
 7005TIP3    H142506   3.095   1.913  11.535  0.3836  1.0811 -0.2551
 7005TIP3    H242507   2.957   1.975  11.549 -0.5048 -0.9004  0.0408
 7006TIP3   OH242508   2.157   1.929   4.634  0.4325 -0.8364  0.3651
 7006TIP3    H142509   2.224   1.982   4.679 -1.4070  0.9155  1.2242
 7006TIP3    H242510   2.175   1.942   4.541  0.6649  0.5055  0.5685
 7007TIP3   OH242511   3.910   5.885  10.811 -0.6325 -0.2445 -0.4670
 7007TIP3    H142512   3.958   5.948  10.757 -1.3514 -0.0703 -0.9143
 7007TIP3    H242513   3.837   5.856  10.756 -1.0487 -0.4956  0.1984
 7008TIP3   OH242514   4.898   4.542  16.774  0.2555 -0.1959  0.0297
 7008TIP3    H142515   4.985   4.578  16.788  0.5366  0.3024 -2.6228
 7008TIP3    H242516   4.906   4.450  16.800  1.6136 -0.2037 -0.3534
 7009TIP3   OH242517   2.987   0.278   1.338 -0.2723  0.4313 -0.3587
 7009TIP3    H142518   2.994   0.324   1.254  1.2012  1.0571  0.0804
 7009TIP3    H242519   2.906   0.227   1.330 -1.4601  2.3418 -1.2258
 7010TIP3   OH242520   2.404   5.622  11.459 -0.3877  0.6800  0.0381
 7010TIP3    H142521   2.370   5.703  11.420 -0.2215  0.5027 -0.4879
 7010TIP3    H242522   2.387   5.555  11.392  1.2853  0.6453 -0.3785
 7011TIP3   OH242523   3.223   2.778   1.041  0.4641 -0.0500  0.0011
 7011TIP3    H142524   3.186   2.703   1.088  1.6154  0.4333  1.7932
 7011TIP3    H242525   3.314   2.752   1.022 -0.1729 -0.5480 -2.7837
 7012TIP3   OH242526   0.440   0.483  14.450 -0.6625 -0.5729  0.3715
 7012TIP3    H142527   0.445   0.435  14.367  0.0305 -0.6089  0.4282
 7012TIP3    H242528   0.495   0.434  14.510  0.5999  0.6308  0.2537
 7013TIP3   OH242529   1.994   0.755   1.566 -0.6111 -0.2602  0.0002
 7013TIP3    H142530   1.999   0.721   1.655 -0.3193  1.1395  0.5429
 7013TIP3    H242531   1.921   0.817   1.568 -1.3023 -1.0084 -1.0233
 7014TIP3   OH242532   4.457   4.006  11.879  0.0948  0.6332 -0.8652
 7014TIP3    H142533   4.461   3.999  11.784 -0.7600 -1.0395 -0.8213
 7014TIP3    H242534   4.392   3.941  11.905  0.6765  0.7043  0.9019
 7015TIP3   OH242535   1.485   2.636   5.567 -0.8198 -0.0519  0.6279
 7015TIP3    H142536   1.489   2.698   5.494 -0.0945  0.7309  1.3172
 7015TIP3    H242537   1.405   2.659   5.614 -0.3621  0.6401  1.0984
 7016TIP3   OH242538   4.601   1.570   1.682  0.6570 -0.4867  0.7527
 7016TIP3    H142539   4.670   1.508   1.704  0.3922 -1.4096 -0.8888
 7016TIP3    H242540   4.605   1.636   1.752  2.3159 -1.2144  1.3903
 7017TIP3   OH242541   0.170   5.030  13.240  0.0717 -0.5591  0.0565
 7017TIP3    H142542   0.217   4.979  13.306  2.4620  0.9484 -0.3959
 7017TIP3    H242543   0.227   5.030  13.164 -0.7449  1.1949 -0.5960
 7018TIP3   OH242544   0.839   1.890  14.728  0.4193 -0.2807  0.0541
 7018TIP3    H142545   0.798   1.858  14.648 -1.3140  0.1644  0.7302
 7018TIP3    H242546   0.933   1.884  14.711  0.2003 -3.5708 -0.7173
 7019TIP3   OH242547   1.273   2.942  13.138 -0.0504  0.1031  0.5562
 7019TIP3    H142548   1.307   3.010  13.195  0.5358  0.2816  0.0048
 7019TIP3    H242549   1.287   2.976  13.049  0.2335 -0.7242  0.2747
 7020TIP3   OH242550   2.970   6.467  17.137  0.5331 -0.1071  0.0205
 7020TIP3    H142551   2.968   6.560  17.158  0.4607  0.0658 -0.7278
 7020TIP3    H242552   3.051   6.435  17.178  1.0742  0.4929 -0.5591
 7021TIP3   OH242553   5.788   4.500  11.325 -0.3717 -0.0327 -0.2206
 7021TIP3    H142554   5.875   4.536  11.309  0.2288 -0.8076  1.1288
 7021TIP3    H242555   5.803   4.422  11.379 -1.7892 -1.0388 -1.1767
 7022TIP3   OH242556   2.770   0.366  15.700 -0.0948  0.1473 -0.0769
 7022TIP3    H142557   2.830   0.356  15.626 -1.4826 -1.7879 -1.0078
 7022TIP3    H242558   2.751   0.277  15.728  0.2821  0.8055  2.5938
 7023TIP3   OH242559   4.928   2.718  14.551 -0.0298  0.1564 -0.1714
 7023TIP3    H142560   4.967   2.749  14.633 -1.2289  0.1784  0.4139
 7023TIP3    H242561   4.858   2.780  14.533  0.9836  0.8661 -1.8953
 7024TIP3   OH242562   5.625   5.824   3.366  0.3727  0.0802 -0.0252
 7024TIP3    H142563   5.584   5.817   3.453 -0.8806  0.9459 -0.5051
 7024TIP3    H242564   5.718   5.833   3.384  0.7063 -3.6852  1.0850
 7025TIP3   OH242565   3.783   1.817  13.483  0.2930 -0.1037  0.0074
 7025TIP3    H142566   3.768   1.738  13.432  0.5128  0.2804 -0.6751
 7025TIP3    H242567   3.696   1.853  13.499  0.2775  1.7574 -3.3388
 7026TIP3   OH242568   2.123   3.888   3.834  0.2040  0.2907 -0.1873
 7026TIP3    H142569   2.099   3.820   3.897 -1.9643 -0.8178 -2.0737
 7026TIP3    H242570   2.192   3.848   3.781  1.1564  0.7696  0.6632
 7027TIP3   OH242571   1.878   4.240  15.742  0.3128 -0.2379 -0.3469
 7027TIP3    H142572   1.860   4.150  15.716 -2.0954 -0.4092  1.6112
 7027TIP3    H242573   1.934   4.232  15.819  0.8821 -0.0091 -0.7302
 7028TIP3   OH242574   4.024   6.639   4.198  0.5222 -0.5537  0.5427
 7028TIP3    H142575   3.993   6.620   4.110 -1.3052  2.1446  0.4808
 7028TIP3    H242576   4.115   6.609   4.199  0.2096 -1.7675 -1.8244
 7029TIP3   OH242577   4.938   5.289   4.409  0.5072  0.6063 -0.1184
 7029TIP3    H142578   4.967   5.316   4.322 -0.9520  1.3025 -0.4160
 7029TIP3    H242579   5.020   5.280   4.459  1.3070  1.2848 -1.2419
 7030TIP3   OH242580   4.698   1.014  16.852 -0.7390 -0.3673  0.4167
 7030TIP3    H142581   4.700   0.957  16.929  0.0713 -0.9079  0.0131
 7030TIP3    H242582   4.605   1.027  16.833 -0.9558 -0.1534  1.5297
 7031TIP3   OH242583   0.806   0.639  11.185 -0.4120 -0.1065 -0.1514
 7031TIP3    H142584   0.830   0.564  11.239 -2.3238 -0.4315  0.2939
 7031TIP3    H242585   0.803   0.604  11.096 -1.2193 -0.5572  0.0442
 7032TIP3   OH242586   4.039   3.019   6.209  0.7956  0.5248  0.4680
 7032TIP3    H142587   4.129   3.049   6.216  0.5146  1.8749 -1.0936
 7032TIP3    H242588   4.001   3.036   6.295  2.1314 -0.4906  1.2798
 7033TIP3   OH242589   5.721   0.381  14.985 -0.1502 -0.3599 -0.1732
 7033TIP3    H142590   5.694   0.473  14.984 -1.2435 -0.5989 -3.0418
 7033TIP3    H242591   5.815   0.384  14.966  0.3894  0.2003  2.3229
 7034TIP3   OH242592   3.409   4.199   1.108 -0.0303 -0.1711  0.3254
 7034TIP3    H142593   3.447   4.272   1.060 -1.8174  2.5394  2.6995
 7034TIP3    H242594   3.478   4.172   1.169 -0.1697  1.3994  1.2353
 7035TIP3   OH242595   4.159   2.069  11.240  0.6515 -0.0309  0.1373
 7035TIP3    H142596   4.234   2.126  11.255 -0.9299  2.4348 -0.7962
 7035TIP3    H242597   4.112   2.109  11.167 -2.4528 -0.5464  1.6709
 7036TIP3   OH242598   5.497   1.532  13.995 -0.2164  0.0115 -0.1038
 7036TIP3    H142599   5.437   1.510  14.067 -1.2058  0.0509 -0.8923
 7036TIP3    H242600   5.514   1.626  14.006  0.2922 -0.1516  0.5502
 7037TIP3   OH242601   4.854   5.904  16.669  0.3842 -0.0749  0.0049
 7037TIP3    H142602   4.906   5.851  16.607  0.4079 -0.3704  0.2749
 7037TIP3    H242603   4.778   5.932  16.618  0.1713 -0.6977 -0.0359
 7038TIP3   OH242604   2.847   2.958  16.376  0.4301  0.1839  0.1224
 7038TIP3    H142605   2.920   2.985  16.431  1.8092 -0.8729 -1.0957
 7038TIP3    H242606   2.775   3.016  16.401  1.3449  0.5200  2.1427
 7039TIP3   OH242607   3.729   3.821   3.087  0.5034 -0.0178  0.3673
 7039TIP3    H142608   3.663   3.786   3.028  0.3864  0.1670  0.3897
 7039TIP3    H242609   3.748   3.908   3.053  0.1914  0.2215  0.7988
 7040TIP3   OH242610   3.335   1.255   2.910  0.1454  0.1580  0.6572
 7040TIP3    H142611   3.320   1.310   2.987  1.4478  0.1998  0.8935
 7040TIP3    H242612   3.289   1.300   2.839 -1.0999  0.1062  1.3828
 7041TIP3   OH242613   5.981   6.635  16.390 -0.7670 -0.1609  0.6973
 7041TIP3    H142614   5.888   6.652  16.371 -1.1744  0.1145  2.6983
 7041TIP3    H242615   5.983   6.544  16.420 -0.4140 -0.1208  0.7916
 7042TIP3   OH242616   5.240   0.750  13.266  0.1134 -0.1621 -0.8327
 7042TIP3    H142617   5.168   0.745  13.203 -0.4375  1.5183 -0.3981
 7042TIP3    H242618   5.203   0.712  13.346 -1.0696  2.4792 -0.0167
 7043TIP3   OH242619   0.455   1.298   3.125 -0.2420  0.4240 -0.3890
 7043TIP3    H142620   0.485   1.319   3.036 -1.0849  1.9676 -0.3377
 7043TIP3    H242621   0.536   1.290   3.176  0.2049  1.1806 -0.9480
 7044TIP3   OH242622   1.516   6.757  16.112 -0.4263  0.3737 -0.2704
 7044TIP3    H142623   1.447   6.707  16.157  0.7892 -1.3155 -0.1769
 7044TIP3    H242624   1.538   6.827  16.173 -2.1419  1.0633 -0.3750
 7045TIP3   OH242625   0.749   4.406  15.010  0.3205 -0.0746  0.5703
 7045TIP3    H142626   0.688   4.359  15.067 -0.2639  0.2065  0.1849
 7045TIP3    H242627   0.818   4.438  15.069  0.8197 -1.5313  0.8227
 7046TIP3   OH242628   5.866   4.227   1.595 -0.3167  0.2452  0.4169
 7046TIP3    H142629   5.874   4.197   1.505 -2.6343  1.0933 -0.1361
 7046TIP3    H242630   5.852   4.321   1.588  0.6245  0.5188  1.7513
 7047TIP3   OH242631   6.116   3.759  15.095 -0.2994  0.2065  0.0718
 7047TIP3    H142632   6.193   3.805  15.128 -0.8191  1.6203 -0.5756
 7047TIP3    H242633   6.150   3.704  15.024  0.0532  1.3395 -0.6771
 7048TIP3   OH242634   1.329   0.641  12.446  0.5286 -0.3591 -0.2726
 7048TIP3    H142635   1.408   0.685  12.414  0.5029 -1.2284 -1.6070
 7048TIP3    H242636   1.326   0.559  12.396 -0.1347 -1.2759  1.2110
 7049TIP3   OH242637   5.656   3.102  16.312 -0.6929  0.8597 -0.3823
 7049TIP3    H142638   5.703   3.123  16.231  3.5340 -0.4614  1.4540
 7049TIP3    H242639   5.616   3.017  16.294 -0.7201  1.0637 -1.3816
 7050TIP3   OH242640   0.389   0.906  13.220 -0.8246  0.4669  0.2082
 7050TIP3    H142641   0.366   0.825  13.265 -1.1230  0.7834  0.6235
 7050TIP3    H242642   0.485   0.904  13.215 -0.7510  0.6560  1.2874
 7051TIP3   OH242643   1.563   2.673   4.517  0.0186 -0.0120  0.4723
 7051TIP3    H142644   1.479   2.643   4.481 -0.4170  1.3899  0.2448
 7051TIP3    H242645   1.620   2.679   4.440  0.2796 -0.7737  0.5990
 7052TIP3   OH242646   1.238   6.237  11.299  0.1622 -0.3649  0.0276
 7052TIP3    H142647   1.254   6.145  11.276  0.4577 -0.3509  0.1806
 7052TIP3    H242648   1.308   6.260  11.360  0.3516  0.0934 -0.3565
 7053TIP3   OH242649   0.024   4.317  12.007 -0.5218  0.1444 -0.6949
 7053TIP3    H142650   0.008   4.404  11.969 -0.2329  1.4645  1.9880
 7053TIP3    H242651  -0.039   4.310  12.079  1.8269 -0.2345  1.4796
 7054TIP3   OH242652   0.428   0.145  16.908 -0.6273 -0.6937  0.5639
 7054TIP3    H142653   0.498   0.179  16.963  0.5355 -2.5153  0.2940
 7054TIP3    H242654   0.469   0.074  16.858 -2.6350 -1.7772  0.3480
 7055TIP3   OH242655   6.381   1.469   1.372 -0.6761 -0.2501 -0.0149
 7055TIP3    H142656   6.393   1.551   1.420  1.3374 -0.8539  0.5977
 7055TIP3    H242657   6.319   1.419   1.425  0.4017 -0.3130  1.2516
 7056TIP3   OH242658   6.550   6.453   1.537  0.1470  0.3920  0.1467
 7056TIP3    H142659   6.456   6.453   1.522  0.2250  1.2751 -0.4476
 7056TIP3    H242660   6.588   6.476   1.451  0.8128  1.5001  0.7092
 7057TIP3   OH242661   2.443   0.074  13.953 -0.2647  0.3666  0.5537
 7057TIP3    H142662   2.435   0.146  14.016  2.2246  0.2726  1.0962
 7057TIP3    H242663   2.444  -0.005  14.006 -0.6348  0.0922  0.1595
 7058TIP3   OH242664   5.544   3.515   4.830  0.6143  0.0849  0.3841
 7058TIP3    H142665   5.619   3.470   4.790  1.4302  0.5643  1.3305
 7058TIP3    H242666   5.496   3.550   4.755  0.6136 -1.3089 -0.3151
 7059TIP3   OH242667   4.010   2.161  13.875 -0.2896 -0.0044 -0.1548
 7059TIP3    H142668   4.042   2.215  13.802  1.0672 -0.1665  0.3116
 7059TIP3    H242669   4.021   2.071  13.844 -1.7631 -0.0617 -0.5933
 7060TIP3   OH242670   6.644   0.151  13.734 -0.2739  0.4558 -0.1198
 7060TIP3    H142671   6.621   0.111  13.818  0.0681  0.8283  0.1561
 7060TIP3    H242672   6.584   0.111  13.671  0.1185 -0.5532  0.1286
 7061TIP3   OH242673   4.276   1.957  13.774 -0.6773 -0.0423  0.1272
 7061TIP3    H142674   4.322   1.941  13.857 -0.9523 -2.7476 -0.1472
 7061TIP3    H242675   4.347   1.975  13.711 -0.4047  1.0847  0.7311
 7062TIP3   OH242676   6.366   3.207  15.204 -0.1920 -0.0342 -0.0446
 7062TIP3    H142677   6.339   3.288  15.159 -1.6678 -0.9258 -0.8363
 7062TIP3    H242678   6.390   3.148  15.133 -0.2247 -0.6677  0.4705
 7063TIP3   OH242679   5.109   4.053  12.208  0.0994 -0.0679 -0.1060
 7063TIP3    H142680   5.156   4.111  12.268  0.0810 -1.0410  0.8933
 7063TIP3    H242681   5.113   4.097  12.123  0.7922  0.9813  0.4492
 7064TIP3   OH242682   2.752   0.604  13.114 -0.2995  0.1668  0.2083
 7064TIP3    H142683   2.824   0.644  13.067 -0.5915  1.7483  1.0591
 7064TIP3    H242684   2.710   0.547  13.049  1.5862 -0.6934 -0.3350
 7065TIP3   OH242685   5.629   5.320  17.322  0.0568 -0.0866  0.1066
 7065TIP3    H142686   5.691   5.322  17.249 -1.2735  1.8452 -1.0559
 7065TIP3    H242687   5.547   5.288  17.284 -0.4160  0.0424  0.9857
 7066TIP3   OH242688   1.643   1.772   4.749 -0.3474 -0.3119  0.3862
 7066TIP3    H142689   1.680   1.767   4.837  0.9279 -0.2959 -0.1252
 7066TIP3    H242690   1.692   1.706   4.698  0.8411  1.4802 -0.9377
 7067TIP3   OH242691   1.849   3.104   0.349  0.3628 -0.4192 -0.1800
 7067TIP3    H142692   1.762   3.112   0.387  0.0420 -0.9677 -0.8003
 7067TIP3    H242693   1.848   3.022   0.300  0.7809  0.2378 -1.3409
 7068TIP3   OH242694   0.086   1.629   2.719 -0.4491  0.1202 -0.0974
 7068TIP3    H142695   0.032   1.559   2.756 -0.5465  0.7585  1.0263
 7068TIP3    H242696   0.159   1.584   2.678 -1.4783 -0.7243 -1.0559
 7069TIP3   OH242697   0.584   1.949   0.077  0.3234 -0.4825 -0.4098
 7069TIP3    H142698   0.678   1.964   0.063  0.2407 -1.1070 -1.7968
 7069TIP3    H242699   0.558   1.893   0.004 -1.2299  0.0421 -0.2876
 7070TIP3   OH242700   6.647   3.647  13.368  0.1090 -0.4050 -0.0377
 7070TIP3    H142701   6.589   3.722  13.385 -0.9451 -1.4394  1.1338
 7070TIP3    H242702   6.636   3.629  13.275 -0.8729 -0.1105  0.0115
 7071TIP3   OH242703   4.487   2.808   4.259 -0.8355  0.2331 -0.9237
 7071TIP3    H142704   4.468   2.716   4.239  0.0170  0.1409 -1.3474
 7071TIP3    H242705   4.580   2.809   4.282 -1.4303  0.5362  1.8908
 7072TIP3   OH242706   1.689   4.088  14.182  0.4546  0.2576 -0.2298
 7072TIP3    H142707   1.637   4.009  14.168  0.5010 -0.0050  1.0311
 7072TIP3    H242708   1.640   4.157  14.135 -1.3588  0.1260  1.3583
 7073TIP3   OH242709   2.520   3.612   2.646 -0.3278 -0.3219  0.3198
 7073TIP3    H142710   2.508   3.674   2.574 -1.7628 -1.4071 -0.4088
 7073TIP3    H242711   2.515   3.666   2.725 -0.0440  0.6935 -0.3321
 7074TIP3   OH242712   0.605   2.003   2.714 -0.1370  0.0289  0.0197
 7074TIP3    H142713   0.534   1.970   2.769  0.3391 -1.6312 -0.3081
 7074TIP3    H242714   0.636   2.081   2.759 -1.2097 -0.0462  0.9267
 7075TIP3   OH242715   6.452   4.464  14.857 -0.0642  0.1718  0.3490
 7075TIP3    H142716   6.529   4.498  14.903 -1.0375  0.6557  1.6740
 7075TIP3    H242717   6.421   4.392  14.912 -1.7794  1.3377  0.9911
 7076TIP3   OH242718   0.565   5.836  16.368 -0.6414 -0.3043  0.1445
 7076TIP3    H142719   0.473   5.821  16.348 -0.6679  1.4986 -1.4241
 7076TIP3    H242720   0.565   5.907  16.431 -0.3315 -1.4925  1.5384
 7077TIP3   OH242721   1.540   3.766   2.782  0.3545 -0.2508 -0.4206
 7077TIP3    H142722   1.451   3.734   2.796  0.8800 -2.4977 -1.7186
 7077TIP3    H242723   1.597   3.694   2.810  1.6160 -0.5296 -3.3228
 7078TIP3   OH242724   0.436   2.357   2.448  0.3002 -0.3047 -0.4197
 7078TIP3    H142725   0.500   2.383   2.382  0.4462  0.2348 -0.0753
 7078TIP3    H242726   0.431   2.262   2.441  1.1859 -0.3583 -0.4130
 7079TIP3   OH242727   3.946   5.020   5.237  0.3716 -0.0469 -0.1075
 7079TIP3    H142728   4.030   4.987   5.204 -0.6956 -0.1941 -2.9606
 7079TIP3    H242729   3.943   5.111   5.208  0.1914  0.4516  1.3972
 7080TIP3   OH242730   4.274   0.525   3.336 -0.1220  0.5139  0.0762
 7080TIP3    H142731   4.197   0.482   3.375 -0.7594  0.5848 -1.0475
 7080TIP3    H242732   4.287   0.603   3.390  0.2492 -0.4005  1.3477
 7081TIP3   OH242733   6.108   4.713   4.024  0.7739  0.3970 -0.3251
 7081TIP3    H142734   6.196   4.701   3.989 -0.0443 -1.3211 -1.9649
 7081TIP3    H242735   6.060   4.636   3.995 -0.9402  0.6244  1.6730
 7082TIP3   OH242736   2.731   3.639  14.536 -0.3262 -0.3149  0.3154
 7082TIP3    H142737   2.671   3.577  14.576  0.4565 -0.8216  0.7315
 7082TIP3    H242738   2.746   3.605  14.447  0.4684 -1.0007  0.6997
 7083TIP3   OH242739   0.556   4.982  11.801 -0.4438 -0.2805  0.1250
 7083TIP3    H142740   0.467   4.959  11.774 -0.5820 -0.0375  0.3667
 7083TIP3    H242741   0.544   5.038  11.878 -0.1636  1.2228 -0.8649
 7084TIP3   OH242742   1.335   4.109  14.441  0.3542  0.7793  0.4422
 7084TIP3    H142743   1.424   4.073  14.449 -0.2592 -0.9261 -0.0314
 7084TIP3    H242744   1.347   4.194  14.400  1.8068  0.7728  0.7969
 7085TIP3   OH242745   0.934   2.937   1.567  0.1962  0.1838 -0.1274
 7085TIP3    H142746   0.898   2.851   1.591  1.1125 -0.3877 -0.7384
 7085TIP3    H242747   0.867   2.975   1.509  0.7985 -1.1365 -1.7631
 7086TIP3   OH242748   3.024   3.471   1.366  0.5967 -0.3168 -0.1326
 7086TIP3    H142749   2.937   3.485   1.330 -0.3063 -0.1032  2.0365
 7086TIP3    H242750   3.017   3.389   1.414  1.5253 -0.1533  0.2980
 7087TIP3   OH242751   2.404   5.767  15.092 -0.7141  0.1270 -0.3776
 7087TIP3    H142752   2.378   5.682  15.127  0.8668 -0.2971 -0.1873
 7087TIP3    H242753   2.374   5.765  15.001 -0.6143 -0.6613 -0.3994
 7088TIP3   OH242754   6.098   4.849  11.370 -0.0579  0.2212  0.4197
 7088TIP3    H142755   6.044   4.928  11.365  0.3436  0.4296 -0.8224
 7088TIP3    H242756   6.178   4.872  11.323 -0.9341 -1.7223 -2.2761
 7089TIP3   OH242757   2.954   6.482  12.257 -0.1091 -0.3978 -0.0723
 7089TIP3    H142758   2.952   6.405  12.201  0.2622 -1.3260  1.1459
 7089TIP3    H242759   2.862   6.503  12.272 -0.2271  0.4380 -1.7506
 7090TIP3   OH242760   0.477   1.335   2.466  0.2481 -0.4320 -0.3586
 7090TIP3    H142761   0.568   1.361   2.481  0.5415 -0.6697 -1.6587
 7090TIP3    H242762   0.482   1.262   2.405 -0.8150 -0.5823 -0.2935
 7091TIP3   OH242763   3.157   4.091  16.692 -0.3629  0.4644  0.4490
 7091TIP3    H142764   3.214   4.058  16.623 -1.5362  2.1340 -1.4315
 7091TIP3    H242765   3.196   4.059  16.773  0.6311 -2.2994 -0.9716
 7092TIP3   OH242766   2.489   6.408   0.484  0.0608 -0.2782 -0.2153
 7092TIP3    H142767   2.582   6.421   0.464 -0.1851  1.5670 -0.2792
 7092TIP3    H242768   2.478   6.313   0.483  1.5450 -0.4897 -2.1177
 7093TIP3   OH242769   6.194   5.194   6.184 -0.0916  0.4265  0.8056
 7093TIP3    H142770   6.151   5.109   6.184  0.7954 -0.1045  3.2067
 7093TIP3    H242771   6.132   5.253   6.227 -0.3978  0.8513 -0.1863
 7094TIP3   OH242772   3.601   4.126  13.573 -0.4291  0.1524  0.0207
 7094TIP3    H142773   3.525   4.100  13.521 -1.3352  0.3208  1.1980
 7094TIP3    H242774   3.593   4.075  13.654  1.4347 -0.7838 -0.3254
 7095TIP3   OH242775   2.447   3.637   1.358 -0.0892 -0.5835 -0.1345
 7095TIP3    H142776   2.479   3.557   1.316  0.6713 -1.3598  1.8439
 7095TIP3    H242777   2.523   3.694   1.364 -0.3006 -0.2895 -0.2033
 7096TIP3   OH242778   3.287   0.836  16.897  0.1694 -0.2091  0.5863
 7096TIP3    H142779   3.200   0.797  16.884 -0.5622  0.0047  3.9228
 7096TIP3    H242780   3.348   0.763  16.895 -0.3593 -0.6470  0.3341
 7097TIP3   OH242781   2.529   4.313  16.055 -0.9555  0.2175  0.1112
 7097TIP3    H142782   2.480   4.394  16.071  0.5306  1.2524 -0.3086
 7097TIP3    H242783   2.586   4.304  16.131 -0.1895  0.2914 -0.4416
 7098TIP3   OH242784   4.591   0.450  14.188 -0.3091  0.1589 -0.2839
 7098TIP3    H142785   4.640   0.465  14.107 -1.0849  1.8266 -0.4773
 7098TIP3    H242786   4.505   0.487  14.172 -0.2137  1.3488  1.6037
 7099TIP3   OH242787   6.710   2.364   1.102 -0.0231  0.5049  0.1815
 7099TIP3    H142788   6.659   2.341   1.025  1.8062  0.7796 -1.1849
 7099TIP3    H242789   6.656   2.428   1.149  0.5539  3.7608 -3.1867
 7100TIP3   OH242790   4.986   0.513  12.342  0.2118  0.0995  0.3798
 7100TIP3    H142791   4.983   0.479  12.252  0.3716  0.8925  0.0677
 7100TIP3    H242792   5.075   0.546  12.352  0.4854 -0.8226  1.1560
 7101TIP3   OH242793   3.857   5.465  15.949  0.1132  0.0700 -0.4937
 7101TIP3    H142794   3.805   5.415  16.011  0.8186 -0.2253 -0.1341
 7101TIP3    H242795   3.793   5.505  15.890 -0.5053 -0.3914 -0.1347
 7102TIP3   OH242796   0.172   4.434   5.477  0.0679 -0.5814 -0.3776
 7102TIP3    H142797   0.116   4.364   5.511  0.0502 -0.3418  0.1042
 7102TIP3    H242798   0.229   4.391   5.414 -0.0182 -1.0078 -0.1697
 7103TIP3   OH242799   5.790   6.023  11.100  0.0425 -0.0392  0.2276
 7103TIP3    H142800   5.872   5.981  11.073  1.3111  2.5821 -0.2598
 7103TIP3    H242801   5.776   6.093  11.036 -1.0059  1.4190  1.9568
 7104TIP3   OH242802   3.918   0.050  14.861  0.0805  0.4046  0.4039
 7104TIP3    H142803   3.848   0.026  14.922  0.3557 -0.8819  0.2381
 7104TIP3    H242804   3.997   0.010  14.897  0.2562 -0.3363 -0.7380
 7105TIP3   OH242805   2.066   2.690  15.418 -0.5571  0.5287  0.0194
 7105TIP3    H142806   2.002   2.686  15.489 -0.3965  1.5363  0.2422
 7105TIP3    H242807   2.043   2.618  15.360 -1.7400  0.7216  0.2255
 7106TIP3   OH242808   3.120   6.482  15.071 -0.1587  0.6036 -0.4541
 7106TIP3    H142809   3.140   6.427  15.147  0.3279 -0.1631 -1.1137
 7106TIP3    H242810   3.196   6.540  15.063  0.5851 -0.4267 -1.2999
 7107TIP3   OH242811   3.126   5.243  12.669  0.2848  0.0685  0.3747
 7107TIP3    H142812   3.175   5.289  12.601  1.3128 -1.0796  0.3137
 7107TIP3    H242813   3.140   5.151  12.651  0.3477 -0.2671  1.9866
 7108TIP3   OH242814   6.517   3.005   1.508  0.3519 -0.6255 -0.2842
 7108TIP3    H142815   6.549   3.045   1.426  1.5155 -1.1879 -0.1307
 7108TIP3    H242816   6.572   3.044   1.576 -1.9489  1.3914  0.5512
 7109TIP3   OH242817   3.833   3.514  15.345  0.0993 -0.0648  0.1604
 7109TIP3    H142818   3.760   3.498  15.404  0.9943  0.1601  1.3640
 7109TIP3    H242819   3.806   3.590  15.293 -1.9893 -2.1008 -1.9474
 7110TIP3   OH242820   1.209   2.577   1.382  0.1104 -0.7052  0.0958
 7110TIP3    H142821   1.204   2.618   1.469  0.1146  0.4435 -0.4236
 7110TIP3    H242822   1.205   2.651   1.321 -0.1796 -1.5193 -0.8911
 7111TIP3   OH242823   6.772   4.029   4.100  0.7918  0.3103 -0.0364
 7111TIP3    H142824   6.737   4.117   4.111 -2.0792 -0.6423 -0.7341
 7111TIP3    H242825   6.804   4.026   4.010  1.9584  0.9192  0.3315
 7112TIP3   OH242826   2.700   0.170  11.160  0.4431 -0.5999 -0.2412
 7112TIP3    H142827   2.739   0.126  11.236 -0.1336  1.4117  1.3019
 7112TIP3    H242828   2.683   0.099  11.098  0.1375 -2.4572  1.8414
 7113TIP3   OH242829   4.699   6.063   2.360  0.2455  0.0957 -0.0622
 7113TIP3    H142830   4.766   6.106   2.307  0.3571  0.1194  0.0965
 7113TIP3    H242831   4.735   5.977   2.378 -0.3557 -0.3903 -1.1090
 7114TIP3   OH242832   1.522   0.931  12.179 -0.2265 -0.0286  0.0734
 7114TIP3    H142833   1.552   0.872  12.110 -1.0260  0.7383 -0.9739
 7114TIP3    H242834   1.479   1.003  12.132  1.6615  1.9757  1.2236
 7115TIP3   OH242835   0.333   5.256  17.309 -0.1734 -0.1551 -0.6219
 7115TIP3    H142836   0.303   5.311  17.382 -1.5946 -0.6318 -0.8130
 7115TIP3    H242837   0.342   5.317  17.236  1.3670  0.3472 -0.0642
 7116TIP3   OH242838   3.382   3.958   5.087 -0.3548 -0.0696 -0.3674
 7116TIP3    H142839   3.307   4.016   5.100  1.4434  1.7995  2.6506
 7116TIP3    H242840   3.345   3.870   5.093 -2.5839  0.7389 -1.2094
 7117TIP3   OH242841   1.656   1.262  13.403 -0.2891  0.5793 -0.1252
 7117TIP3    H142842   1.718   1.277  13.474 -1.1173  0.0342  0.7434
 7117TIP3    H242843   1.657   1.168  13.390  1.2468  0.8036 -2.1725
 7118TIP3   OH242844   1.847   1.767  12.107 -0.2933 -0.0324  0.2965
 7118TIP3    H142845   1.889   1.752  12.192 -0.9349  0.8526  0.7895
 7118TIP3    H242846   1.856   1.861  12.092  0.4271 -0.2839 -0.9616
 7119TIP3   OH242847   5.899   2.569  10.845 -0.5513  0.9514 -0.2584
 7119TIP3    H142848   5.823   2.511  10.854 -0.3212  0.7047  0.1680
 7119TIP3    H242849   5.953   2.527  10.779  1.6130 -1.6421  2.8040
 7120TIP3   OH242850   0.498   5.257   2.240 -0.1004 -0.2254 -0.6569
 7120TIP3    H142851   0.462   5.169   2.229 -1.4057  0.3516 -1.1810
 7120TIP3    H242852   0.421   5.313   2.245  0.6716  0.7612  0.9553
 7121TIP3   OH242853   5.401   0.420   6.284  0.6744 -0.5055 -0.0109
 7121TIP3    H142854   5.413   0.350   6.348 -0.5314 -0.7941 -0.0773
 7121TIP3    H242855   5.407   0.377   6.199  1.8279 -0.1968 -0.1011
 7122TIP3   OH242856   4.045   0.618  12.943  0.1197 -0.0490 -0.4955
 7122TIP3    H142857   4.129   0.644  12.904  1.0175  0.4773  1.6691
 7122TIP3    H242858   4.060   0.528  12.973 -0.0395  0.1041  0.0422
 7123TIP3   OH242859   5.732   2.113   1.432 -0.5300 -0.1290 -0.2068
 7123TIP3    H142860   5.746   2.089   1.340 -2.1746  0.5629 -0.6854
 7123TIP3    H242861   5.718   2.208   1.429  0.2937  0.0372  0.8918
 7124TIP3   OH242862   4.877   6.491   0.103 -0.0115  0.4055 -0.5706
 7124TIP3    H142863   4.793   6.464   0.140 -0.2073  1.0436 -0.5346
 7124TIP3    H242864   4.885   6.583   0.127  1.9360 -0.2659  1.7340
 7125TIP3   OH242865   2.437   5.432  13.053 -0.5742  0.0576  0.0499
 7125TIP3    H142866   2.436   5.393  12.966  0.7719 -1.0650  0.5064
 7125TIP3    H242867   2.428   5.358  13.113  0.5530  0.5807  0.9050
 7126TIP3   OH242868   1.772   0.783   5.229  0.0163  0.4071 -0.5570
 7126TIP3    H142869   1.867   0.783   5.215  0.1789 -1.7305  0.1628
 7126TIP3    H242870   1.761   0.809   5.320  0.0837 -1.1967 -0.0607
 7127TIP3   OH242871   1.474   6.185   2.567  0.1720 -0.3875 -0.6277
 7127TIP3    H142872   1.557   6.160   2.528 -0.5622 -2.1722 -1.1597
 7127TIP3    H242873   1.413   6.188   2.494 -0.6893 -1.2952  0.0286
 7128TIP3   OH242874   1.571   1.824  14.807 -0.0737 -0.0728  0.1865
 7128TIP3    H142875   1.592   1.865  14.891 -1.0143 -0.2385  0.5159
 7128TIP3    H242876   1.504   1.880  14.769  1.8191  1.2196 -1.4749
 7129TIP3   OH242877   2.494   1.535   4.942 -0.8208  0.1005 -0.0478
 7129TIP3    H142878   2.511   1.529   4.848  0.0861  1.0737  0.0335
 7129TIP3    H242879   2.554   1.471   4.981  0.0072  0.8842 -0.0223
 7130TIP3   OH242880   1.166   3.814  13.031 -0.1536  0.2656 -0.5384
 7130TIP3    H142881   1.210   3.780  12.953  0.8318 -1.0123  0.5144
 7130TIP3    H242882   1.110   3.742  13.060  0.8644  0.0195  0.9298
 7131TIP3   OH242883   3.510   5.640  11.466  0.0236  0.1152  0.3473
 7131TIP3    H142884   3.598   5.671  11.488  0.3158 -0.3676 -0.1359
 7131TIP3    H242885   3.523   5.556  11.424 -0.7530 -0.5661  1.3919
 7132TIP3   OH242886   6.113   2.096   2.889  0.3029 -0.2961 -0.2475
 7132TIP3    H142887   6.176   2.027   2.868 -0.4309 -2.0065  2.6056
 7132TIP3    H242888   6.151   2.141   2.963 -1.0393 -0.2650  0.4458
 7133TIP3   OH242889   2.941   4.600   1.935  0.0207 -0.0646 -0.3678
 7133TIP3    H142890   2.938   4.636   2.023  0.4808 -0.9978  0.0447
 7133TIP3    H242891   2.910   4.671   1.878  0.1352  0.6818  0.4937
 7134TIP3   OH242892   1.307   1.164  10.678 -0.4934 -0.4888 -1.0163
 7134TIP3    H142893   1.391   1.134  10.642 -0.2324  1.1620 -1.8533
 7134TIP3    H242894   1.241   1.127  10.620 -0.3064 -1.1692 -0.8022
 7135TIP3   OH242895   6.034   6.512  14.898 -0.0912 -0.2141  0.2744
 7135TIP3    H142896   5.962   6.556  14.852  0.6471 -0.8715 -1.5563
 7135TIP3    H242897   6.109   6.570  14.885  0.5376 -1.2637 -0.8907
 7136TIP3   OH242898   4.517   6.570  12.047  0.2997  0.6856  0.0833
 7136TIP3    H142899   4.436   6.620  12.034  0.3423  1.0355  1.0637
 7136TIP3    H242900   4.579   6.633  12.084  1.1817  0.5413 -1.0957
 7137TIP3   OH242901   3.634   4.066  16.069  0.4271 -0.1973 -0.6395
 7137TIP3    H142902   3.654   4.145  16.019 -0.8787  0.5887  0.0240
 7137TIP3    H242903   3.547   4.082  16.106  0.8367 -1.2538  0.8908
 7138TIP3   OH242904   6.405   1.508   1.944  0.0538 -0.0617  0.8822
 7138TIP3    H142905   6.453   1.477   2.020 -0.6478  0.2059  1.4438
 7138TIP3    H242906   6.359   1.586   1.975 -1.7347 -1.0027  0.7284
 7139TIP3   OH242907   0.031   2.583  11.365 -0.0622  0.2640  0.3320
 7139TIP3    H142908   0.080   2.631  11.298 -1.8645 -0.5235 -1.6410
 7139TIP3    H242909   0.004   2.502  11.322 -0.3282 -0.8283  2.4027
 7140TIP3   OH242910   1.765   2.800   2.325  0.6299 -0.8609  0.4017
 7140TIP3    H142911   1.725   2.853   2.394 -0.3037 -1.2070  0.1522
 7140TIP3    H242912   1.719   2.716   2.331  1.6354 -1.4214  0.3722
 7141TIP3   OH242913   0.127   1.327   3.765 -0.5870  1.1204  0.1546
 7141TIP3    H142914   0.138   1.372   3.848  1.6398 -0.6774  0.9562
 7141TIP3    H242915   0.099   1.395   3.704  0.7197  3.1616  1.6944
 7142TIP3   OH242916   5.413   4.747  14.652  0.4663 -0.9057  0.1684
 7142TIP3    H142917   5.459   4.817  14.606  0.1226 -0.5642  0.3365
 7142TIP3    H242918   5.414   4.674  14.591 -1.4755  0.0528 -1.1278
 7143TIP3   OH242919   5.666   6.409  16.345  0.0646  0.9483 -0.1043
 7143TIP3    H142920   5.666   6.503  16.328 -0.3494  0.6839 -1.6924
 7143TIP3    H242921   5.645   6.369  16.260 -0.4071 -0.5508  0.6862
 7144TIP3   OH242922   1.534   5.455  12.182 -0.1620 -0.2375 -0.0484
 7144TIP3    H142923   1.553   5.437  12.090  0.5444 -1.6318  0.3457
 7144TIP3    H242924   1.460   5.399  12.203 -0.4763  0.2557  0.1758
 7145TIP3   OH242925   5.109   3.836  11.915 -0.1557 -0.6520 -0.1604
 7145TIP3    H142926   5.031   3.830  11.970  0.7988 -0.3265  1.2841
 7145TIP3    H242927   5.183   3.832  11.976  0.9417  2.1454 -1.1007
 7146TIP3   OH242928   0.647   3.057   4.405  0.3824  0.4550 -0.4956
 7146TIP3    H142929   0.655   2.980   4.462  0.8847 -0.2715 -1.4911
 7146TIP3    H242930   0.561   3.093   4.424 -0.0070 -0.5671 -0.2450
 7147TIP3   OH242931   0.457   4.034  11.544 -0.5566  0.0321  0.2653
 7147TIP3    H142932   0.463   4.062  11.453 -2.2509 -2.5035 -0.7331
 7147TIP3    H242933   0.366   4.008  11.556  0.2630 -2.5754  1.7252
 7148TIP3   OH242934   6.320   4.677   5.398 -0.2721 -0.4389  0.4853
 7148TIP3    H142935   6.335   4.702   5.307  1.3263  1.6349  1.2534
 7148TIP3    H242936   6.227   4.697   5.412  0.1950  2.3905  0.1622
 7149TIP3   OH242937   0.811   3.178  17.034  0.3508 -0.1704 -0.6588
 7149TIP3    H142938   0.791   3.175  16.940  0.4640  0.8195 -0.7241
 7149TIP3    H242939   0.889   3.233  17.040  0.4268 -0.3473  0.0027
 7150TIP3   OH242940   1.358   6.045  15.186  0.9192  0.0844 -0.0839
 7150TIP3    H142941   1.386   6.132  15.214  1.6757 -0.3160  0.4390
 7150TIP3    H242942   1.286   6.062  15.125  2.3579  1.1627 -1.5531
 7151TIP3   OH242943   5.179   1.845   6.699  0.0756  0.4760  0.0663
 7151TIP3    H142944   5.206   1.936   6.690  1.7780 -0.1547 -2.1701
 7151TIP3    H242945   5.190   1.808   6.611 -1.3342 -1.6965  0.7255
 7152TIP3   OH242946   2.027   5.010  16.780 -0.1083  0.3414  0.6050
 7152TIP3    H142947   2.053   5.021  16.872  1.1152  1.1014  0.1860
 7152TIP3    H242948   1.959   5.075  16.766 -1.6989 -1.0510  1.4641
 7153TIP3   OH242949   6.765   3.487  13.749  0.0350 -0.3944  0.0826
 7153TIP3    H142950   6.860   3.479  13.742 -0.0685 -0.0040 -3.0398
 7153TIP3    H242951   6.731   3.417  13.694 -1.4504  0.5552 -0.2455
 7154TIP3   OH242952   4.073   2.412  17.252 -0.1549 -0.7982  0.4337
 7154TIP3    H142953   4.115   2.498  17.244 -0.2489 -0.8849 -1.2161
 7154TIP3    H242954   4.025   2.417  17.335  0.0263  0.6705  0.4796
 7155TIP3   OH242955   1.982   0.993   6.422  0.4113 -0.2950  0.4382
 7155TIP3    H142956   1.898   0.964   6.386  0.1883 -0.2730  0.9212
 7155TIP3    H242957   1.962   1.012   6.514  0.8023  0.3379  0.3939
 7156TIP3   OH242958   0.342   0.001   4.352 -0.6211 -0.4561 -0.3046
 7156TIP3    H142959   0.327  -0.092   4.373 -1.1100 -0.1544  0.7266
 7156TIP3    H242960   0.276   0.020   4.285  0.2828 -1.1592 -1.4259
 7157TIP3   OH242961   2.117   1.466   6.305  0.0640  0.2226 -0.0001
 7157TIP3    H142962   2.158   1.411   6.372 -0.1576  0.7896  0.6116
 7157TIP3    H242963   2.030   1.429   6.293  0.4420 -0.4828 -0.7081
 7158TIP3   OH242964   1.155   0.833  12.852 -0.3672  0.1740  0.4682
 7158TIP3    H142965   1.141   0.864  12.762  1.0480 -0.7817 -0.1191
 7158TIP3    H242966   1.083   0.771  12.866 -1.8865  1.9419  0.8386
 7159TIP3   OH242967   1.135   5.087  14.489 -0.2821 -0.0767  0.3578
 7159TIP3    H142968   1.144   5.160  14.549  1.4716  0.8407 -0.9306
 7159TIP3    H242969   1.040   5.074  14.481 -0.5799  0.5957  2.2639
 7160TIP3   OH242970   2.692   2.729  16.661  0.2598  0.0125 -0.3483
 7160TIP3    H142971   2.697   2.772  16.747  0.2455 -1.9177  0.6708
 7160TIP3    H242972   2.603   2.745  16.631 -0.1014 -0.2603  0.5489
 7161TIP3   OH242973   3.292   2.173   5.295 -0.1233 -0.0357 -0.2056
 7161TIP3    H142974   3.233   2.247   5.276 -0.1750  0.4153  1.5216
 7161TIP3    H242975   3.378   2.204   5.269 -0.4909 -0.3889 -1.9767
 7162TIP3   OH242976   2.936   3.488  11.010 -0.2241 -0.4229 -0.1423
 7162TIP3    H142977   2.977   3.484  10.924 -0.6279  1.0212 -0.4345
 7162TIP3    H242978   2.863   3.427  11.005 -1.2436  0.8502 -1.4016
 7163TIP3   OH242979   2.964   0.309  16.028 -0.2502  0.0641  0.0444
 7163TIP3    H142980   2.979   0.398  16.060 -1.5266  0.2020  0.2920
 7163TIP3    H242981   3.029   0.298  15.958  2.4236 -0.1488  2.3800
 7164TIP3   OH242982   2.300   0.578   1.383 -0.4675 -0.3447 -0.0161
 7164TIP3    H142983   2.222   0.553   1.434 -1.4357  1.9088 -0.2658
 7164TIP3    H242984   2.296   0.522   1.305 -1.0708 -1.1915  0.5923
 7165TIP3   OH242985   1.282   1.740   2.410 -0.1715 -0.1953 -0.0030
 7165TIP3    H142986   1.330   1.813   2.448  0.1218  0.4273 -1.4916
 7165TIP3    H242987   1.293   1.669   2.473  0.1273  0.8191  1.1405
 7166TIP3   OH242988   1.342   1.779  12.644 -0.0221 -0.6792 -0.0321
 7166TIP3    H142989   1.294   1.804  12.565 -1.0582 -0.4913  0.6324
 7166TIP3    H242990   1.403   1.851  12.660 -1.9670  0.8255  1.0469
 7167TIP3   OH242991   3.425   1.847   3.932 -0.4418 -0.1683  0.1902
 7167TIP3    H142992   3.463   1.933   3.914  0.7232 -0.8236 -0.6362
 7167TIP3    H242993   3.335   1.865   3.957 -0.2569  1.2825 -0.1126
 7168TIP3   OH242994   1.797   1.393  15.995  0.4222 -0.1324 -0.4918
 7168TIP3    H142995   1.871   1.383  16.055 -0.1685 -0.9309  0.1170
 7168TIP3    H242996   1.725   1.346  16.037 -0.8006  1.6603 -0.4812
 7169TIP3   OH242997   6.496   5.697  17.190 -0.0667 -0.5595  0.0008
 7169TIP3    H142998   6.446   5.777  17.170  1.1736  0.4230  0.6808
 7169TIP3    H242999   6.577   5.706  17.139  1.5078  0.2087  2.4630
 7170TIP3   OH243000   0.927   0.525   6.016 -0.2729  0.5661 -0.0281
 7170TIP3    H143001   0.973   0.590   6.068  0.8610 -0.3154  0.0988
 7170TIP3    H243002   0.839   0.522   6.054  0.2005  0.7316  1.1103
 7171TIP3   OH243003   4.964   2.810  11.988  0.3373 -0.1402  0.7997
 7171TIP3    H143004   5.026   2.878  11.962 -0.6332  0.0635 -1.1787
 7171TIP3    H243005   4.878   2.848  11.970 -0.2380 -1.7915 -0.1791
 7172TIP3   OH243006   1.577   3.075   0.487 -0.0422 -0.0649 -0.2654
 7172TIP3    H143007   1.636   3.137   0.532 -0.4146  0.2037 -0.1420
 7172TIP3    H243008   1.493   3.085   0.532 -0.4644  0.3067 -1.1086
 7173TIP3   OH243009   1.741   1.464  15.147  0.1015  0.6671 -0.6525
 7173TIP3    H143010   1.800   1.441  15.218  0.9858 -0.5405 -1.7244
 7173TIP3    H243011   1.719   1.556  15.162  0.3880  0.4902  1.0615
 7174TIP3   OH243012   0.721   0.194   0.983 -0.1290 -0.1374  0.3869
 7174TIP3    H143013   0.666   0.263   0.945  0.1325  0.8937  1.8002
 7174TIP3    H243014   0.804   0.237   1.003  0.3367 -1.0738  0.5368
 7175TIP3   OH243015   0.601   2.255  14.157 -0.0412  0.4105 -0.2318
 7175TIP3    H143016   0.688   2.247  14.197  0.5496  0.0447 -1.5396
 7175TIP3    H243017   0.594   2.181  14.097 -1.4014  0.2500  0.0973
 7176TIP3   OH243018   0.954   1.522   5.921  0.3522  0.1336 -0.0015
 7176TIP3    H143019   0.957   1.518   5.825  0.6234  0.1941  0.0034
 7176TIP3    H243020   0.870   1.482   5.944 -0.2818  1.2357 -0.3349
 7177TIP3   OH243021   3.574   4.883  13.962  0.2294  0.2194 -0.5145
 7177TIP3    H143022   3.582   4.802  14.012 -1.0148 -0.6189 -1.5992
 7177TIP3    H243023   3.643   4.876  13.895 -0.7107 -0.5991 -1.4301
 7178TIP3   OH243024   0.964   0.805  17.318 -0.0948 -0.0501 -0.4951
 7178TIP3    H143025   0.961   0.856  17.238 -1.8451 -2.5498 -2.1716
 7178TIP3    H243026   0.886   0.831  17.367  0.3438  0.6060 -0.1163
 7179TIP3   OH243027   0.657   4.604  14.794 -0.5578  0.5457 -0.2138
 7179TIP3    H143028   0.655   4.573  14.884 -1.6780  0.0814 -0.3938
 7179TIP3    H243029   0.736   4.659  14.790  0.1037 -0.2914  0.7460
 7180TIP3   OH243030   6.633   4.180  16.545  0.2282  0.0360  0.1717
 7180TIP3    H143031   6.707   4.152  16.491  2.7545  2.3292  2.1532
 7180TIP3    H243032   6.648   4.137  16.629 -0.1321  1.2608  0.8796
 7181TIP3   OH243033   4.858   4.303   5.712  0.1151  0.2460  0.4573
 7181TIP3    H143034   4.782   4.288   5.656 -0.2033 -0.8374  1.1524
 7181TIP3    H243035   4.933   4.301   5.652 -0.1450 -1.6614  0.1236
 7182TIP3   OH243036   4.814   5.471  14.337 -0.0456  0.0827 -0.1196
 7182TIP3    H143037   4.763   5.391  14.347 -0.2306  0.1465 -0.5446
 7182TIP3    H243038   4.769   5.536  14.391 -0.6638  0.2520 -0.8240
 7183TIP3   OH243039   4.438   0.607   2.764 -0.0940  0.3620  0.2082
 7183TIP3    H143040   4.367   0.635   2.822  0.8272  3.6469 -0.1022
 7183TIP3    H243041   4.499   0.561   2.822 -0.1313  1.8413  1.4715
 7184TIP3   OH243042   4.118   6.100   2.851 -1.2029  0.2197  0.2788
 7184TIP3    H143043   4.195   6.056   2.815  1.0261  1.4592  3.1215
 7184TIP3    H243044   4.103   6.057   2.935 -1.2400  2.3587  1.4324
 7185TIP3   OH243045   2.396   5.181  11.377  0.1273  0.4467  0.4858
 7185TIP3    H143046   2.408   5.252  11.314  1.8795  0.0767  0.3497
 7185TIP3    H243047   2.392   5.224  11.462 -0.6302  0.8365  0.2536
 7186TIP3   OH243048   6.696   5.329   2.526 -0.3201 -0.2851  0.1039
 7186TIP3    H143049   6.789   5.309   2.517 -0.3589 -0.0732 -0.8749
 7186TIP3    H243050   6.682   5.338   2.621  0.4415 -1.2890  0.3217
 7187TIP3   OH243051   3.992   3.026   3.527  0.5099 -0.0451 -0.3295
 7187TIP3    H143052   4.070   3.010   3.474  1.1777  0.6061  0.4237
 7187TIP3    H243053   4.026   3.053   3.612 -0.5224 -1.6318  0.6449
 7188TIP3   OH243054   3.789   2.997  12.030 -0.0084 -0.0619  0.6593
 7188TIP3    H143055   3.762   2.905  12.030 -0.7849  0.1553  1.3173
 7188TIP3    H243056   3.830   3.010  12.115  1.4836 -0.1735 -0.0131
 7189TIP3   OH243057   1.704   0.712   1.676 -0.1098 -0.8829  0.4347
 7189TIP3    H143058   1.664   0.655   1.611  1.2538 -1.1160 -0.2410
 7189TIP3    H243059   1.730   0.790   1.628 -0.4910 -0.3759  1.0282
 7190TIP3   OH243060   4.578   3.185   0.978 -0.2791 -0.4705  0.3838
 7190TIP3    H143061   4.632   3.127   0.925 -0.3916 -1.4189  1.2770
 7190TIP3    H243062   4.488   3.155   0.963 -0.3172 -0.6944  1.0337
 7191TIP3   OH243063   2.557   3.444  11.513  0.3024  0.2162  0.2910
 7191TIP3    H143064   2.636   3.494  11.494 -0.2698  0.9835 -0.1293
 7191TIP3    H243065   2.486   3.496  11.475 -0.1150 -1.9721 -2.1873
 7192TIP3   OH243066   1.466   1.259   5.042  0.3224  0.2045  0.7466
 7192TIP3    H143067   1.493   1.170   5.018 -0.4900 -0.6677  2.8514
 7192TIP3    H243068   1.524   1.316   4.991 -0.3557 -1.4428 -2.0918
 7193TIP3   OH243069   2.058   3.230  11.660 -0.1277 -0.2663 -0.0311
 7193TIP3    H143070   2.011   3.259  11.738  1.4019 -0.8212  1.1272
 7193TIP3    H243071   2.146   3.209  11.690  0.4701 -0.6317 -1.8842
 7194TIP3   OH243072   0.090   5.672  12.216 -0.0310 -0.6265 -0.4374
 7194TIP3    H143073   0.093   5.649  12.309 -0.0106  0.7608 -0.0744
 7194TIP3    H243074   0.162   5.735  12.205 -1.1354  0.5754 -0.9900
 7195TIP3   OH243075   5.995   0.514   6.729 -0.5823  0.1498 -0.2464
 7195TIP3    H143076   6.023   0.436   6.777  2.1517  0.0238 -1.8270
 7195TIP3    H243077   5.957   0.480   6.648 -0.4974  0.4069 -0.3971
 7196TIP3   OH243078   1.226   3.856  11.693 -0.2167  0.9880  0.2401
 7196TIP3    H143079   1.306   3.825  11.649 -1.4088 -0.2162 -1.2209
 7196TIP3    H243080   1.240   3.950  11.704  1.9903  0.6084  1.3659
 7197TIP3   OH243081   2.209   6.473   0.589 -0.1705  0.5194  0.7115
 7197TIP3    H143082   2.289   6.421   0.582 -0.3476  0.3779 -0.5070
 7197TIP3    H243083   2.207   6.502   0.680  1.4377  0.7943  0.6889
 7198TIP3   OH243084   3.182   0.920  15.392  0.1541  0.0980 -0.3333
 7198TIP3    H143085   3.152   0.983  15.458  0.6434  0.2986 -0.2934
 7198TIP3    H243086   3.138   0.947  15.311 -0.4075 -0.1193 -0.0997
 7199TIP3   OH243087   3.914   3.112   2.401  0.2125  0.4378  0.1225
 7199TIP3    H143088   3.852   3.056   2.354  1.8739 -1.5482  0.1762
 7199TIP3    H243089   3.934   3.182   2.339 -0.1060 -0.3475 -0.9138
 7200TIP3   OH243090   5.317   2.527  11.081  0.0019 -0.4625  0.0940
 7200TIP3    H143091   5.378   2.479  11.025  0.2567 -0.1202  0.0760
 7200TIP3    H243092   5.231   2.490  11.060  0.3044 -1.6668  0.8620
 7201TIP3   OH243093   4.669   1.934   2.238 -0.1411  0.0670 -0.1031
 7201TIP3    H143094   4.641   2.004   2.297  0.2388  0.4507 -0.3721
 7201TIP3    H243095   4.760   1.917   2.262 -0.8710 -1.9801  1.5716
 7202TIP3   OH243096   4.506   0.582   4.137  0.3857  0.6733 -0.0183
 7202TIP3    H143097   4.490   0.575   4.043 -0.4746 -0.7365  0.2038
 7202TIP3    H243098   4.429   0.626   4.172  0.2404  0.2958  0.1452
 7203TIP3   OH243099   6.263   6.460   1.466  0.1027  0.1042 -0.3699
 7203TIP3    H143100   6.171   6.484   1.479  0.0664  0.0333 -0.4952
 7203TIP3    H243101   6.269   6.372   1.504 -0.3097 -0.6494 -1.9790
 7204TIP3   OH243102   4.348   4.425  10.877  0.2267 -0.8533  0.3334
 7204TIP3    H143103   4.394   4.423  10.793  1.2061  0.8723  0.7793
 7204TIP3    H243104   4.365   4.340  10.917  1.1731 -1.0529 -0.4868
 7205TIP3   OH243105   4.850   1.449   5.803 -0.4662  0.2150 -0.3604
 7205TIP3    H143106   4.763   1.438   5.766  0.1514  1.6882 -2.4034
 7205TIP3    H243107   4.879   1.536   5.774  1.6333 -0.1767  0.3397
 7206TIP3   OH243108   1.243   4.163  11.683  0.2851 -0.5741  0.5773
 7206TIP3    H143109   1.184   4.209  11.742  2.6951  3.1327  0.4697
 7206TIP3    H243110   1.322   4.149  11.735 -0.0200 -4.0677  0.2987
 7207TIP3   OH243111   5.296   5.869   5.952 -0.0843 -0.0165 -0.0145
 7207TIP3    H143112   5.325   5.797   6.008  2.2314  1.1194  0.3593
 7207TIP3    H243113   5.317   5.948   6.002 -4.2055  1.0699  0.4091
 7208TIP3   OH243114   3.312   2.054   2.776  0.2438  0.1551  0.3416
 7208TIP3    H143115   3.233   2.068   2.723  0.3157 -0.3802  0.0830
 7208TIP3    H243116   3.381   2.100   2.729  0.3932 -0.6708 -0.2713
 7209TIP3   OH243117   3.880   1.510  16.208  0.0542  0.5093 -0.4560
 7209TIP3    H143118   3.883   1.447  16.136 -0.5337  1.0794 -0.9844
 7209TIP3    H243119   3.909   1.460  16.284 -0.1460 -0.3273 -0.9175
 7210TIP3   OH243120   4.917   3.826   2.715  0.2149 -0.0199  0.1491
 7210TIP3    H143121   4.991   3.873   2.676  0.3410 -0.9203 -0.7376
 7210TIP3    H243122   4.875   3.782   2.641 -1.5149  0.8602  0.5605
 7211TIP3   OH243123   3.495   6.144  14.299 -0.5762 -0.2043 -0.3086
 7211TIP3    H143124   3.430   6.128  14.368  3.6668 -1.4365  4.0111
 7211TIP3    H243125   3.502   6.239  14.294 -1.1837 -0.0736  0.9025
 7212TIP3   OH243126   6.210   1.689   3.915 -0.2521  0.0022 -0.1455
 7212TIP3    H143127   6.213   1.779   3.883 -0.2737 -0.8748 -2.9615
 7212TIP3    H243128   6.125   1.682   3.959 -1.0581  0.9151 -1.4788
 7213TIP3   OH243129   4.514   3.268   0.607 -0.8352 -0.2321 -0.1586
 7213TIP3    H143130   4.485   3.330   0.674 -2.1072  1.6822 -2.3393
 7213TIP3    H243131   4.436   3.217   0.587  0.0823 -2.3541  1.2701
 7214TIP3   OH243132   4.657   6.189  11.710  0.2169 -0.0687 -0.3330
 7214TIP3    H143133   4.709   6.121  11.753  2.2224  2.2577  1.1776
 7214TIP3    H243134   4.617   6.239  11.782 -0.7984  0.6744 -1.3658
 7215TIP3   OH243135   4.316   5.070   4.439 -0.8573 -0.0662  0.0590
 7215TIP3    H143136   4.298   5.045   4.348 -1.8740  0.1589  0.1781
 7215TIP3    H243137   4.409   5.090   4.441 -1.2275  2.2867 -1.5496
 7216TIP3   OH243138   2.218   1.826  15.138  0.0821 -0.0871 -0.4076
 7216TIP3    H143139   2.204   1.847  15.045 -0.0900  1.4228 -0.0579
 7216TIP3    H243140   2.233   1.911  15.180 -0.0360 -0.7333  0.9866
 7217TIP3   OH243141   1.528   3.386  15.330 -0.3826 -0.3216 -0.1357
 7217TIP3    H143142   1.473   3.332  15.388  0.1548 -0.2501  0.4459
 7217TIP3    H243143   1.485   3.380  15.245 -0.3895 -1.5903 -0.0609
 7218TIP3   OH243144   5.649   1.209  14.934  0.2658  0.0650  0.4227
 7218TIP3    H143145   5.661   1.304  14.926 -0.3069  0.5005  3.4688
 7218TIP3    H243146   5.738   1.174  14.936  0.5072  0.6572  0.3299
 7219TIP3   OH243147   2.506   5.407  15.347  0.7500 -0.0856 -0.1731
 7219TIP3    H143148   2.600   5.420  15.346  0.6957  0.8258  1.6842
 7219TIP3    H243149   2.493   5.325  15.394  0.5923  0.2991  0.4630
 7220TIP3   OH243150   2.945   2.305  13.987 -0.0278 -0.0740 -0.4074
 7220TIP3    H143151   2.876   2.242  13.966 -0.9730  0.0834  1.9147
 7220TIP3    H243152   2.909   2.390  13.963 -0.2132 -0.0975 -0.2144
 7221TIP3   OH243153   4.963   6.493  11.735 -0.5085 -0.1492 -0.4439
 7221TIP3    H143154   4.958   6.580  11.696  0.2528 -0.0506 -0.3363
 7221TIP3    H243155   4.977   6.434  11.661 -1.3183 -0.2284 -0.5501
 7222TIP3   OH243156   4.513   2.358   0.020 -0.3843 -0.6793 -0.5601
 7222TIP3    H143157   4.574   2.293  -0.014 -0.6411 -0.9548 -0.4927
 7222TIP3    H243158   4.477   2.319   0.100 -0.4308 -0.3966 -0.4418
 7223TIP3   OH243159   3.740   2.318   5.030  0.5902  0.4103 -0.3039
 7223TIP3    H143160   3.818   2.372   5.043  1.1890  0.2797 -2.7614
 7223TIP3    H243161   3.775   2.229   5.017 -0.0124  0.2434 -0.8374
 7224TIP3   OH243162   4.703   5.912   4.976 -0.5767  0.0698  0.0509
 7224TIP3    H143163   4.710   5.986   5.036  0.8885  0.6710 -0.8287
 7224TIP3    H243164   4.651   5.944   4.903  1.3760  0.7958 -1.0881
 7225TIP3   OH243165   1.457   5.669  14.131  0.2179 -0.9578 -0.0210
 7225TIP3    H143166   1.529   5.721  14.166  0.5540 -1.1543 -0.4272
 7225TIP3    H243167   1.479   5.579  14.154 -0.3344 -0.9428  0.6268
 7226TIP3   OH243168   3.004   5.123  11.484 -0.2437 -0.4973  0.2169
 7226TIP3    H143169   2.963   5.050  11.531 -0.2389  0.5144  1.8870
 7226TIP3    H243170   2.949   5.198  11.505  1.1086  0.4342  0.5517
 7227TIP3   OH243171   5.215   3.019  11.629 -0.1615  0.2152  0.2036
 7227TIP3    H143172   5.239   2.971  11.550 -1.7207  1.0524 -0.8195
 7227TIP3    H243173   5.140   3.072  11.603  0.4470  1.9266  1.7477
 7228TIP3   OH243174   5.653   0.577   0.763  0.1324  0.5170 -0.5899
 7228TIP3    H143175   5.641   0.544   0.673  0.5390  2.5932 -1.4680
 7228TIP3    H243176   5.745   0.557   0.783 -0.1685 -0.6415 -0.3167
 7229TIP3   OH243177   3.190   6.104  14.713  0.0299 -0.0792 -0.5426
 7229TIP3    H143178   3.147   6.183  14.747  0.2901 -0.7370  1.5036
 7229TIP3    H243179   3.131   6.032  14.738  0.8416 -0.7127 -0.3986
 7230TIP3   OH243180   1.247   2.764   5.339  0.8011  0.3251  0.5040
 7230TIP3    H143181   1.172   2.820   5.320 -0.3190 -1.4646 -0.6983
 7230TIP3    H243182   1.251   2.761   5.435 -0.3299  0.8869  0.5795
 7231TIP3   OH243183   5.705   4.712  12.338 -0.1302  0.2327 -0.5582
 7231TIP3    H143184   5.729   4.777  12.271 -0.0756  0.9007  0.0919
 7231TIP3    H243185   5.758   4.736  12.414 -0.0465 -0.6369 -0.3345
 7232TIP3   OH243186   2.912   5.965  14.356 -0.4735 -0.2997 -0.3188
 7232TIP3    H143187   2.985   6.006  14.310 -0.1459 -0.8106 -0.2618
 7232TIP3    H243188   2.845   5.953  14.288 -0.8593  0.9651 -0.1922
 7233TIP3   OH243189   0.366   6.431  15.427  0.2507 -0.0929 -0.2926
 7233TIP3    H143190   0.385   6.474  15.511 -0.1894  0.1034 -0.2926
 7233TIP3    H243191   0.271   6.422  15.425 -0.4624  4.6890 -3.0181
 7234TIP3   OH243192   4.430   4.275  15.715  0.7702 -0.0639 -0.1502
 7234TIP3    H143193   4.476   4.339  15.768  2.2582  0.9487 -2.4821
 7234TIP3    H243194   4.438   4.308  15.625 -1.8827 -1.4847 -1.0204
 7235TIP3   OH243195   1.065   2.765  14.912 -0.0022 -0.0409  0.0334
 7235TIP3    H143196   1.049   2.854  14.879 -0.1765 -0.0913 -0.0188
 7235TIP3    H243197   1.033   2.708  14.842 -1.3278 -0.1650  0.6974
 7236TIP3   OH243198   1.805   3.877   4.221 -0.6058 -0.1935 -0.2686
 7236TIP3    H143199   1.833   3.947   4.161 -0.6950 -0.7462 -0.9704
 7236TIP3    H243200   1.779   3.805   4.163 -1.5919 -0.4075  0.4126
 7237TIP3   OH243201   2.883   6.109  14.993 -0.1479 -0.1502  0.2294
 7237TIP3    H143202   2.791   6.088  14.976 -0.5313  0.8147  0.9819
 7237TIP3    H243203   2.932   6.058  14.929 -1.2761  0.2458 -0.9923
 7238TIP3   OH243204   3.261   4.467  15.337  0.0994 -0.0475  0.1498
 7238TIP3    H143205   3.331   4.454  15.400  2.1610  0.4213 -1.8875
 7238TIP3    H243206   3.273   4.557  15.306  0.3274 -0.7938 -2.1599
 7239TIP3   OH243207   2.737   0.511   4.193  0.2373  0.1410  0.1653
 7239TIP3    H143208   2.712   0.602   4.177 -0.7337  0.7152  3.9009
 7239TIP3    H243209   2.661   0.460   4.164 -0.1622  0.7319  0.1560
 7240TIP3   OH243210   1.568   2.407  10.228  0.1191 -0.2162  0.0580
 7240TIP3    H143211   1.493   2.354  10.201 -0.0613  0.5533 -1.0206
 7240TIP3    H243212   1.553   2.423  10.321 -1.1804  0.0940 -0.1839
 7241TIP3   OH243213   2.860   3.798   2.419  0.7617 -0.1348  0.0646
 7241TIP3    H143214   2.813   3.871   2.378 -1.0869 -2.6089 -2.6250
 7241TIP3    H243215   2.928   3.774   2.355 -0.4854 -2.4547 -0.4896
 7242TIP3   OH243216   5.108   3.836  14.662  0.1605 -0.4013  0.1773
 7242TIP3    H143217   5.091   3.754  14.617 -0.1019 -0.7874  0.9667
 7242TIP3    H243218   5.025   3.883  14.658  0.7062  0.5025 -1.5937
 7243TIP3   OH243219   2.596   4.097   5.423 -0.4078 -0.0003 -0.4625
 7243TIP3    H143220   2.548   4.042   5.362  0.3442  0.6963 -1.7228
 7243TIP3    H243221   2.682   4.056   5.431 -0.6591 -0.3602  0.5329
 7244TIP3   OH243222   3.273   1.287   5.720 -0.3394  0.0882 -0.3849
 7244TIP3    H143223   3.364   1.267   5.695  0.1921  0.8436  0.8345
 7244TIP3    H243224   3.260   1.377   5.691 -0.8159 -0.1322 -0.8574
 7245TIP3   OH243225   0.297   6.084  12.271 -0.9273 -0.4353  0.0591
 7245TIP3    H143226   0.317   6.173  12.241  1.5313 -0.9016  0.0737
 7245TIP3    H243227   0.203   6.085  12.288 -0.9956  2.1412 -0.0108
 7246TIP3   OH243228   2.389   4.989  16.940 -0.0974 -0.6629 -0.0335
 7246TIP3    H143229   2.365   4.993  16.847  2.1420  1.0764 -0.6262
 7246TIP3    H243230   2.388   4.895  16.960 -2.7111 -0.9628 -1.1525
 7247TIP3   OH243231   2.041   3.552  16.997  0.4434 -0.0972 -0.2712
 7247TIP3    H143232   2.034   3.524  17.088  1.5046 -0.4895 -0.2948
 7247TIP3    H243233   1.963   3.607  16.983  0.3712  0.1489  0.9294
 7248TIP3   OH243234   6.493   2.737   2.878 -0.4819  0.2126  0.2035
 7248TIP3    H143235   6.542   2.686   2.813 -0.8371 -1.8286  1.4426
 7248TIP3    H243236   6.561   2.769   2.938 -0.5017 -2.7107  1.9861
 7249TIP3   OH243237   5.051   6.661  16.803  0.1719  0.3925 -0.3510
 7249TIP3    H143238   4.993   6.602  16.852  0.5502 -0.3281 -0.7503
 7249TIP3    H243239   5.134   6.657  16.850 -0.0947  1.4454  0.2368
 7250TIP3   OH243240   0.167   5.100  10.847 -0.0865  0.2300 -0.3849
 7250TIP3    H143241   0.130   5.162  10.910 -1.5273 -0.5016 -0.4716
 7250TIP3    H243242   0.127   5.016  10.869 -1.2257  0.0814 -2.7239
 7251TIP3   OH243243   5.656   2.419  12.421 -0.6233  0.1176  0.4531
 7251TIP3    H143244   5.675   2.481  12.351  0.0192 -0.7314 -0.1387
 7251TIP3    H243245   5.740   2.408  12.466 -0.9713  0.4542  1.2015
 7252TIP3   OH243246   2.472   6.629  14.087 -0.7386  0.2283  0.0935
 7252TIP3    H143247   2.520   6.661  14.164 -0.4039  0.3803 -0.1757
 7252TIP3    H243248   2.506   6.541  14.073 -0.4007  0.4005 -0.2034
 7253TIP3   OH243249   2.883   5.624  17.243  0.1715 -0.0864 -0.0181
 7253TIP3    H143250   2.892   5.701  17.186 -0.9304  0.9882  1.1727
 7253TIP3    H243251   2.961   5.626  17.298  0.1711  0.1610 -0.0242
 7254TIP3   OH243252   2.586   4.489   1.792 -0.1358  0.1608  0.1651
 7254TIP3    H143253   2.546   4.480   1.878 -0.2930  1.3230  0.2264
 7254TIP3    H243254   2.650   4.417   1.787  0.5526  0.6401  1.6258
 7255TIP3   OH243255   4.570   2.476  14.177 -0.4372  0.1507 -0.6717
 7255TIP3    H143256   4.556   2.560  14.221 -1.3241  0.1675 -0.9557
 7255TIP3    H243257   4.537   2.411  14.238  0.4746 -0.0274 -0.3488
 7256TIP3   OH243258   5.903   1.778  14.247  0.6572  0.1169  0.5860
 7256TIP3    H143259   5.858   1.851  14.204  0.7220 -0.1916 -0.0140
 7256TIP3    H243260   5.842   1.749  14.315 -0.1279 -0.3813 -0.3076
 7257TIP3   OH243261   0.405   5.229  12.914  0.3411 -0.2947  0.2816
 7257TIP3    H143262   0.365   5.157  12.963 -0.8875  0.6131  0.6737
 7257TIP3    H243263   0.378   5.214  12.823  1.6599 -1.3425  0.0383
 7258TIP3   OH243264   1.809   5.074  15.771 -0.5620  0.0524 -0.3195
 7258TIP3    H143265   1.848   5.124  15.842 -0.8295  0.4833 -0.4703
 7258TIP3    H243266   1.715   5.079  15.787 -0.6336  0.3461 -0.8310
 7259TIP3   OH243267   6.354   5.286  15.748  0.0860 -0.0976 -0.3157
 7259TIP3    H143268   6.386   5.372  15.775 -0.9885  1.0317 -2.4561
 7259TIP3    H243269   6.297   5.258  15.819  0.0853  1.1612  0.2015
 7260TIP3   OH243270   5.084   4.713  12.085  0.0767 -0.0518 -0.3110
 7260TIP3    H143271   5.002   4.664  12.092 -0.6132  1.0964 -0.2282
 7260TIP3    H243272   5.059   4.805  12.094  1.1998  0.4191 -1.6964
 7261TIP3   OH243273   4.889   0.199  15.689  0.2922  0.4919  0.1826
 7261TIP3    H143274   4.891   0.260  15.616 -0.6685  1.5543  0.9972
 7261TIP3    H243275   4.930   0.120  15.656  1.5012  1.5475 -0.9402
 7262TIP3   OH243276   0.687   5.971  10.733  0.2513  0.5296 -0.3125
 7262TIP3    H143277   0.716   5.903  10.794 -0.4503 -0.1010 -0.6769
 7262TIP3    H243278   0.592   5.963  10.731  0.3362 -0.5838 -2.7629
 7263TIP3   OH243279   6.653   2.457   2.831 -0.3760 -0.5289  0.6323
 7263TIP3    H143280   6.659   2.391   2.761  0.0462 -0.1132  0.2671
 7263TIP3    H243281   6.737   2.503   2.828 -0.1381 -0.8661  1.7884
 7264TIP3   OH243282   0.756   6.006   4.903  0.5396  0.7844  0.3941
 7264TIP3    H143283   0.835   6.042   4.862 -0.1570  1.8984 -0.0145
 7264TIP3    H243284   0.716   6.081   4.947 -2.1757  1.1176 -2.3817
 7265TIP3   OH243285   3.019   2.864   5.748 -0.1523 -0.7555 -0.2685
 7265TIP3    H143286   2.996   2.931   5.813 -1.4490 -1.0412 -0.4102
 7265TIP3    H243287   3.012   2.781   5.795  1.7205 -0.8100 -0.0199
 7266TIP3   OH243288   1.094   1.881  11.574 -0.1407 -0.0518  0.0113
 7266TIP3    H143289   1.136   1.892  11.489 -0.4628  0.2506 -0.1116
 7266TIP3    H243290   1.144   1.812  11.617  1.6718  1.5640  0.6194
 7267TIP3   OH243291   0.739   5.911  17.012  0.4417 -0.2422 -0.4736
 7267TIP3    H143292   0.656   5.905  17.060  0.8282  0.3968  0.3071
 7267TIP3    H243293   0.749   6.005  16.995  0.6511 -0.3957 -1.2073
 7268TIP3   OH243294   0.900   2.943  15.863  0.1293 -0.3575 -0.0106
 7268TIP3    H143295   0.900   2.898  15.947  0.4609  0.7216  0.5877
 7268TIP3    H243296   0.977   2.910  15.817  0.7157  0.0416  0.6735
 7269TIP3   OH243297   0.999   5.445  12.615 -0.0120 -0.3755  0.2663
 7269TIP3    H143298   0.904   5.443  12.629 -0.0791 -0.1993 -0.1616
 7269TIP3    H243299   1.034   5.388  12.684 -0.3573  0.2490  0.9634
 7270TIP3   OH243300   1.562   0.876  15.535 -0.1077 -0.5136  0.1658
 7270TIP3    H143301   1.475   0.904  15.510  0.1708 -1.7781 -2.5495
 7270TIP3    H243302   1.611   0.957  15.550 -1.2962  0.2363  0.0820
 7271TIP3   OH243303   3.807   0.154  12.846  0.2097 -0.0741  0.4400
 7271TIP3    H143304   3.829   0.140  12.938 -2.1788 -0.2233  1.0735
 7271TIP3    H243305   3.752   0.079  12.823 -0.2156  0.5674 -0.7375
 7272TIP3   OH243306   1.538   2.270   4.880  0.2913  0.4394  0.0017
 7272TIP3    H143307   1.558   2.273   4.973  0.7933  1.4968 -0.1218
 7272TIP3    H243308   1.612   2.222   4.841 -0.2971 -0.6762  0.2251
 7273TIP3   OH243309   0.924   2.430  12.817 -0.3409  0.2978  0.1946
 7273TIP3    H143310   0.957   2.473  12.895  2.5852  1.6265 -1.5884
 7273TIP3    H243311   0.943   2.337  12.830 -0.4552  0.4248  1.2981
 7274TIP3   OH243312   2.304   0.269  14.245  0.1646 -0.0761  0.1822
 7274TIP3    H143313   2.274   0.360  14.256 -0.7750 -0.3582  0.0351
 7274TIP3    H243314   2.266   0.241  14.162  0.1267 -0.7328  0.4182
 7275TIP3   OH243315   5.673   1.766  16.373 -0.7592  0.3633  0.2802
 7275TIP3    H143316   5.612   1.815  16.429 -0.2674  0.9803  0.2923
 7275TIP3    H243317   5.758   1.780  16.413 -0.6114 -0.5391  0.2873
 7276TIP3   OH243318   0.513   0.339   2.083 -0.0575 -0.2305  0.1939
 7276TIP3    H143319   0.559   0.359   2.164  0.7743 -2.6853  0.4271
 7276TIP3    H243320   0.575   0.361   2.014 -0.3396  0.8235  0.2683
 7277TIP3   OH243321   5.309   5.796  13.999 -0.1822 -0.3252  0.0439
 7277TIP3    H143322   5.283   5.875  13.952 -1.2420 -1.1761 -0.8863
 7277TIP3    H243323   5.331   5.826  14.087  2.2930  1.4003 -1.0531
 7278TIP3   OH243324   3.905   4.098  14.613 -0.3894 -0.0500 -0.7633
 7278TIP3    H143325   3.861   4.136  14.689 -1.3927  0.6220 -1.6526
 7278TIP3    H243326   3.865   4.142  14.538  1.7457  0.4997 -1.6375
 7279TIP3   OH243327   0.776   1.662   3.701  0.2342  0.0599 -0.6706
 7279TIP3    H143328   0.742   1.750   3.717 -0.7899 -0.7625  2.5057
 7279TIP3    H243329   0.721   1.628   3.631 -1.2326  1.0156 -0.0331
 7280TIP3   OH243330   2.709   3.946  11.203 -0.0186 -0.0964  0.1546
 7280TIP3    H143331   2.746   3.944  11.115 -1.2462 -0.5524 -0.3795
 7280TIP3    H243332   2.704   4.039  11.225  0.1621  0.0252 -0.3110
 7281TIP3   OH243333   3.935   2.195  11.879 -0.2801  0.1990 -0.4176
 7281TIP3    H143334   3.954   2.102  11.891 -1.1343 -0.1599 -1.6412
 7281TIP3    H243335   3.843   2.198  11.853  0.0593  1.2649 -1.6003
 7282TIP3   OH243336   0.722   6.218   6.160  0.0762 -0.3739  0.3278
 7282TIP3    H143337   0.725   6.280   6.232  0.8848  0.9148 -0.7607
 7282TIP3    H243338   0.807   6.174   6.163  0.3596  0.1192 -0.1792
 7283TIP3   OH243339   6.604   3.869   2.531  0.5594  0.3101  0.1833
 7283TIP3    H143340   6.605   3.950   2.479  0.1524  0.5392  0.5238
 7283TIP3    H243341   6.565   3.895   2.615  1.1099 -0.0826  0.5634
 7284TIP3   OH243342   5.902   2.951  13.418  0.0916  0.1011 -0.7624
 7284TIP3    H143343   5.880   3.007  13.492 -3.0019  0.7897 -2.0449
 7284TIP3    H243344   5.899   2.862  13.453 -0.9480  0.4367  0.0232
 7285TIP3   OH243345   5.151   3.068   2.923  0.2578 -0.2586  0.2681
 7285TIP3    H143346   5.159   3.148   2.872 -1.6035  0.3827  0.9295
 7285TIP3    H243347   5.077   3.021   2.884  1.4774 -1.8284 -0.2896
 7286TIP3   OH243348   6.597   6.744   3.484 -0.0985  0.3785  0.4100
 7286TIP3    H143349   6.538   6.675   3.453 -0.5745  0.2236  1.6202
 7286TIP3    H243350   6.544   6.797   3.543  0.5505  1.1871  0.2879
 7287TIP3   OH243351   4.687   5.934  16.941 -0.0106 -0.0805 -0.3569
 7287TIP3    H143352   4.767   5.985  16.946  1.0883 -1.7267 -0.2949
 7287TIP3    H243353   4.639   5.957  17.021 -0.0461  1.5848 -0.8242
 7288TIP3   OH243354   0.258   1.770   6.321 -0.1575  0.1243 -0.0440
 7288TIP3    H143355   0.318   1.844   6.328 -0.7453  0.6475 -0.4630
 7288TIP3    H243356   0.269   1.738   6.231 -1.3473  0.9605 -0.5030
 7289TIP3   OH243357   1.483   5.388   3.663 -0.5918 -0.1283 -0.3699
 7289TIP3    H143358   1.528   5.307   3.687  0.1410  0.1095 -0.9187
 7289TIP3    H243359   1.417   5.400   3.732 -0.2859 -0.8474  0.0598
 7290TIP3   OH243360   1.043   5.186  16.849  0.7187 -0.0781  0.2626
 7290TIP3    H143361   0.955   5.153  16.832  0.5049 -0.1268  1.4039
 7290TIP3    H243362   1.052   5.261  16.789  0.2408 -0.5987 -0.4794
 7291TIP3   OH243363   4.937   0.823   5.199 -0.0366  0.0377 -0.2052
 7291TIP3    H143364   4.842   0.833   5.187 -0.2517 -0.6265  0.8217
 7291TIP3    H243365   4.969   0.803   5.112 -0.8665  0.1095 -0.5435
 7292TIP3   OH243366   0.961   3.031   4.186 -0.7045  0.0716 -0.3833
 7292TIP3    H143367   0.963   3.022   4.282 -1.5857  1.3009 -0.2315
 7292TIP3    H243368   0.870   3.016   4.162 -0.4031 -0.7081 -1.1078
 7293TIP3   OH243369   2.618   0.788  12.319 -0.0884  0.0871  0.1066
 7293TIP3    H143370   2.586   0.761  12.232 -2.1379  3.0382 -0.2238
 7293TIP3    H243371   2.677   0.861  12.301 -0.3159  0.5483  1.1437
 7294TIP3   OH243372   3.453   0.476   4.185  0.3371 -0.6813  0.1597
 7294TIP3    H143373   3.400   0.490   4.107 -0.2160  0.4487  0.7075
 7294TIP3    H243374   3.544   0.484   4.155  0.1856 -1.7260 -0.6165
 7295TIP3   OH243375   3.867   0.319  14.318  0.1099 -0.4694 -0.4020
 7295TIP3    H143376   3.822   0.254  14.264  0.7246 -1.1472 -0.1166
 7295TIP3    H243377   3.868   0.281  14.406 -0.6291  0.4978  0.0410
 7296TIP3   OH243378   5.603   0.879  11.274  0.7582 -0.5589 -0.0491
 7296TIP3    H143379   5.569   0.940  11.208 -1.8339 -1.7425  0.0337
 7296TIP3    H243380   5.629   0.935  11.347 -0.4708  0.5454 -0.4131
 7297TIP3   OH243381   6.329   3.850  15.956  0.0148 -0.0125  0.2088
 7297TIP3    H143382   6.263   3.909  15.919  0.5465  0.2496 -0.3194
 7297TIP3    H243383   6.411   3.899  15.952 -0.1937  0.9364  3.7045
 7298TIP3   OH243384   2.830   6.378   3.873  0.5283 -0.1613  0.0653
 7298TIP3    H143385   2.901   6.359   3.934 -0.5860  1.0282  1.8342
 7298TIP3    H243386   2.859   6.457   3.827 -0.2576  1.2778  1.9324
 7299TIP3   OH243387   0.468   1.448  12.186  0.4241  0.1994 -0.8466
 7299TIP3    H143388   0.486   1.484  12.273 -0.9255  3.0519 -1.6059
 7299TIP3    H243389   0.551   1.411  12.157  1.3385  0.6826  1.0027
 7300TIP3   OH243390   3.304   1.067   0.978  0.5164 -0.0084 -0.0990
 7300TIP3    H143391   3.216   1.078   0.942  0.1088 -0.7933  0.6083
 7300TIP3    H243392   3.290   1.068   1.073  0.7559 -3.5108  0.0873
 7301TIP3   OH243393   3.711   3.353   2.608 -0.4149  0.0448  0.2453
 7301TIP3    H143394   3.747   3.419   2.668 -0.9173  1.2059 -0.6888
 7301TIP3    H243395   3.713   3.271   2.658  3.4177 -0.0161  0.3106
 7302TIP3   OH243396   0.654   1.222   5.501  0.9221 -0.3543 -0.0364
 7302TIP3    H143397   0.694   1.303   5.467  1.8392 -0.2433  1.2232
 7302TIP3    H243398   0.560   1.237   5.495  1.0796  0.5367 -0.4545
 7303TIP3   OH243399   0.566   5.987  16.116 -0.2415 -0.1685  0.3305
 7303TIP3    H143400   0.544   5.932  16.191  0.7649  0.9180  1.4778
 7303TIP3    H243401   0.522   6.070  16.134 -1.0603 -0.3000 -0.9564
 7304TIP3   OH243402   2.967   3.797   3.104  0.0290 -0.4990 -0.0666
 7304TIP3    H143403   2.905   3.783   3.033 -0.4527 -1.2616  0.4912
 7304TIP3    H243404   2.929   3.867   3.157  0.6358  0.4304 -0.8137
 7305TIP3   OH243405   2.377   2.585   1.251 -0.2984  0.2452  0.0331
 7305TIP3    H143406   2.466   2.603   1.282  0.0351  2.6827 -1.9950
 7305TIP3    H243407   2.387   2.510   1.192  0.4422  0.5144 -0.1996
 7306TIP3   OH243408   0.730   1.077  14.768  0.1737  0.8010 -0.4416
 7306TIP3    H143409   0.712   1.079  14.862 -0.5455  0.4501 -0.5679
 7306TIP3    H243410   0.645   1.064  14.727  0.6823 -0.8016 -1.0659
 7307TIP3   OH243411   0.079   1.737  16.085  0.1662 -0.5824  0.1351
 7307TIP3    H143412   0.164   1.716  16.045  1.3408  0.4493  1.9567
 7307TIP3    H243413   0.099   1.808  16.146 -1.9221 -0.7229  1.0368
 7308TIP3   OH243414   3.638   4.284  11.018  0.2825 -0.1507  0.2236
 7308TIP3    H143415   3.564   4.235  10.983  0.9904 -1.2772  0.2684
 7308TIP3    H243416   3.604   4.373  11.031 -0.4706 -0.0923 -1.7398
 7309TIP3   OH243417   1.317   0.018   3.437  0.1806  0.4495 -0.2030
 7309TIP3    H143418   1.267  -0.058   3.468 -1.5082  1.4972 -0.2074
 7309TIP3    H243419   1.408  -0.013   3.433 -0.1203 -0.9140  1.8959
 7310TIP3   OH243420   4.131   2.097  10.546  0.2353  0.2426 -0.1508
 7310TIP3    H143421   4.059   2.109  10.607  0.0303 -1.1000 -0.0999
 7310TIP3    H243422   4.200   2.155  10.578 -0.6682  1.2255  0.0367
 7311TIP3   OH243423   0.699   6.791   0.086  0.5740 -0.1595  0.1325
 7311TIP3    H143424   0.626   6.737   0.117  1.1333 -1.0806 -0.1143
 7311TIP3    H243425   0.712   6.856   0.155 -1.4474  0.9841 -0.4954
 7312TIP3   OH243426   0.003   0.109   0.737  0.3310 -0.7027  0.0299
 7312TIP3    H143427  -0.070   0.063   0.696  0.8602 -1.8564  0.3517
 7312TIP3    H243428   0.081   0.076   0.694  0.8007 -0.9812  1.0559
 7313TIP3   OH243429   0.974   2.411  13.453 -0.2503 -0.2566  0.5061
 7313TIP3    H143430   1.000   2.399  13.361  1.7429 -1.6072  1.1798
 7313TIP3    H243431   1.051   2.449  13.495 -1.2416  0.6182  1.5987
 7314TIP3   OH243432   5.277   0.243  15.270  0.1915 -0.2882  0.3050
 7314TIP3    H143433   5.242   0.157  15.246 -0.1337 -0.2856  0.7475
 7314TIP3    H243434   5.330   0.226  15.348 -0.4237  0.0133  0.7956
 7315TIP3   OH243435   6.641   4.398   1.906 -0.4906  0.2054  0.3296
 7315TIP3    H143436   6.678   4.388   1.819 -2.3132  0.1151 -0.4862
 7315TIP3    H243437   6.687   4.333   1.959  0.2981 -0.0876 -0.6719
 7316TIP3   OH243438   4.939   1.570  17.238  0.5590  0.1907  0.6608
 7316TIP3    H143439   4.927   1.494  17.181  0.7036  0.6052  0.0661
 7316TIP3    H243440   5.034   1.580  17.245  0.5626  1.2997 -0.6176
 7317TIP3   OH243441   6.382   2.855   2.484  0.5804 -0.1423  0.2418
 7317TIP3    H143442   6.382   2.929   2.423  1.1087 -0.0210  0.3886
 7317TIP3    H243443   6.291   2.825   2.484  0.3261  0.5969  0.2897
 7318TIP3   OH243444   2.761   6.565   4.115  0.1010  0.3238  0.6102
 7318TIP3    H143445   2.839   6.620   4.119  0.2523  0.4160 -1.9035
 7318TIP3    H243446   2.794   6.476   4.123  0.8996  0.1820 -2.8109
 7319TIP3   OH243447   5.596   3.792  15.136 -0.3044  0.5651  0.1467
 7319TIP3    H143448   5.521   3.733  15.146  0.3322 -0.4096 -0.5950
 7319TIP3    H243449   5.586   3.827  15.047 -0.3397  1.1106  0.3619
 7320TIP3   OH243450   0.325   4.879   3.833 -0.5289  0.1975 -0.2911
 7320TIP3    H143451   0.393   4.943   3.811  0.8437 -1.6256 -1.7168
 7320TIP3    H243452   0.269   4.876   3.755  0.1764 -1.1958 -0.7802
 7321TIP3   OH243453   1.583   2.430  16.043  0.1128  0.6415  0.3199
 7321TIP3    H143454   1.517   2.426  15.974  0.9464  0.7222 -0.5216
 7321TIP3    H243455   1.639   2.504  16.017  1.9977 -0.9451 -0.3976
 7322TIP3   OH243456   0.785   0.774  10.688  0.1734  0.8446  0.3858
 7322TIP3    H143457   0.718   0.842  10.694 -0.0504  0.7413 -0.6899
 7322TIP3    H243458   0.768   0.731  10.604  0.5682 -0.2720  0.8554
 7323TIP3   OH243459   3.663   5.984   4.209  0.4903  0.0759  0.0649
 7323TIP3    H143460   3.718   6.061   4.193 -0.4443  0.9366  0.8848
 7323TIP3    H243461   3.719   5.910   4.187  1.9424  0.9268  0.7332
 7324TIP3   OH243462   2.579   0.221   5.691  0.3146  0.0669  0.2212
 7324TIP3    H143463   2.661   0.234   5.643  1.4652  1.6925  2.4641
 7324TIP3    H243464   2.520   0.289   5.658 -0.0512 -0.8726 -1.1330
 7325TIP3   OH243465   2.514   0.671  12.803 -0.0619  0.4660 -0.2100
 7325TIP3    H143466   2.475   0.702  12.721  1.0310 -1.0110 -1.3236
 7325TIP3    H243467   2.603   0.706  12.803 -0.0580  0.4757  0.3811
 7326TIP3   OH243468   1.199   4.324  14.582 -0.0233  0.2280  0.2586
 7326TIP3    H143469   1.155   4.240  14.595 -0.2533  0.4004  0.6133
 7326TIP3    H243470   1.173   4.351  14.494  0.2496 -0.1897  0.0490
 7327TIP3   OH243471   1.782   3.830  11.806 -0.2926 -0.0295  0.0705
 7327TIP3    H143472   1.811   3.778  11.881  1.0688 -0.4054 -0.6884
 7327TIP3    H243473   1.762   3.916  11.843 -0.0118 -0.3178  0.9212
 7328TIP3   OH243474   0.224   4.059   3.682  0.1356 -0.0333  0.4680
 7328TIP3    H143475   0.242   3.982   3.628  0.8226  0.9371 -0.7423
 7328TIP3    H243476   0.192   4.124   3.620  2.0945  1.5146  0.9849
 7329TIP3   OH243477   5.088   5.432  16.037  0.1860 -0.7738 -0.1102
 7329TIP3    H143478   5.070   5.349  16.081 -0.7383 -0.8602 -0.6305
 7329TIP3    H243479   5.051   5.499  16.095  0.0022 -0.8054 -0.1884
 7330TIP3   OH243480   3.411   1.497  13.779  0.3784  0.1748  0.9167
 7330TIP3    H143481   3.357   1.572  13.755  0.0983 -0.4472 -0.5185
 7330TIP3    H243482   3.463   1.527  13.853 -0.6826  1.3487  1.2267
 7331TIP3   OH243483   6.725   0.428  17.205 -0.0934  0.7138  0.2659
 7331TIP3    H143484   6.757   0.388  17.124  0.8648  1.6712  0.1425
 7331TIP3    H243485   6.657   0.368  17.237  0.0288 -0.0468 -0.8557
 7332TIP3   OH243486   1.534   2.895  11.574  0.3455 -1.0053 -0.0694
 7332TIP3    H143487   1.489   2.817  11.606  0.3430 -0.5805  0.9968
 7332TIP3    H243488   1.623   2.887  11.607  0.8070 -1.3465 -1.3272
 7333TIP3   OH243489   0.761   6.709   3.350 -0.2871 -0.1632  0.6991
 7333TIP3    H143490   0.749   6.675   3.439 -1.8630  2.2729  1.5205
 7333TIP3    H243491   0.841   6.761   3.356  0.2412 -0.9177  0.3520
 7334TIP3   OH243492   2.611   3.579   5.736 -0.0583  0.2833  0.1256
 7334TIP3    H143493   2.638   3.529   5.659 -0.2528 -0.0007  0.2429
 7334TIP3    H243494   2.620   3.519   5.809  3.0615  1.4271  0.8265
 7335TIP3   OH243495   3.193   3.304  12.322  0.2637 -0.1672 -0.1508
 7335TIP3    H143496   3.254   3.269  12.386 -0.5070  0.2349  0.8290
 7335TIP3    H243497   3.219   3.395  12.310  0.0491 -0.0791  0.0403
 7336TIP3   OH243498   5.010   1.751   0.719  0.4452 -0.0700 -0.0991
 7336TIP3    H143499   4.997   1.837   0.680 -1.2560  0.0880  0.7540
 7336TIP3    H243500   5.052   1.769   0.803 -1.0862  0.0526  0.6589
 7337TIP3   OH243501   2.073   1.528  13.143 -0.1296 -0.2495 -0.5691
 7337TIP3    H143502   2.097   1.440  13.173  0.3523  0.2563  0.5887
 7337TIP3    H243503   2.038   1.571  13.220  2.0811  1.4408 -0.3997
 7338TIP3   OH243504   4.969   4.313  16.215 -0.3411  0.4141  0.3414
 7338TIP3    H143505   4.935   4.291  16.128  0.5905  0.4004 -0.0425
 7338TIP3    H243506   4.979   4.408  16.214  2.9471  0.1882 -0.9138
 7339TIP3   OH243507   0.648   5.696  17.395 -0.0617  0.1027 -0.3487
 7339TIP3    H143508   0.710   5.728  17.461  1.2894 -1.9670 -0.5171
 7339TIP3    H243509   0.565   5.738  17.418  0.9094  1.3265  1.1694
 7340TIP3   OH243510   1.071   6.663   3.905 -0.3291 -0.0857  0.2619
 7340TIP3    H143511   1.132   6.595   3.875 -0.4506 -0.5593  1.0601
 7340TIP3    H243512   0.987   6.617   3.914 -0.0060 -0.3050  2.6423
 7341TIP3   OH243513   1.531   5.998   2.160 -0.2760 -0.0334 -0.3018
 7341TIP3    H143514   1.622   6.015   2.134 -0.0149  2.5723  1.9332
 7341TIP3    H243515   1.511   5.914   2.120  4.2761 -2.5800  1.9390
 7342TIP3   OH243516   0.495   0.651  13.809 -0.2401  0.1625 -0.0772
 7342TIP3    H143517   0.446   0.681  13.732 -1.5413  0.0483  0.6956
 7342TIP3    H243518   0.445   0.683  13.884  0.6439 -0.3180  0.7359
 7343TIP3   OH243519   4.502   0.449   6.476 -0.2010 -0.0146 -0.2239
 7343TIP3    H143520   4.462   0.512   6.415 -1.2852  0.2707  0.7449
 7343TIP3    H243521   4.595   0.448   6.452 -0.2685  1.5097 -0.6361
 7344TIP3   OH243522   2.051   5.107  15.603 -0.2489  0.2363  0.4903
 7344TIP3    H143523   1.995   5.082  15.676 -3.2209  1.5602 -1.1478
 7344TIP3    H243524   2.063   5.027  15.552 -1.4970  0.0791  0.4024
 7345TIP3   OH243525   1.936   3.802   4.833 -0.1124  0.1309  0.5036
 7345TIP3    H143526   2.000   3.782   4.902 -0.6041  0.6519  1.1260
 7345TIP3    H243527   1.973   3.878   4.788 -0.1356  0.2412  0.6671
 7346TIP3   OH243528   1.535   1.591  13.497 -0.0207 -0.1322  0.0923
 7346TIP3    H143529   1.441   1.591  13.477 -0.1617 -0.1013  0.7468
 7346TIP3    H243530   1.577   1.614  13.413 -0.5462 -0.9188 -0.3970
 7347TIP3   OH243531   5.458   3.373   3.073 -0.4394 -0.0024 -0.2395
 7347TIP3    H143532   5.403   3.450   3.056  0.7639  0.7309 -0.9084
 7347TIP3    H243533   5.547   3.407   3.078  0.0685 -1.2926 -0.0596
 7348TIP3   OH243534   3.102   2.171   0.549  0.0776  0.2471 -0.3083
 7348TIP3    H143535   3.097   2.173   0.453 -0.7324  2.4589 -0.2834
 7348TIP3    H243536   3.021   2.215   0.578 -0.0357 -0.9884  1.4281
 7349TIP3   OH243537   0.954   1.417   2.352  0.2660  0.5326 -0.0344
 7349TIP3    H143538   0.946   1.372   2.268 -2.4261 -1.8889  1.3088
 7349TIP3    H243539   1.039   1.389   2.386  1.1948  1.2001 -1.7100
 7350TIP3   OH243540   3.245   6.116  16.798  0.0115  0.7049  0.3433
 7350TIP3    H143541   3.322   6.127  16.742  0.0223  1.2911  0.4598
 7350TIP3    H243542   3.172   6.105  16.737  0.2738 -0.6211  0.2360
 7351TIP3   OH243543   5.203   3.902   1.011 -0.0220 -0.0297 -0.4687
 7351TIP3    H143544   5.216   3.808   0.999 -0.3756 -0.5938  2.7605
 7351TIP3    H243545   5.170   3.911   1.100 -0.0863  3.1893 -0.6928
 7352TIP3   OH243546   6.728   1.073  15.349  0.2409  0.4437  0.1400
 7352TIP3    H143547   6.687   1.145  15.398  1.1119 -0.3285  2.0899
 7352TIP3    H243548   6.822   1.087  15.359  0.4299 -1.0166  0.6731
 7353TIP3   OH243549   4.895   0.968  15.791 -0.3618  0.1129 -0.1690
 7353TIP3    H143550   4.844   0.920  15.726 -2.0474  2.0396 -0.3424
 7353TIP3    H243551   4.856   0.944  15.875  0.6485 -0.9681  0.0230
 7354TIP3   OH243552   5.796   1.978  14.117  0.4845 -0.4470  0.1352
 7354TIP3    H143553   5.812   2.026  14.036 -0.2957 -2.6855 -1.4521
 7354TIP3    H243554   5.702   1.991  14.135  0.7390  0.3989  0.9924
 7355TIP3   OH243555   0.146   3.703   1.917  0.1222  0.4810  0.1738
 7355TIP3    H143556   0.163   3.639   1.986 -0.3967  0.7364  0.5412
 7355TIP3    H243557   0.075   3.665   1.866 -0.7740  1.1483  0.9053
 7356TIP3   OH243558   4.881   2.536   5.802 -0.0374 -0.1751  0.2331
 7356TIP3    H143559   4.787   2.551   5.795 -0.1336 -0.7377  0.2394
 7356TIP3    H243560   4.909   2.593   5.873 -0.1879  0.7638 -0.4384
 7357TIP3   OH243561   0.801   5.339   0.795  0.3333 -0.6165  0.1129
 7357TIP3    H143562   0.775   5.265   0.851 -3.4252 -0.0633 -0.6025
 7357TIP3    H243563   0.755   5.414   0.831  1.0265  0.6003 -1.4006
 7358TIP3   OH243564   1.611   0.136   5.744  0.2944 -0.2953 -0.0766
 7358TIP3    H143565   1.524   0.115   5.778  0.0520 -0.2322 -0.6568
 7358TIP3    H243566   1.648   0.196   5.809  0.3818 -1.2685  0.7908
 7359TIP3   OH243567   6.682   2.908   1.902  0.6720 -0.2497  0.5563
 7359TIP3    H143568   6.619   2.926   1.971  0.1951 -0.6740  0.2365
 7359TIP3    H243569   6.632   2.863   1.834  1.3111 -0.5670  0.2836
 7360TIP3   OH243570   3.346   6.469  16.043  0.0260 -0.2180  0.7401
 7360TIP3    H143571   3.370   6.435  15.957  2.1886 -1.0771  1.6302
 7360TIP3    H243572   3.337   6.391  16.098 -1.8296  0.2870  1.2333
 7361TIP3   OH243573   3.466   3.751  15.121 -0.3576  0.3025  0.0995
 7361TIP3    H143574   3.544   3.702  15.097 -0.0649 -1.3204  3.7158
 7361TIP3    H243575   3.403   3.733  15.051  1.4490 -0.9464 -1.2820
 7362TIP3   OH243576   3.701   5.927  13.453  0.1106  0.1656  0.1611
 7362TIP3    H143577   3.751   5.849  13.474  1.7213  1.0355 -0.2713
 7362TIP3    H243578   3.612   5.907  13.481 -0.0537 -2.6639 -1.9175
 7363TIP3   OH243579   5.393   1.985   3.498 -0.2616 -0.7634 -0.1920
 7363TIP3    H143580   5.470   1.952   3.544  0.7884  2.5213  0.6730
 7363TIP3    H243581   5.417   1.983   3.406  0.7617 -0.0842  0.0440
 7364TIP3   OH243582   1.010   0.443   6.362 -0.3767 -0.7801  0.8976
 7364TIP3    H143583   0.926   0.408   6.334 -0.9045 -0.6664  2.2566
 7364TIP3    H243584   1.067   0.366   6.369 -0.4507 -0.8962  0.2960
 7365TIP3   OH243585   5.304   3.748   1.758  0.3524 -0.2161 -0.2621
 7365TIP3    H143586   5.343   3.663   1.778 -0.3626 -0.1725  1.5350
 7365TIP3    H243587   5.379   3.807   1.751  0.7467 -0.5016  1.2001
 7366TIP3   OH243588   6.730   5.242  12.916  0.2432 -0.5997 -0.0103
 7366TIP3    H143589   6.780   5.258  12.836  1.1108 -0.9700  0.4375
 7366TIP3    H243590   6.641   5.268  12.895  0.9680  1.9974 -0.2213
 7367TIP3   OH243591   1.788   0.060   0.641  0.3529  0.4153  0.2281
 7367TIP3    H143592   1.749  -0.002   0.580 -2.5230  1.6230  0.6696
 7367TIP3    H243593   1.763   0.146   0.608  0.3492  1.1632  2.0566
 7368TIP3   OH243594   5.732   4.001   4.197 -0.5300 -0.6315  0.3690
 7368TIP3    H143595   5.819   4.013   4.159 -0.8232  1.8270  0.3001
 7368TIP3    H243596   5.677   3.977   4.122 -0.0946 -1.3790  0.2728
 7369TIP3   OH243597   2.120   1.124  15.099 -0.3235 -0.2389  0.3838
 7369TIP3    H143598   2.103   1.111  15.005 -2.0739  1.1336  0.4664
 7369TIP3    H243599   2.213   1.106  15.108 -0.0418 -0.1505 -1.6838
 7370TIP3   OH243600   6.694   4.808  13.373  0.3723 -0.6326  0.5053
 7370TIP3    H143601   6.660   4.772  13.291  0.2768 -0.4438  0.4595
 7370TIP3    H243602   6.696   4.903  13.358  1.3592 -0.6719  0.3496
 7371TIP3   OH243603   5.270   6.126   5.218  0.5752  0.6082  0.8629
 7371TIP3    H143604   5.309   6.119   5.131  0.7696  2.5084  0.7468
 7371TIP3    H243605   5.180   6.097   5.207  0.9886 -0.5274  0.3592
 7372TIP3   OH243606   6.203   4.782   0.563  0.1079  0.4084 -0.1881
 7372TIP3    H143607   6.222   4.868   0.600 -1.7417  1.7781 -2.1698
 7372TIP3    H243608   6.191   4.798   0.470  0.1726 -2.1124 -0.7096
 7373TIP3   OH243609   6.111   1.271  14.191 -0.0915 -0.2278 -0.4782
 7373TIP3    H143610   6.042   1.265  14.125  1.4346  1.3886 -2.3150
 7373TIP3    H243611   6.090   1.350  14.240  0.0213 -0.1687 -0.5243
 7374TIP3   OH243612   3.721   3.209   4.938  0.4741 -0.0894 -0.4122
 7374TIP3    H143613   3.730   3.293   4.894 -1.1800  0.7292  0.7073
 7374TIP3    H243614   3.641   3.218   4.990  1.6478 -1.4144  1.7713
 7375TIP3   OH243615   4.771   4.444   4.340 -0.1455  0.3506 -0.2435
 7375TIP3    H143616   4.863   4.416   4.336 -1.0894 -3.1300 -1.3311
 7375TIP3    H243617   4.742   4.421   4.428 -0.3941 -0.3449 -0.4923
 7376TIP3   OH243618   5.037   1.895  14.514  0.6854  0.2568  0.4372
 7376TIP3    H143619   4.948   1.930  14.522  0.8493  0.2567  2.8386
 7376TIP3    H243620   5.026   1.804  14.489  0.1525  0.9688 -2.2302
 7377TIP3   OH243621   5.889   3.991  15.236 -0.6366 -0.8767 -0.1349
 7377TIP3    H143622   5.838   4.036  15.169 -0.0891 -1.2405 -0.8107
 7377TIP3    H243623   5.864   3.899  15.228  0.0533 -1.0427 -0.4060
 7378TIP3   OH243624   0.222   4.941   0.691  0.9527 -0.1769  0.2163
 7378TIP3    H143625   0.184   5.027   0.676  2.2789  0.7634  1.8962
 7378TIP3    H243626   0.212   4.927   0.785  1.9488 -1.2716  0.1789
 7379TIP3   OH243627   0.344   1.468  14.139  0.6649 -0.1019 -0.0776
 7379TIP3    H143628   0.327   1.507  14.224 -0.2667  0.6559 -0.5867
 7379TIP3    H243629   0.365   1.376  14.157 -3.7435 -1.1525  0.7356
 7380TIP3   OH243630   0.038   5.821  11.720  1.1462  0.1753 -0.3852
 7380TIP3    H143631   0.027   5.785  11.808  1.7148 -0.6510 -0.6399
 7380TIP3    H243632   0.075   5.908  11.734  1.4710 -0.0469  0.1934
 7381TIP3   OH243633   6.432   1.301  17.199 -0.2282  0.2636 -0.4847
 7381TIP3    H143634   6.423   1.219  17.247 -0.9399  0.9763  0.6768
 7381TIP3    H243635   6.521   1.331  17.218 -0.0766 -0.0854 -0.6503
 7382TIP3   OH243636   1.659   5.434   2.545  0.5490 -0.0578 -0.8088
 7382TIP3    H143637   1.615   5.386   2.474  0.0156  1.1480 -1.3114
 7382TIP3    H243638   1.596   5.502   2.570  1.7674  1.1518 -0.9442
 7383TIP3   OH243639   5.380   2.720   6.332  0.2786 -0.0667 -0.1063
 7383TIP3    H143640   5.469   2.752   6.344  0.1913 -0.3530  1.4416
 7383TIP3    H243641   5.329   2.764   6.400 -0.7559  0.0076 -0.8950
 7384TIP3   OH243642   2.677   5.514  15.078 -0.0085  0.1858 -0.1998
 7384TIP3    H143643   2.678   5.605  15.051 -1.8777  0.1133 -0.6564
 7384TIP3    H243644   2.696   5.516  15.172 -0.2454  1.0773 -0.1615
 7385TIP3   OH243645   0.575   3.410  12.032  0.5557 -0.2292  0.0527
 7385TIP3    H143646   0.520   3.488  12.042  1.6983  0.6058  0.1762
 7385TIP3    H243647   0.593   3.405  11.938 -1.4947 -1.8110 -0.3149
 7386TIP3   OH243648   1.638   0.456  13.759 -0.5745  0.8217  0.1591
 7386TIP3    H143649   1.723   0.441  13.719 -0.7650  2.3289 -0.8597
 7386TIP3    H243650   1.648   0.422  13.849  0.9742  0.6731 -0.0447
 7387TIP3   OH243651   1.592   4.776   2.773  0.0534 -0.1318  0.4528
 7387TIP3    H143652   1.594   4.683   2.750 -0.7770 -0.1278  0.3358
 7387TIP3    H243653   1.565   4.777   2.865 -1.1234  0.0305  0.1209
 7388TIP3   OH243654   4.720   4.962   0.746 -0.6566  0.2760 -0.2401
 7388TIP3    H143655   4.680   4.951   0.832 -1.5217 -2.9752 -0.9205
 7388TIP3    H243656   4.646   4.964   0.685 -0.0203 -1.8524 -1.1854
 7389TIP3   OH243657   5.880   2.595   5.001 -0.5665 -0.7504 -0.0945
 7389TIP3    H143658   5.939   2.519   5.003  0.2670 -0.1967 -1.8828
 7389TIP3    H243659   5.810   2.572   5.062  2.1803 -0.8335  3.3290
 7390TIP3   OH243660   0.782   6.372  17.122  0.2044 -0.3437 -0.4298
 7390TIP3    H143661   0.737   6.429  17.185 -0.8926 -1.3066 -0.3057
 7390TIP3    H243662   0.861   6.344  17.168 -0.5737 -1.0220  0.5324
 7391TIP3   OH243663   6.505   2.156   4.432  0.5765 -0.2558 -0.4400
 7391TIP3    H143664   6.535   2.170   4.342 -0.1631 -1.4117 -0.8814
 7391TIP3    H243665   6.585   2.161   4.484  1.2825 -1.3165 -1.3727
 7392TIP3   OH243666   6.199   2.161   5.352 -0.1512 -0.2605 -0.8304
 7392TIP3    H143667   6.230   2.151   5.442 -2.0980 -0.1983 -0.0925
 7392TIP3    H243668   6.249   2.097   5.302  1.7294  0.4334  0.0676
 7393TIP3   OH243669   1.330   1.788  14.446 -0.0007  0.0628 -0.2475
 7393TIP3    H143670   1.270   1.739  14.503  1.4414 -0.2499  1.0803
 7393TIP3    H243671   1.404   1.728  14.433 -0.0458  0.3360 -2.0629
 7394TIP3   OH243672   5.952   0.966   0.129 -0.3579 -0.1964  0.7549
 7394TIP3    H143673   5.976   1.047   0.175 -0.8897 -0.0267  0.7448
 7394TIP3    H243674   5.888   0.994   0.063 -3.2540 -1.0121  2.9773
 7395TIP3   OH243675   2.521   5.386  15.949  0.1469 -0.2599 -0.0415
 7395TIP3    H143676   2.560   5.304  15.918  0.8547 -0.5944  1.6484
 7395TIP3    H243677   2.440   5.359  15.992  0.8108 -0.1991  1.2896
 7396TIP3   OH243678   1.770   1.879  12.589 -1.1682 -0.3648  0.0314
 7396TIP3    H143679   1.847   1.823  12.597 -1.1522 -0.4811 -0.9083
 7396TIP3    H243680   1.717   1.856  12.666 -0.3110 -0.3241  0.6548
 7397TIP3   OH243681   0.674   0.396  12.699  0.2912  1.0419  0.6131
 7397TIP3    H143682   0.606   0.365  12.639  1.2422 -0.4147  0.2442
 7397TIP3    H243683   0.630   0.464  12.751 -1.5988 -0.1784  0.7411
 7398TIP3   OH243684   4.953   1.827  14.876 -0.8402  0.4296 -0.2469
 7398TIP3    H143685   4.918   1.746  14.839 -0.6440  1.4288 -2.8485
 7398TIP3    H243686   4.881   1.890  14.868 -1.1633  0.4715  2.1963
 7399TIP3   OH243687   0.626   4.270  13.345 -0.5472  0.6866  0.1861
 7399TIP3    H143688   0.594   4.255  13.256 -0.4601  0.2114  0.2305
 7399TIP3    H243689   0.674   4.353  13.340 -0.4876  0.6303 -0.2243
 7400TIP3   OH243690   4.586   3.633   5.200 -0.3806  0.7597  0.0511
 7400TIP3    H143691   4.546   3.658   5.117 -2.3221 -0.6669  0.5092
 7400TIP3    H243692   4.513   3.620   5.260  0.9604  2.4933  2.2817
 7401TIP3   OH243693   2.223   5.671   3.341  0.0134  0.0992  0.1806
 7401TIP3    H143694   2.311   5.639   3.359 -0.2008 -1.8376 -1.8474
 7401TIP3    H243695   2.222   5.759   3.379  3.2242  0.6795 -0.7568
 7402TIP3   OH243696   2.616   5.744  15.450 -0.0443 -0.1386 -0.1820
 7402TIP3    H143697   2.524   5.768  15.455 -0.6065 -2.3114  2.9031
 7402TIP3    H243698   2.616   5.648  15.442  1.9007 -0.3057  0.9896
 7403TIP3   OH243699   6.707   1.219   3.538  0.3281  0.1758  0.0864
 7403TIP3    H143700   6.757   1.301   3.548  2.2910 -0.7768 -1.2487
 7403TIP3    H243701   6.650   1.235   3.463  0.4706  0.4260  0.0283
 7404TIP3   OH243702   4.321   0.525   0.626 -0.2839 -0.2606  0.7492
 7404TIP3    H143703   4.283   0.601   0.584 -1.8311 -0.4713  1.6860
 7404TIP3    H243704   4.409   0.517   0.588  0.6892  3.0905  1.9895
 7405TIP3   OH243705   4.194   0.061   4.335 -0.2570 -0.0151  0.2587
 7405TIP3    H143706   4.272   0.116   4.328  0.0802 -0.3977  0.8545
 7405TIP3    H243707   4.227  -0.029   4.327 -1.1401 -0.1742 -3.9055
 7406TIP3   OH243708   5.078   1.737  10.585 -0.0950  0.1527 -0.3822
 7406TIP3    H143709   5.117   1.748  10.672 -0.4552 -1.7657  0.0739
 7406TIP3    H243710   5.139   1.782  10.526  1.6044 -0.7747  0.5792
 7407TIP3   OH243711   0.711   6.515   1.227 -0.1856 -0.2878 -0.1691
 7407TIP3    H143712   0.686   6.590   1.173  1.1369 -0.5052 -1.1319
 7407TIP3    H243713   0.803   6.500   1.206  0.8301  0.4729  3.1702
 7408TIP3   OH243714   3.084   3.983  11.488 -0.1653  0.2740  0.0483
 7408TIP3    H143715   3.107   4.076  11.490 -0.8428  0.4416  0.9368
 7408TIP3    H243716   3.132   3.947  11.413  0.7046  1.1768  0.1570
 7409TIP3   OH243717   6.229   2.674   5.490  0.7156 -0.0090 -0.3418
 7409TIP3    H143718   6.160   2.643   5.431  0.9636  0.3853 -0.8449
 7409TIP3    H243719   6.187   2.679   5.576  0.9819 -3.0180  0.0705
 7410TIP3   OH243720   2.377   3.080   5.961  0.2095 -0.0446 -0.0239
 7410TIP3    H143721   2.335   3.131   6.031 -1.3164 -0.2149 -0.7747
 7410TIP3    H243722   2.368   3.134   5.883  1.1111 -0.2442 -0.2760
 7411TIP3   OH243723   6.411   5.477   0.426  0.5499  0.1460 -0.9773
 7411TIP3    H143724   6.329   5.525   0.432  2.2123  3.4293 -1.9531
 7411TIP3    H243725   6.472   5.526   0.481  2.1922 -1.4143 -1.2878
 7412TIP3   OH243726   5.506   5.396   1.758  0.3890 -0.4753  0.2513
 7412TIP3    H143727   5.498   5.407   1.663  2.4242 -1.2230 -0.0630
 7412TIP3    H243728   5.561   5.318   1.768 -1.1154 -1.3654  2.0842
 7413TIP3   OH243729   1.980   6.487   2.229  0.1462 -0.6687  0.3482
 7413TIP3    H143730   1.924   6.504   2.154  0.6837  0.1296  0.1249
 7413TIP3    H243731   2.066   6.471   2.192  0.6264  0.6965  0.8446
 7414TIP3   OH243732   6.039   6.284   1.368  0.2734 -0.0138  0.2824
 7414TIP3    H143733   6.010   6.211   1.422  0.7394 -0.9349 -0.6731
 7414TIP3    H243734   6.006   6.263   1.280  0.1113  1.1069  0.0568
 7415TIP3   OH243735   5.395   1.238   1.710  0.1057  0.6469 -0.0335
 7415TIP3    H143736   5.304   1.208   1.714  0.1817  0.5348  1.4246
 7415TIP3    H243737   5.419   1.230   1.617 -0.9954 -0.4445 -0.2546
 7416TIP3   OH243738   2.747   2.710   4.728  0.0798 -0.4406 -0.0266
 7416TIP3    H143739   2.674   2.735   4.671 -0.3787 -2.4290 -0.3827
 7416TIP3    H243740   2.825   2.728   4.675 -0.3122 -1.5762 -1.0317
 7417TIP3   OH243741   6.548   5.304   4.823  0.2786 -0.8033 -0.3425
 7417TIP3    H143742   6.621   5.255   4.862  0.4996 -0.1692  0.0555
 7417TIP3    H243743   6.553   5.390   4.864 -0.3670 -0.5835 -0.7223
 7418TIP3   OH243744   4.728   5.184  12.920 -1.1445  0.3379  0.7821
 7418TIP3    H143745   4.688   5.191  12.833  0.7733  3.0322 -0.0382
 7418TIP3    H243746   4.815   5.147  12.903  0.3597  3.4278  0.9877
 7419TIP3   OH243747   5.929   5.963   6.361 -0.3425  0.0053  0.0622
 7419TIP3    H143748   5.942   5.868   6.358  2.6942  0.3061  0.2058
 7419TIP3    H243749   5.899   5.986   6.273  0.6744 -0.9276 -0.5523
 7420TIP3   OH243750   1.852   0.014  16.097  0.0235 -0.0511  0.0466
 7420TIP3    H143751   1.931   0.022  16.151  1.0550 -1.3564 -1.1906
 7420TIP3    H243752   1.798  -0.051  16.143  0.5822 -0.6337 -0.0984
 7421TIP3   OH243753   1.010   5.092  10.703 -0.1213  0.0741  0.0031
 7421TIP3    H143754   0.974   5.042  10.628  0.5584 -1.7976  0.8591
 7421TIP3    H243755   0.934   5.110  10.758 -0.4423  0.3439 -0.5240
 7422TIP3   OH243756   0.056   6.477  16.495  0.2699  0.2995  0.2614
 7422TIP3    H143757  -0.024   6.515  16.459  1.2659  0.0821 -2.4095
 7422TIP3    H243758   0.112   6.552  16.514  0.7953  0.4055 -1.4533
 7423TIP3   OH243759   1.249   4.992  16.257  0.3291  0.0816  0.3620
 7423TIP3    H143760   1.194   4.991  16.335 -0.3948 -0.2191 -0.1399
 7423TIP3    H243761   1.321   5.051  16.279  0.5798 -0.6410  1.5462
 7424TIP3   OH243762   1.221   1.407   6.282  0.2355  0.3821 -0.5555
 7424TIP3    H143763   1.250   1.439   6.197  0.5976 -0.3616 -0.7263
 7424TIP3    H243764   1.233   1.312   6.277 -0.5643  0.2370  0.0104
 7425TIP3   OH243765   2.170   2.251   4.570 -0.5149 -0.3268  0.3457
 7425TIP3    H143766   2.142   2.326   4.518  2.1760  0.5038 -0.1019
 7425TIP3    H243767   2.180   2.180   4.506 -2.6869 -1.0078  0.7079
 7426TIP3   OH243768   4.796   1.704  15.201 -0.1312 -0.2859 -0.0307
 7426TIP3    H143769   4.789   1.799  15.209 -0.6731 -0.1414 -1.7600
 7426TIP3    H243770   4.878   1.690  15.154  0.0156 -0.6834  0.3407
 7427TIP3   OH243771   1.579   6.779   3.407  0.0203  0.3617  0.0202
 7427TIP3    H143772   1.586   6.760   3.313 -0.8798 -0.5611  0.1225
 7427TIP3    H243773   1.635   6.713   3.449  1.1239  1.3193  0.1049
 7428TIP3   OH243774   1.185   2.073  14.065  0.5327  0.0282 -0.3896
 7428TIP3    H143775   1.275   2.040  14.058  1.5977  2.5798  0.1349
 7428TIP3    H243776   1.154   2.074  13.974  0.6627 -1.7108 -0.4902
 7429TIP3   OH243777   0.444   1.575  13.210  0.0829  0.2048  0.9838
 7429TIP3    H143778   0.485   1.566  13.124 -1.0365 -0.0148  0.4565
 7429TIP3    H243779   0.500   1.526  13.270  1.2730  0.9724  0.5166
 7430TIP3   OH243780   0.315   3.570  16.359 -0.4182  0.3186 -0.2537
 7430TIP3    H143781   0.315   3.475  16.351 -1.8536  0.3045 -0.4041
 7430TIP3    H243782   0.312   3.602  16.269 -2.7288  0.4223 -0.1977
 7431TIP3   OH243783   2.656   4.059  16.782 -0.0524  0.3994  0.4931
 7431TIP3    H143784   2.584   4.085  16.724  0.3114 -2.9700 -1.7562
 7431TIP3    H243785   2.732   4.108  16.750 -0.1140 -0.5443 -1.2217
 7432TIP3   OH243786   3.328   2.558   6.299  0.3937 -0.0700 -1.0135
 7432TIP3    H143787   3.241   2.596   6.285 -0.2385 -0.4908  1.3945
 7432TIP3    H243788   3.379   2.630   6.337 -0.4584 -1.1039  2.4088
 7433TIP3   OH243789   3.409   2.632  13.824 -0.0773 -0.1126  0.2078
 7433TIP3    H143790   3.477   2.589  13.772  0.8155  1.1996  0.2431
 7433TIP3    H243791   3.381   2.706  13.770 -0.8694 -0.1457  0.5646
 7434TIP3   OH243792   0.673   1.449   1.852 -0.1320 -0.1666 -0.1000
 7434TIP3    H143793   0.739   1.433   1.784 -0.6746 -0.6723 -0.5139
 7434TIP3    H243794   0.717   1.507   1.914  0.4456  0.1331 -0.7717
 7435TIP3   OH243795   1.799   5.272   1.084 -0.1836  0.3864 -0.0179
 7435TIP3    H143796   1.879   5.300   1.129  1.6622 -3.1776 -0.6784
 7435TIP3    H243797   1.816   5.290   0.992 -1.5534  2.4293  0.0704
 7436TIP3   OH243798   6.585   4.473   1.076  0.0839 -0.5604  0.3638
 7436TIP3    H143799   6.571   4.431   0.991 -1.9675 -0.4738  0.6113
 7436TIP3    H243800   6.669   4.437   1.107  1.3228  0.0290 -2.0169
 7437TIP3   OH243801   2.040   5.201  13.587  0.2295 -0.1270  0.0287
 7437TIP3    H143802   2.063   5.279  13.536  0.7899 -0.1065  0.3113
 7437TIP3    H243803   2.038   5.232  13.677  0.2480 -0.3960  0.1200
 7438TIP3   OH243804   5.100   1.403   2.454  0.8691 -0.6783 -0.8140
 7438TIP3    H143805   5.175   1.377   2.401  0.9380 -0.5717 -0.7700
 7438TIP3    H243806   5.036   1.332   2.443  0.4542 -0.1625 -1.8896
 7439TIP3   OH243807   6.578   5.996  13.618  0.3015 -0.2236 -0.1232
 7439TIP3    H143808   6.655   5.984  13.561  0.8883  0.3380  0.5324
 7439TIP3    H243809   6.604   5.959  13.702 -0.6692 -1.3063 -0.2762
 7440TIP3   OH243810   5.204   1.720  14.905  0.0084  0.0134 -0.8132
 7440TIP3    H143811   5.170   1.686  14.987  0.2209  0.0804 -0.6956
 7440TIP3    H243812   5.139   1.784  14.876 -1.0271 -1.3560 -1.6649
 7441TIP3   OH243813   4.783   5.607   4.600 -0.0064 -0.0423  0.1496
 7441TIP3    H143814   4.876   5.625   4.614  0.4661 -0.7166 -1.9133
 7441TIP3    H243815   4.740   5.691   4.617  1.2071  0.8165 -0.8396
 7442TIP3   OH243816   2.057   5.796   4.442 -0.2867 -0.1449  0.2135
 7442TIP3    H143817   2.083   5.767   4.354 -0.5610  0.3593 -0.0390
 7442TIP3    H243818   2.105   5.739   4.501  0.6013  0.1093 -0.2526
 7443TIP3   OH243819   4.950   2.102  11.464  0.1904  0.3062 -0.8514
 7443TIP3    H143820   5.042   2.077  11.467  0.1615  0.1697 -1.1275
 7443TIP3    H243821   4.915   2.071  11.548  0.6503  1.3840 -0.2398
 7444TIP3   OH243822   5.186   4.086   4.286  0.7969 -0.0102  0.4146
 7444TIP3    H143823   5.109   4.037   4.314  0.7364  0.4965  1.1502
 7444TIP3    H243824   5.159   4.177   4.289  1.3180  0.1509  0.3215
 7445TIP3   OH243825   2.652   3.809   1.366  0.1974 -0.0434 -0.6583
 7445TIP3    H143826   2.659   3.874   1.296 -0.9695  0.3014 -0.4703
 7445TIP3    H243827   2.633   3.860   1.445  1.2667 -0.4497 -0.1195
 7446TIP3   OH243828   1.123   3.480  12.312 -0.3815 -0.3329  0.6926
 7446TIP3    H143829   1.060   3.511  12.377  0.3659 -0.8939  1.7029
 7446TIP3    H243830   1.191   3.437  12.362  0.0459 -1.0949 -0.4893
 7447TIP3   OH243831   3.420   0.113  14.946 -0.1318  0.2292 -0.2692
 7447TIP3    H143832   3.371   0.163  14.882 -0.1585  1.2061  0.5033
 7447TIP3    H243833   3.384   0.138  15.030 -0.8159 -1.8181  0.1119
 7448TIP3   OH243834   0.026   0.372   2.898 -0.2202  0.1050 -0.3924
 7448TIP3    H143835   0.067   0.459   2.903  0.2800 -0.1821  1.1316
 7448TIP3    H243836  -0.029   0.368   2.976 -0.3433 -0.9052 -0.5247
 7449TIP3   OH243837   1.512   2.566   4.789 -0.4159 -0.3108 -0.5943
 7449TIP3    H143838   1.531   2.499   4.724 -1.2535 -1.1104 -0.0309
 7449TIP3    H243839   1.462   2.632   4.741  1.3761  0.5145 -1.4328
 7450TIP3   OH243840   2.377   2.751  16.360  0.4302  0.5174 -0.0254
 7450TIP3    H143841   2.391   2.808  16.436 -1.0319 -0.6059  1.1283
 7450TIP3    H243842   2.415   2.800  16.287  1.9800  1.5940  1.4058
 7451TIP3   OH243843   2.727   2.417  15.044  0.1126 -0.4271 -0.2236
 7451TIP3    H143844   2.747   2.342  14.989 -0.4725  0.1787 -1.3041
 7451TIP3    H243845   2.640   2.399  15.080 -0.3047  0.0034 -0.9933
 7452TIP3   OH243846   2.652   3.528   4.446 -0.0083 -0.6187  0.5012
 7452TIP3    H143847   2.661   3.616   4.484 -1.8047  0.5424 -1.4886
 7452TIP3    H243848   2.693   3.536   4.360 -1.8717 -1.0730 -0.4943
 7453TIP3   OH243849   5.670   5.135  11.952 -0.1752  1.0460 -0.5007
 7453TIP3    H143850   5.730   5.062  11.936  0.4063  1.5070 -0.4635
 7453TIP3    H243851   5.723   5.200  11.998 -1.5196  0.1758  2.5256
 7454TIP3   OH243852   2.448   0.954  11.878 -0.3886 -0.3010 -0.6540
 7454TIP3    H143853   2.505   1.028  11.858 -0.4597 -0.2078 -0.5133
 7454TIP3    H243854   2.361   0.993  11.888 -0.3086 -0.3080  0.1175
 7455TIP3   OH243855   4.874   5.479  16.527 -0.4384  0.0763  0.4036
 7455TIP3    H143856   4.828   5.440  16.602  1.1118 -2.5884  0.0905
 7455TIP3    H243857   4.966   5.460  16.544  0.3493  2.8558 -0.3394
 7456TIP3   OH243858   3.749   2.297   2.872 -0.3196  0.5375 -0.1640
 7456TIP3    H143859   3.696   2.260   2.942  0.0375  1.4054  0.5932
 7456TIP3    H243860   3.719   2.388   2.864  1.0107  1.0517  0.2869
 7457TIP3   OH243861   2.191   3.274   4.358  0.2183  0.2402  0.0538
 7457TIP3    H143862   2.283   3.302   4.353  0.2745  0.2146  0.7637
 7457TIP3    H243863   2.190   3.187   4.318  0.2496  0.7778 -1.1604
 7458TIP3   OH243864   0.055   2.816   5.464 -0.2377  0.3618 -0.2129
 7458TIP3    H143865   0.151   2.807   5.464 -0.2322  0.3340  0.5564
 7458TIP3    H243866   0.025   2.747   5.522 -0.6635  0.8973  0.2195
 7459TIP3   OH243867   1.103   1.076   0.027 -0.0123  0.3499 -0.6679
 7459TIP3    H143868   1.095   1.023  -0.053 -0.3210  1.8340 -1.6517
 7459TIP3    H243869   1.105   1.166  -0.004  0.3351  0.9391  0.9900
 7460TIP3   OH243870   2.392   4.494   1.588 -0.1061  0.3388 -0.0295
 7460TIP3    H143871   2.432   4.466   1.670 -0.5656  0.6946  0.3190
 7460TIP3    H243872   2.300   4.508   1.610 -0.3126  0.0740 -0.6920
 7461TIP3   OH243873   4.867   5.778  15.780 -0.5514  0.1526 -0.0470
 7461TIP3    H143874   4.904   5.859  15.746  0.2677 -0.6869 -1.2484
 7461TIP3    H243875   4.791   5.760  15.724 -0.4839 -0.1125 -0.0592
 7462TIP3   OH243876   5.052   2.844   4.606  0.2176  0.3603  0.2886
 7462TIP3    H143877   5.099   2.797   4.675  2.2130  1.1905 -0.4160
 7462TIP3    H243878   5.030   2.777   4.541 -2.4036 -0.5761  1.9954
 7463TIP3   OH243879   1.759   6.381  13.802  0.3599  0.2858  0.5296
 7463TIP3    H143880   1.752   6.361  13.896  0.8487 -0.9390  0.3153
 7463TIP3    H243881   1.751   6.296  13.759  0.2521  0.8310 -0.5418
 7464TIP3   OH243882   5.249   6.053  14.775  0.0950 -0.0278 -0.3126
 7464TIP3    H143883   5.281   6.048  14.685  2.4220 -0.1331  0.4562
 7464TIP3    H243884   5.269   6.142  14.803  0.5234 -0.3658  0.4803
 7465TIP3   OH243885   4.396   3.305  16.738  1.1626  0.0618  0.5921
 7465TIP3    H143886   4.351   3.272  16.816 -1.5092 -1.2627 -1.3246
 7465TIP3    H243887   4.360   3.392  16.725  0.9106 -0.0750  0.3587
 7466TIP3   OH243888   5.194   3.420   3.681  0.1803  0.0147  0.0051
 7466TIP3    H143889   5.157   3.454   3.599  0.9324  2.0553  0.4764
 7466TIP3    H243890   5.264   3.480   3.703  2.2601 -2.3927  0.4385
 7467TIP3   OH243891   3.991   2.033   2.998 -0.1656  0.2780  0.1764
 7467TIP3    H143892   4.068   2.007   3.049 -0.6714 -0.2168  0.6973
 7467TIP3    H243893   4.016   2.116   2.958  0.2761  0.6237  1.1440
 7468TIP3   OH243894   2.061   1.999   0.667  0.2044  0.1031 -0.4217
 7468TIP3    H143895   1.975   1.959   0.668 -0.1369  0.8326  0.4185
 7468TIP3    H243896   2.044   2.092   0.653  0.8951  0.1723 -0.8545
 7469TIP3   OH243897   2.562   2.589  11.584 -0.1237  0.4794  0.1571
 7469TIP3    H143898   2.513   2.522  11.630  1.7584 -0.2801  1.1476
 7469TIP3    H243899   2.520   2.671  11.609 -1.5406 -0.2003  0.0977
 7470TIP3   OH243900   0.159   0.937  14.482 -0.2067  0.2037 -0.4237
 7470TIP3    H143901   0.157   0.842  14.474  0.3218  0.1673 -0.1623
 7470TIP3    H243902   0.080   0.967  14.437  0.3299 -0.2779 -1.7359
 7471TIP3   OH243903   5.958   1.692  11.384 -0.3516 -0.9631 -0.1640
 7471TIP3    H143904   5.880   1.727  11.340 -0.4270 -0.2949  0.4975
 7471TIP3    H243905   5.973   1.607  11.341 -0.5769 -0.4484 -1.2942
 7472TIP3   OH243906   0.475   3.546  12.984  0.1108  0.2531 -0.2292
 7472TIP3    H143907   0.486   3.622  12.928 -1.2294  0.3011 -0.4464
 7472TIP3    H243908   0.455   3.582  13.070 -1.0310  0.1760 -0.4399
 7473TIP3   OH243909   5.039   2.006  12.356 -0.1761 -0.0524  0.2986
 7473TIP3    H143910   5.020   2.056  12.277  2.0100 -1.3552 -1.1264
 7473TIP3    H243911   5.059   1.918  12.325  0.2316 -0.7412  2.3670
 7474TIP3   OH243912   4.462   1.202  12.708  0.2776 -0.2234 -0.2537
 7474TIP3    H143913   4.495   1.292  12.702 -1.8966  0.5608 -1.9109
 7474TIP3    H243914   4.481   1.176  12.798  0.9596  1.9148  0.2881
 7475TIP3   OH243915   5.619   1.224  11.667 -0.3812  0.0676  0.3495
 7475TIP3    H143916   5.675   1.226  11.745 -0.7469  0.0156  0.6143
 7475TIP3    H243917   5.575   1.309  11.667 -0.7464 -0.1198  0.4688
 7476TIP3   OH243918   4.038   1.776  13.173 -0.8396  0.1149 -0.6227
 7476TIP3    H143919   4.041   1.689  13.213 -0.2649  0.4704  0.1534
 7476TIP3    H243920   3.945   1.791  13.155 -1.1478 -0.0128  0.7364
 7477TIP3   OH243921   3.990   3.825   5.744 -0.1206  0.3036  0.0423
 7477TIP3    H143922   4.030   3.887   5.804  1.3482  0.3406 -0.9056
 7477TIP3    H243923   3.905   3.864   5.721 -0.3279  0.6891  1.4002
 7478TIP3   OH243924   6.595   5.356   1.172 -0.5518  0.4445 -0.2796
 7478TIP3    H143925   6.670   5.337   1.115 -0.0540 -1.0849  0.8186
 7478TIP3    H243926   6.545   5.422   1.124  0.5816  0.2382 -1.8333
 7479TIP3   OH243927   4.965   6.514  14.854 -0.0030 -0.0113 -0.1309
 7479TIP3    H143928   5.055   6.548  14.856 -0.1682  0.4257  0.3263
 7479TIP3    H243929   4.921   6.565  14.787 -0.5172  1.4349  1.2298
 7480TIP3   OH243930   3.665   1.557  14.235 -0.7612 -0.3007  0.7744
 7480TIP3    H143931   3.571   1.545  14.248 -0.5892 -2.4738  0.3679
 7480TIP3    H243932   3.703   1.538  14.321 -0.5804 -1.1751  0.5052
 7481TIP3   OH243933   5.724   2.038  13.844  0.1141  0.3123 -0.0571
 7481TIP3    H143934   5.651   2.002  13.793 -0.4953  2.0874 -0.5294
 7481TIP3    H243935   5.798   1.982  13.824 -1.0050 -1.2942  0.0999
 7482TIP3   OH243936   3.641   1.511   1.348  0.1477 -0.0698 -0.1227
 7482TIP3    H143937   3.617   1.566   1.274  1.0240  0.2437 -0.1909
 7482TIP3    H243938   3.585   1.434   1.341 -1.0670  0.7898 -0.0417
 7483TIP3   OH243939   6.045   2.679  14.285 -0.2360  0.2255 -0.0889
 7483TIP3    H143940   6.043   2.585  14.302 -0.3769  0.3481  0.5952
 7483TIP3    H243941   6.027   2.720  14.370 -0.7806  0.8593 -0.4929
 7484TIP3   OH243942   3.637   5.739  15.892  0.1687 -0.3816  0.1943
 7484TIP3    H143943   3.593   5.748  15.807  0.2090 -2.3079 -0.0826
 7484TIP3    H243944   3.583   5.677  15.940 -0.9194  2.1080  2.3795
 7485TIP3   OH243945   3.378   5.447   4.111 -1.0840 -0.2145  0.3169
 7485TIP3    H143946   3.369   5.366   4.160 -2.8996 -0.9063 -1.0526
 7485TIP3    H243947   3.291   5.486   4.112 -0.3036  1.6739  0.7771
 7486TIP3   OH243948   3.544   4.385   3.493 -0.7269 -0.0042  0.2829
 7486TIP3    H143949   3.629   4.357   3.526  0.5555  0.4015 -2.3851
 7486TIP3    H243950   3.526   4.468   3.537  1.8136  1.5065 -1.2839
 7487TIP3   OH243951   4.870   0.507  10.989  0.4511  0.0554  0.1591
 7487TIP3    H143952   4.843   0.417  10.975  3.0264 -0.7561 -0.0971
 7487TIP3    H243953   4.924   0.528  10.913  1.7150  1.0266  1.2789
 7488TIP3   OH243954   2.353   6.704  16.435 -0.0565  0.4091  0.0661
 7488TIP3    H143955   2.338   6.617  16.471  1.5840  0.1001  0.0884
 7488TIP3    H243956   2.285   6.759  16.474  1.2783 -0.0069  3.2905
 7489TIP3   OH243957   4.536   1.069   0.805 -0.0282 -0.4010  0.4275
 7489TIP3    H143958   4.492   1.057   0.889 -1.6123  0.5448 -0.2408
 7489TIP3    H243959   4.481   1.022   0.742  0.8065 -0.5685 -0.2041
 7490TIP3   OH243960   5.005   6.771   0.788 -0.1685  0.1828 -0.1199
 7490TIP3    H143961   5.049   6.759   0.704  0.9482  0.7728  0.3643
 7490TIP3    H243962   5.027   6.860   0.814 -0.4845 -0.0052  0.8168
 7491TIP3   OH243963   2.691   6.086   1.095 -0.1940  0.3217 -0.3005
 7491TIP3    H143964   2.700   6.007   1.041 -0.3452 -0.8024  1.2770
 7491TIP3    H243965   2.644   6.148   1.038 -0.8306 -1.0098 -1.2806
 7492TIP3   OH243966   6.346   3.851   1.468  0.1188 -0.2475 -0.2632
 7492TIP3    H143967   6.308   3.883   1.386 -0.9813  0.2128  0.3997
 7492TIP3    H243968   6.414   3.915   1.489 -0.9021  0.7589  0.1505
 7493TIP3   OH243969   3.833   3.215  14.579  0.5735  0.5864  0.0893
 7493TIP3    H143970   3.923   3.235  14.552  0.5350  0.9833  0.2507
 7493TIP3    H243971   3.821   3.265  14.660  0.0899  0.8132 -0.1192
 7494TIP3   OH243972   1.309   6.167   3.971 -0.0234 -0.5087 -0.1401
 7494TIP3    H143973   1.227   6.134   4.006  0.2573 -0.1894  0.8781
 7494TIP3    H243974   1.363   6.183   4.049  0.8147 -0.2404 -0.7608
 7495TIP3   OH243975   5.254   5.384   1.447  0.2823  0.6345 -0.1583
 7495TIP3    H143976   5.163   5.358   1.433  0.5418  0.1785 -1.0868
 7495TIP3    H243977   5.301   5.301   1.459  0.5744  0.8652  0.2960
 7496TIP3   OH243978   5.382   5.535  11.177 -0.2424  0.0429 -0.1135
 7496TIP3    H143979   5.466   5.570  11.205  0.1833 -0.9873 -0.0407
 7496TIP3    H243980   5.335   5.610  11.142  1.1991  0.4139 -1.3513
 7497TIP3   OH243981   0.667   2.950  11.991  0.3809  0.0656 -0.2175
 7497TIP3    H143982   0.654   2.861  11.959  0.8448 -0.2923  0.5699
 7497TIP3    H243983   0.749   2.947  12.039 -0.3721  0.5310  1.1760
 7498TIP3   OH243984   0.116   1.751  11.463 -0.1024 -0.0228 -0.0069
 7498TIP3    H143985   0.063   1.796  11.398 -0.5632 -0.6389 -0.0597
 7498TIP3    H243986   0.207   1.772  11.439 -0.3027  0.8591 -0.0365
 7499TIP3   OH243987   6.516   6.094   4.608  0.5551 -0.2742 -0.1972
 7499TIP3    H143988   6.580   6.164   4.624 -1.0695  1.7562 -1.9698
 7499TIP3    H243989   6.480   6.075   4.694 -0.4928  2.7113  0.1439
 7500TIP3   OH243990   4.096   4.646   3.157 -0.0384 -0.3032  0.1040
 7500TIP3    H143991   4.091   4.632   3.251  0.6558  0.2568  0.2276
 7500TIP3    H243992   4.118   4.559   3.121 -0.8286 -0.6340  0.3963
 7501TIP3   OH243993   3.658   6.531   3.758 -0.0417  0.1672 -0.1868
 7501TIP3    H143994   3.746   6.525   3.794 -0.9340  1.3748  2.4150
 7501TIP3    H243995   3.605   6.476   3.815 -1.3876  1.4015 -0.2052
 7502TIP3   OH243996   5.515   2.396  15.164 -0.0434  0.2041  0.5141
 7502TIP3    H143997   5.462   2.434  15.235  0.7155 -0.3190  1.3871
 7502TIP3    H243998   5.537   2.471  15.109 -1.6898  0.4307  0.1037
 7503TIP3   OH243999   1.031   1.943  11.146  0.4126 -0.4403  0.2559
 7503TIP3    H144000   0.955   1.991  11.180 -0.3757 -2.3506  1.3692
 7503TIP3    H244001   1.027   1.955  11.051 -1.3057 -0.4766  0.2960
 7504TIP3   OH244002   0.914   6.640   4.402 -0.1682 -0.3159  0.1772
 7504TIP3    H144003   1.007   6.639   4.380  0.0440  0.5369  0.9149
 7504TIP3    H244004   0.887   6.549   4.399 -0.1682 -0.3240 -3.3639
 7505TIP3   OH244005   6.567   5.592   0.642 -0.2113  0.5392  0.5150
 7505TIP3    H144006   6.652   5.553   0.663  0.4774  0.5434 -1.9860
 7505TIP3    H244007   6.503   5.522   0.657  0.2951  0.3087  1.6807
 7506TIP3   OH244008   5.449   6.009   1.738  0.3493  0.0188  0.1061
 7506TIP3    H144009   5.412   6.075   1.796  1.2313 -1.0419  1.9826
 7506TIP3    H244010   5.377   5.948   1.723 -0.0985  0.6999 -0.5630
 7507TIP3   OH244011   2.013   0.493  16.643  0.6297  0.3234  1.1280
 7507TIP3    H144012   1.970   0.428  16.587  1.7210  0.5259  0.0153
 7507TIP3    H244013   1.995   0.577  16.602  0.6461  0.5668  1.6117
 7508TIP3   OH244014   1.655   2.479   0.774  0.0324 -0.4696 -0.2359
 7508TIP3    H144015   1.630   2.445   0.688 -0.7732  0.5152 -0.4041
 7508TIP3    H244016   1.748   2.460   0.781  0.4138  0.6006 -1.8922
 7509TIP3   OH244017   3.863   2.086  15.572 -0.4397  0.3407 -0.1901
 7509TIP3    H144018   3.774   2.118  15.559  0.1841  1.6565 -1.4075
 7509TIP3    H244019   3.890   2.123  15.657 -1.0184 -0.0366  0.1646
 7510TIP3   OH244020   3.213   3.794   1.569 -1.0605 -1.1880 -0.7386
 7510TIP3    H144021   3.181   3.831   1.652 -1.8730 -1.5434 -0.8802
 7510TIP3    H244022   3.303   3.767   1.588 -0.8097 -0.1069 -0.3400
 7511TIP3   OH244023   3.107   4.935   4.435 -0.2179 -0.2375  0.0034
 7511TIP3    H144024   3.038   4.996   4.411  0.0794 -0.1992 -0.7722
 7511TIP3    H244025   3.061   4.855   4.460 -0.5495 -0.1623 -0.3568
 7512TIP3   OH244026   2.586   5.237  14.744  0.0033 -0.2332  0.0273
 7512TIP3    H144027   2.589   5.263  14.836  0.6979  1.4220 -0.4287
 7512TIP3    H244028   2.570   5.142  14.747 -0.7625 -0.1012  1.8210
 7513TIP3   OH244029   4.243   4.364  14.535 -0.4295 -0.4656 -0.7876
 7513TIP3    H144030   4.292   4.286  14.509 -0.9176 -1.3293  0.7591
 7513TIP3    H244031   4.306   4.415  14.586 -0.0352  0.3169 -2.0035
 7514TIP3   OH244032   1.299   6.563  12.314  0.1146  0.6286 -0.8678
 7514TIP3    H144033   1.362   6.626  12.348  2.4119 -1.6233 -0.6092
 7514TIP3    H244034   1.219   6.581  12.363  1.2587  2.0363  0.6193
 7515TIP3   OH244035   2.170   4.030   4.451 -0.9303 -0.6699 -0.8239
 7515TIP3    H144036   2.153   3.953   4.397  0.2055 -0.5997 -1.3088
 7515TIP3    H244037   2.118   4.100   4.411 -1.7662 -1.1048 -0.5305
 7516TIP3   OH244038   1.887   4.548   5.558 -0.2966 -0.4098  0.1494
 7516TIP3    H144039   1.889   4.463   5.602 -0.2468 -0.2565  0.4478
 7516TIP3    H244040   1.895   4.612   5.629  3.0198 -0.1818 -0.2666
 7517TIP3   OH244041   1.835   4.400  13.909 -0.1853  0.3251 -0.2803
 7517TIP3    H144042   1.852   4.316  13.865  1.0409  0.2521  0.2927
 7517TIP3    H244043   1.920   4.426  13.944 -0.8511  1.1079  0.7907
 7518TIP3   OH244044   0.902   3.175   4.432 -0.0186 -0.1092  0.4912
 7518TIP3    H144045   0.891   3.270   4.439  0.1541 -0.0335 -0.2725
 7518TIP3    H244046   0.813   3.140   4.433 -0.2783  0.2861 -2.3553
 7519TIP3   OH244047   1.764   3.660  13.522 -0.1523  0.7892  0.3892
 7519TIP3    H144048   1.678   3.695  13.497 -0.0473  0.8030  0.0423
 7519TIP3    H244049   1.763   3.569  13.492  0.2895  1.0452 -0.4424
 7520TIP3   OH244050   3.814   5.792  16.343  0.0588  0.4721  0.2012
 7520TIP3    H144051   3.786   5.787  16.435  0.3901 -0.1398  0.2695
 7520TIP3    H244052   3.905   5.763  16.344 -0.3016 -0.7165 -0.5013
 7521TIP3   OH244053   4.484   3.678  11.748 -0.1690  0.2315  0.3156
 7521TIP3    H144054   4.457   3.714  11.832 -0.6797 -1.2730  0.8205
 7521TIP3    H244055   4.407   3.689  11.691 -0.6290 -0.7637  0.7134
 7522TIP3   OH244056   0.026   2.365  14.260  0.2622 -0.1128  0.0578
 7522TIP3    H144057  -0.050   2.397  14.212  0.8716  0.4501 -0.5590
 7522TIP3    H244058   0.053   2.287  14.212  0.0792 -0.3097  0.2739
 7523TIP3   OH244059   5.759   4.524  16.372  0.0427 -0.2308  0.2580
 7523TIP3    H144060   5.829   4.478  16.326 -1.2651 -1.4763 -0.5734
 7523TIP3    H244061   5.691   4.537  16.306 -0.2738  1.5423  0.8795
 7524TIP3   OH244062   1.085   4.988   5.835  0.1327 -0.1879 -0.1407
 7524TIP3    H144063   1.066   4.920   5.899  1.9485 -0.6669 -0.0363
 7524TIP3    H244064   1.070   5.070   5.882  0.0670 -0.5259  0.4441
 7525TIP3   OH244065   1.843   2.248  12.451  0.5666  0.4834 -0.4616
 7525TIP3    H144066   1.850   2.260  12.546 -1.5428  0.8169 -0.2990
 7525TIP3    H244067   1.800   2.327  12.419 -0.2025 -0.2961 -1.4538
 7526TIP3   OH244068   0.144   6.086   3.367  0.4868  0.0583 -0.6912
 7526TIP3    H144069   0.109   6.086   3.457  2.1280  0.2755 -0.0174
 7526TIP3    H244070   0.197   6.165   3.362  1.0050 -0.3334 -1.6157
 7527TIP3   OH244071   2.530   2.629   0.937  0.4162 -0.2303  0.4814
 7527TIP3    H144072   2.576   2.613   1.019 -0.4960 -0.4079  0.9681
 7527TIP3    H244073   2.443   2.591   0.950 -0.0868  0.6607 -0.1801
 7528TIP3   OH244074   6.148   4.506   2.229  0.1320 -0.4754 -0.0046
 7528TIP3    H144075   6.150   4.412   2.209  0.5149 -0.9247  1.9451
 7528TIP3    H244076   6.171   4.511   2.321 -1.1060  1.4695  0.2450
 7529TIP3   OH244077   1.821   2.968  11.255 -0.0037  0.4365  0.0821
 7529TIP3    H144078   1.887   2.988  11.189 -0.3427  0.3147 -0.2970
 7529TIP3    H244079   1.745   3.020  11.231 -0.2236  0.1837  0.2153
 7530TIP3   OH244080   3.303   0.942   2.441  0.1630  0.6459  0.1257
 7530TIP3    H144081   3.350   0.988   2.371  1.2093  0.0051  0.3792
 7530TIP3    H244082   3.227   0.904   2.397  1.6318 -1.0762 -1.0615
 7531TIP3   OH244083   4.952   0.130  12.191  0.2682 -0.0813  0.1522
 7531TIP3    H144084   4.941   0.145  12.285 -0.9043  0.3587 -0.0434
 7531TIP3    H244085   5.003   0.049  12.186  0.6059  0.0456  1.1592
 7532TIP3   OH244086   1.423   3.311  10.531  0.1384  0.4839  0.5291
 7532TIP3    H144087   1.466   3.339  10.451  0.8095 -1.6873  0.0638
 7532TIP3    H244088   1.381   3.390  10.565  1.2845  1.8254 -1.0285
 7533TIP3   OH244089   5.578   2.613  15.006  0.0603  0.3488  0.5464
 7533TIP3    H144090   5.500   2.661  14.979  1.0664  1.2813 -0.7767
 7533TIP3    H244091   5.626   2.596  14.925  0.0030 -2.4902  1.0078
 7534TIP3   OH244092   4.289   4.193   5.131  0.0089 -0.0054  0.2618
 7534TIP3    H144093   4.239   4.274   5.133 -0.7126 -0.4398  0.0385
 7534TIP3    H244094   4.329   4.191   5.044  0.5805  0.4317  0.5070
 7535TIP3   OH244095   3.225   3.529   5.906  0.1198 -0.6145 -0.2327
 7535TIP3    H144096   3.228   3.500   5.815  1.0601 -2.4514  0.3215
 7535TIP3    H244097   3.310   3.570   5.921 -0.3345  0.3939 -0.3851
 7536TIP3   OH244098   3.076   6.140   3.792  0.3983 -0.2996  0.4387
 7536TIP3    H144099   3.163   6.166   3.821  2.7289 -5.4143 -0.8383
 7536TIP3    H244100   3.068   6.177   3.704  1.1869  0.3365  0.6254
 7537TIP3   OH244101   2.929   5.481   1.406  0.3064 -0.0279  0.2454
 7537TIP3    H144102   2.959   5.484   1.315  1.2594  0.3342  0.5543
 7537TIP3    H244103   2.838   5.452   1.401 -0.1005  1.3462 -0.9263
 7538TIP3   OH244104   2.810   1.688   3.650 -0.4400 -0.1296 -0.8310
 7538TIP3    H144105   2.875   1.619   3.647 -1.8895 -1.5715 -0.4735
 7538TIP3    H244106   2.860   1.767   3.672  1.0476 -1.3367  0.3459
 7539TIP3   OH244107   3.510   1.259   4.634  0.1046 -0.1489 -0.2457
 7539TIP3    H144108   3.569   1.260   4.559  1.4635  1.1193  0.7795
 7539TIP3    H244109   3.562   1.218   4.704 -0.8803 -0.6476  0.2093
 7540TIP3   OH244110   6.561   4.792   1.433  0.3523  0.6633  0.1636
 7540TIP3    H144111   6.593   4.828   1.516 -2.0596  3.7787 -0.0699
 7540TIP3    H244112   6.587   4.856   1.367 -0.9142  0.1194 -0.9169
 7541TIP3   OH244113   1.320   5.152  15.610 -0.2954  0.0865 -0.1052
 7541TIP3    H144114   1.404   5.126  15.648 -1.2155  0.1082  2.0855
 7541TIP3    H244115   1.342   5.226  15.553  1.0793  0.6830  1.1243
 7542TIP3   OH244116   0.428   5.575   4.618 -0.4011 -0.1534  0.3565
 7542TIP3    H144117   0.514   5.612   4.635 -0.2237 -0.8968  1.1570
 7542TIP3    H244118   0.385   5.638   4.559  1.0125 -0.2345 -0.7994
 7543TIP3   OH244119   2.860   0.851   4.291 -0.5625  0.3152 -0.1947
 7543TIP3    H144120   2.891   0.853   4.381 -1.2205 -1.4062  0.1035
 7543TIP3    H244121   2.767   0.829   4.297 -0.6281  0.2042 -1.3009
 7544TIP3   OH244122   4.853   5.243  11.722  0.0274 -0.4699 -0.3919
 7544TIP3    H144123   4.895   5.187  11.787  0.6675 -1.1844 -1.3969
 7544TIP3    H244124   4.903   5.229  11.642  0.0212  1.3204 -0.7644
 7545TIP3   OH244125   5.537   4.887   3.732 -0.3704 -0.0481  0.0672
 7545TIP3    H144126   5.474   4.956   3.751  0.6754  0.7573  0.7289
 7545TIP3    H244127   5.538   4.881   3.637 -1.0992  0.2362  0.0312
 7546TIP3   OH244128   4.573   5.488  17.352  0.2672 -0.3162  0.0010
 7546TIP3    H144129   4.515   5.537  17.294  2.0680  0.4798 -1.1982
 7546TIP3    H244130   4.518   5.466  17.427 -1.5486  0.4858 -1.0243
 7547TIP3   OH244131   6.501   6.392  13.971  0.0913 -0.2280  0.8019
 7547TIP3    H144132   6.499   6.350  13.885 -2.2682  0.6537  0.3245
 7547TIP3    H244133   6.579   6.357  14.014  1.3653 -0.6705 -1.6873
 7548TIP3   OH244134   4.408   1.572   1.938 -0.7431  0.0891  0.4565
 7548TIP3    H144135   4.380   1.650   1.889 -2.4295  0.1553  1.4545
 7548TIP3    H244136   4.502   1.585   1.951 -0.8849  1.6823  0.1197
 7549TIP3   OH244137   1.903   2.302  14.598  0.3965  0.0554 -0.2785
 7549TIP3    H144138   1.869   2.287  14.686 -0.4076 -1.1604 -0.7844
 7549TIP3    H244139   1.998   2.290  14.607  0.3089 -0.1864  0.3922
 7550TIP3   OH244140   3.970   5.150   2.319 -0.1408  0.0205  0.0453
 7550TIP3    H144141   4.029   5.187   2.253  1.7942 -1.3830  0.9098
 7550TIP3    H244142   4.027   5.100   2.377 -2.3259 -2.5982  0.1284
 7551TIP3   OH244143   2.866   2.571   2.499 -0.3549 -0.0259  0.2958
 7551TIP3    H144144   2.852   2.614   2.415  1.8663 -1.4055 -0.8674
 7551TIP3    H244145   2.896   2.641   2.557  1.6121  0.3658 -1.1054
 7552TIP3   OH244146   1.134   4.139   5.736 -0.3696 -0.4896 -0.3290
 7552TIP3    H144147   1.113   4.231   5.724 -1.6157 -0.6261  0.6117
 7552TIP3    H244148   1.098   4.095   5.659  1.6130 -0.0361 -1.5746
 7553TIP3   OH244149   1.488   3.625  17.286  0.2229 -0.2009  0.4090
 7553TIP3    H144150   1.463   3.697  17.344 -0.0972 -0.3132  0.4142
 7553TIP3    H244151   1.529   3.561  17.343 -0.7356 -0.6266  0.6398
 7554TIP3   OH244152   1.076   6.266  11.736 -0.6807  0.3774 -0.4854
 7554TIP3    H144153   1.106   6.197  11.795 -1.0388  0.5262 -0.1238
 7554TIP3    H244154   1.132   6.341  11.757 -0.1610  0.1383 -1.0150
 7555TIP3   OH244155   6.328   2.327   3.304  0.2420 -0.2397 -0.4922
 7555TIP3    H144156   6.279   2.408   3.320 -0.3088 -0.7157  0.2868
 7555TIP3    H244157   6.417   2.357   3.285 -0.4185  0.6685 -2.4301
 7556TIP3   OH244158   5.581   1.865   5.092  0.0665 -0.2003  0.5561
 7556TIP3    H144159   5.512   1.856   5.026 -0.3994 -0.1968  1.0365
 7556TIP3    H244160   5.540   1.833   5.173  0.9375 -1.1304  0.6480
 7557TIP3   OH244161   4.242   1.472  14.919 -0.1069 -0.2700  0.1214
 7557TIP3    H144162   4.235   1.540  14.985  1.6026  1.0588 -0.9824
 7557TIP3    H244163   4.293   1.403  14.961 -1.4415 -0.7060  1.0862
 7558TIP3   OH244164   1.532   5.247   0.405  0.0980 -0.2112 -0.3673
 7558TIP3    H144165   1.475   5.323   0.417  0.0150 -0.4623  0.9050
 7558TIP3    H244166   1.490   5.197   0.335  0.4268  1.1489 -1.5962
 7559TIP3   OH244167   1.803   6.150  15.942  0.3851  0.6456  0.4310
 7559TIP3    H144168   1.802   6.239  15.906  0.0085  0.1983 -0.7215
 7559TIP3    H244169   1.867   6.104  15.888  0.7694  0.2730  1.1886
 7560TIP3   OH244170   4.018   5.756  14.051  0.5224  0.1488  0.7088
 7560TIP3    H144171   4.001   5.827  13.989 -0.9692 -0.4237  0.4245
 7560TIP3    H244172   4.008   5.677  13.999  0.1268 -0.3164  1.4787
 7561TIP3   OH244173   2.765   1.638  11.411  0.1786  0.2095  0.5749
 7561TIP3    H144174   2.817   1.642  11.492  0.7573 -0.3918  0.2468
 7561TIP3    H244175   2.800   1.709  11.358  2.3377 -1.5846 -0.5790
 7562TIP3   OH244176   1.717   5.367  13.029  0.0576  0.4621 -0.2673
 7562TIP3    H144177   1.682   5.444  12.983 -1.2951 -0.6489 -1.1814
 7562TIP3    H244178   1.795   5.343  12.979 -1.6507 -1.0117 -2.4115
 7563TIP3   OH244179   1.640   3.957  17.133 -0.3624 -0.1961  0.0306
 7563TIP3    H144180   1.631   3.973  17.227 -0.9190 -0.2235 -0.0195
 7563TIP3    H244181   1.553   3.970  17.097  0.3792  2.7776 -0.9610
 7564TIP3   OH244182   4.659   1.669  16.440 -0.0738  0.4436  0.2878
 7564TIP3    H144183   4.586   1.682  16.500 -0.0973 -0.4270  0.4695
 7564TIP3    H244184   4.619   1.647  16.356 -0.0513 -1.0307  0.6234
 7565TIP3   OH244185   3.224   6.540  11.717  0.0198 -0.0241 -0.1590
 7565TIP3    H144186   3.214   6.479  11.644  2.0772  0.6600 -1.0884
 7565TIP3    H244187   3.292   6.601  11.688  0.8862  0.2912  2.3167
 7566TIP3   OH244188   6.019   0.998   5.018  0.8744  0.0805  0.2776
 7566TIP3    H144189   6.104   0.973   4.983  0.8768  0.5719 -0.0837
 7566TIP3    H244190   5.958   0.934   4.982  1.1812 -0.6806  1.0825
 7567TIP3   OH244191   5.389   1.899  14.712 -0.4714  0.6850 -0.4995
 7567TIP3    H144192   5.343   1.833  14.765 -0.3713  0.9928 -0.0214
 7567TIP3    H244193   5.324   1.968  14.698  0.0074  1.4243  0.7239
 7568TIP3   OH244194   1.169   0.187  14.374 -0.4180  0.8072 -0.0876
 7568TIP3    H144195   1.251   0.237  14.381  0.4034 -0.7533  3.3052
 7568TIP3    H244196   1.194   0.097  14.396 -2.4945 -0.4787 -2.4733
 7569TIP3   OH244197   6.596   3.422   0.982  0.5915  0.0582  0.0843
 7569TIP3    H144198   6.518   3.415   0.927  0.3771 -3.8025  0.6391
 7569TIP3    H244199   6.575   3.491   1.045 -2.2933 -0.6887  0.0560
 7570TIP3   OH244200   3.783   6.773   3.904  0.2891  0.2349 -0.3733
 7570TIP3    H144201   3.708   6.772   3.844 -0.6613  1.2742  0.7443
 7570TIP3    H244202   3.761   6.710   3.972  0.5617  0.3476 -0.1791
 7571TIP3   OH244203   1.559   6.247   0.668  0.0977 -0.1097  0.0566
 7571TIP3    H144204   1.551   6.185   0.595 -0.3075  0.1812 -0.1508
 7571TIP3    H244205   1.561   6.192   0.746  1.2661 -0.4795 -0.1971
 7572TIP3   OH244206   0.365   2.448   1.841  0.6204  0.5738  0.1645
 7572TIP3    H144207   0.282   2.404   1.854  0.2001  0.6325 -1.9641
 7572TIP3    H244208   0.431   2.381   1.859  0.0744  0.0859  0.3701
 7573TIP3   OH244209   6.601   1.568  15.056  1.0028  0.5840 -0.1778
 7573TIP3    H144210   6.633   1.643  15.106 -2.7998  1.1285  1.8576
 7573TIP3    H244211   6.553   1.608  14.983  0.7654  0.0813 -0.3008
 7574TIP3   OH244212   0.086   1.474   1.532 -0.6124 -0.6830  0.3523
 7574TIP3    H144213   0.001   1.508   1.557  0.5884  2.4962  0.5800
 7574TIP3    H244214   0.135   1.469   1.614  0.2395  0.1869 -0.0803
 7575TIP3   OH244215   3.122   2.295  14.367 -0.2423 -0.1810 -0.4461
 7575TIP3    H144216   3.086   2.241  14.438  0.3557 -0.7678 -0.5774
 7575TIP3    H244217   3.185   2.238  14.323 -2.1813 -0.6023 -2.8932
 7576TIP3   OH244218   3.753   6.203   1.584 -0.1436  0.4967 -0.0000
 7576TIP3    H144219   3.761   6.294   1.556 -1.4245  0.0578 -2.0242
 7576TIP3    H244220   3.693   6.164   1.520 -0.8031 -1.4036  1.6913
 7577TIP3   OH244221   1.361   1.208   4.751  0.0041 -0.3208  0.7401
 7577TIP3    H144222   1.328   1.121   4.729  1.1377 -0.3397 -1.0018
 7577TIP3    H244223   1.383   1.202   4.844 -0.4465 -1.7199  0.7760
 7578TIP3   OH244224   1.685   5.334   0.689 -0.3435  0.2966  0.2297
 7578TIP3    H144225   1.624   5.406   0.673 -0.4208  0.5392  1.5208
 7578TIP3    H244226   1.756   5.349   0.626 -1.6076 -0.0249 -1.3341
 7579TIP3   OH244227   1.257   0.002  12.637  0.0851 -0.2691 -0.5088
 7579TIP3    H144228   1.252   0.031  12.546 -1.2267 -0.1585 -0.4213
 7579TIP3    H244229   1.166  -0.018  12.661  0.6614 -2.3901  0.1071
 7580TIP3   OH244230   1.355   6.315  16.333 -0.5308  0.2164  0.1508
 7580TIP3    H144231   1.292   6.267  16.387 -0.2663  0.1881  0.4422
 7580TIP3    H244232   1.429   6.254  16.324  0.1262  0.8399  1.1596
 7581TIP3   OH244233   4.307   2.415   2.397  0.8711 -0.5449  0.5663
 7581TIP3    H144234   4.324   2.398   2.304  1.1490 -0.4583  0.6027
 7581TIP3    H244235   4.342   2.502   2.412  1.3598 -0.7980  0.9000
 7582TIP3   OH244236   5.762   3.818  15.533  0.0331  0.0349  0.5583
 7582TIP3    H144237   5.829   3.800  15.467 -0.0469  0.0768  0.4655
 7582TIP3    H244238   5.793   3.897  15.578  0.6179 -0.5927  1.2811
 7583TIP3   OH244239   3.413   0.212   0.554  0.3286 -0.4884 -0.8094
 7583TIP3    H144240   3.356   0.161   0.612  0.2655 -0.0306 -0.4582
 7583TIP3    H244241   3.354   0.242   0.484  0.0440  0.3079 -0.2400
 7584TIP3   OH244242   1.755   0.879   2.262  0.4467 -1.0222  0.1117
 7584TIP3    H144243   1.705   0.843   2.189 -0.5827  0.5780 -0.0335
 7584TIP3    H244244   1.716   0.839   2.340 -1.1308  0.1907 -0.0012
 7585TIP3   OH244245   1.177   0.379  12.671  0.0695 -0.9640 -0.3868
 7585TIP3    H144246   1.168   0.428  12.589  0.6908  0.2591  0.2462
 7585TIP3    H244247   1.088   0.348  12.690 -0.8777  1.9208  0.3668
 7586TIP3   OH244248   5.002   4.127  14.220  0.0679 -0.3656  0.8211
 7586TIP3    H144249   4.974   4.083  14.139  0.0817  0.1183  0.5507
 7586TIP3    H244250   5.078   4.076  14.249  1.4808  0.7355 -0.6818
 7587TIP3   OH244251   2.185   6.480   5.135 -0.4006  0.4288 -0.3921
 7587TIP3    H144252   2.112   6.444   5.085 -1.1988  2.6002 -0.9018
 7587TIP3    H244253   2.231   6.537   5.073  0.7028  0.4461  0.4010
 7588TIP3   OH244254   4.613   6.410   0.062 -0.1353  0.4633  0.1946
 7588TIP3    H144255   4.595   6.433  -0.029 -1.1728  1.7495  0.6807
 7588TIP3    H244256   4.582   6.320   0.071 -1.6112  0.8856 -0.3395
 7589TIP3   OH244257   2.128   4.515  15.468  0.2697  0.0187 -0.4750
 7589TIP3    H144258   2.184   4.437  15.470  0.7044  0.3263 -0.4742
 7589TIP3    H244259   2.182   4.583  15.509  0.5920  0.7771 -2.1071
 7590TIP3   OH244260   3.514   3.560   0.331 -0.5113  0.4779  0.2606
 7590TIP3    H144261   3.552   3.483   0.288 -0.4823 -0.9772  2.6807
 7590TIP3    H244262   3.422   3.560   0.305 -0.3750 -0.0323 -0.2431
 7591TIP3   OH244263   2.305   3.472   1.897  0.2249  0.2144 -0.5483
 7591TIP3    H144264   2.346   3.525   1.828 -1.0362  1.3176 -0.4971
 7591TIP3    H244265   2.252   3.407   1.850  1.0033 -0.3891 -0.6080
 7592TIP3   OH244266   1.261   0.883   4.740  0.7845  0.0098  0.1728
 7592TIP3    H144267   1.350   0.851   4.725  0.8636  0.2698  0.0840
 7592TIP3    H244268   1.244   0.942   4.667  0.2106 -0.7075 -0.2912
 7593TIP3   OH244269   4.746   3.887   0.396  0.1349  0.1319  0.7394
 7593TIP3    H144270   4.763   3.810   0.342  1.2388 -0.0025  1.2493
 7593TIP3    H244271   4.653   3.906   0.383 -0.0876 -1.1236  0.4013
 7594TIP3   OH244272   0.243   4.583  14.857 -0.1041 -0.1314 -0.3069
 7594TIP3    H144273   0.191   4.502  14.858  0.7126 -0.6845  0.5122
 7594TIP3    H244274   0.320   4.561  14.911 -0.0642  1.3244  0.2625
 7595TIP3   OH244275   3.206   0.468   2.031  0.4001  0.2863 -0.1872
 7595TIP3    H144276   3.260   0.494   1.956  1.2690  1.8260  0.9104
 7595TIP3    H244277   3.170   0.551   2.063  0.5492 -0.2626  1.4705
 7596TIP3   OH244278   2.529   4.213  14.460  0.4695 -0.4324 -0.2401
 7596TIP3    H144279   2.461   4.145  14.459  1.3943 -1.3832 -0.9113
 7596TIP3    H244280   2.581   4.192  14.538  0.0972  0.2122  0.1946
 7597TIP3   OH244281   5.736   3.788   3.533  0.2491 -0.4818 -0.0247
 7597TIP3    H144282   5.773   3.759   3.617  0.1887  2.4305  1.1099
 7597TIP3    H244283   5.644   3.808   3.553  0.3169  0.5612 -0.6860
 7598TIP3   OH244284   3.520   0.572   6.361  0.2705  0.0551 -0.2415
 7598TIP3    H144285   3.460   0.614   6.423  1.1995  1.5985 -0.3326
 7598TIP3    H244286   3.479   0.583   6.276 -0.7137 -1.5357 -0.0243
 7599TIP3   OH244287   1.648   1.788  14.452 -0.2212 -0.1476  0.5845
 7599TIP3    H144288   1.660   1.775  14.358  0.1192 -2.5062  0.8987
 7599TIP3    H244289   1.716   1.851  14.476  0.1673 -0.0754 -0.6176
 7600TIP3   OH244290   3.449   6.351   3.552 -0.4342 -0.4728  0.4106
 7600TIP3    H144291   3.404   6.301   3.484  2.5093 -1.6964 -0.8013
 7600TIP3    H244292   3.471   6.287   3.619  1.8195 -0.5761 -0.3304
 7601TIP3   OH244293   3.032   0.207   2.631 -0.0167  0.3297 -0.0310
 7601TIP3    H144294   3.122   0.206   2.598  0.0920  0.4578  0.2637
 7601TIP3    H244295   3.041   0.216   2.726 -0.3416  0.3829 -0.0048
 7602TIP3   OH244296   4.478   2.008   6.850  0.3972 -0.1689  0.0628
 7602TIP3    H144297   4.450   2.093   6.818 -1.4416 -0.3662  1.0165
 7602TIP3    H244298   4.417   1.946   6.811 -1.2275 -0.5268  2.8843
 7603TIP3   OH244299   2.107   1.968   1.337  1.1109  0.4398  1.1453
 7603TIP3    H144300   2.156   1.974   1.418 -0.4940  0.4254  2.1537
 7603TIP3    H244301   2.168   1.928   1.275  2.6277  1.1759  2.0920
 7604TIP3   OH244302   3.476   4.252  12.272 -0.2010  0.3755  0.4633
 7604TIP3    H144303   3.430   4.313  12.216 -0.7637 -0.3018  0.1698
 7604TIP3    H244304   3.407   4.210  12.324  0.2316  0.4077  1.0823
 7605TIP3   OH244305   3.590   1.141  14.119 -0.1006 -0.6023 -0.1090
 7605TIP3    H144306   3.653   1.206  14.088  1.0296 -2.0615 -1.0110
 7605TIP3    H244307   3.565   1.172  14.206  2.2544 -0.2078  0.4938
 7606TIP3   OH244308   3.984   1.512   4.102  0.0017  0.2676 -0.1715
 7606TIP3    H144309   4.057   1.478   4.154  0.3822  1.1798 -0.0857
 7606TIP3    H244310   3.991   1.467   4.018 -0.6026 -1.2076  0.5332
 7607TIP3   OH244311   4.004   4.664  14.626 -0.1040 -0.6438 -0.3233
 7607TIP3    H144312   3.936   4.659  14.693 -0.3637 -2.1055 -0.6535
 7607TIP3    H244313   3.989   4.587  14.572  0.5641  0.1039 -1.6256
 7608TIP3   OH244314   5.010   5.955  15.383 -0.5125 -0.2171  0.9053
 7608TIP3    H144315   5.056   5.878  15.349 -0.6444 -1.2011  2.8342
 7608TIP3    H244316   4.926   5.922  15.414 -1.0916  0.9473  0.6547
 7609TIP3   OH244317   4.460   2.325   6.321  0.1392 -0.0992  0.6673
 7609TIP3    H144318   4.492   2.318   6.231 -1.0816 -2.0806  0.3235
 7609TIP3    H244319   4.538   2.343   6.373  1.2171 -1.0843 -0.5475
 7610TIP3   OH244320   3.296   5.141  15.594 -0.0065 -0.2118 -0.2559
 7610TIP3    H144321   3.331   5.086  15.665 -2.3514 -1.1312  0.3148
 7610TIP3    H244322   3.201   5.140  15.609 -0.2567  3.7325 -0.4614
 7611TIP3   OH244323   0.129   3.893   0.359  0.3130  0.0327  0.5744
 7611TIP3    H144324   0.192   3.940   0.413  0.3144 -0.0939  0.6844
 7611TIP3    H244325   0.047   3.940   0.369  0.3813  0.1764  0.4608
 7612TIP3   OH244326   2.471   3.379  11.191 -0.4692  0.1593 -0.7478
 7612TIP3    H144327   2.512   3.323  11.257 -1.7590 -0.6778 -0.6186
 7612TIP3    H244328   2.507   3.348  11.108  3.0279  2.7934 -0.4021
 7613TIP3   OH244329   5.015   4.446  11.887 -0.2235  0.4101  0.3114
 7613TIP3    H144330   4.962   4.469  11.811 -0.2420  0.4122  0.3247
 7613TIP3    H244331   4.976   4.494  11.960 -0.8610 -0.4190  0.5307
 7614TIP3   OH244332   3.027   6.112   0.890 -0.1270  0.6423 -0.1377
 7614TIP3    H144333   2.995   6.027   0.919 -0.3987  0.6350 -0.4588
 7614TIP3    H244334   2.962   6.142   0.827  0.8122  0.3437 -1.2755
 7615TIP3   OH244335   0.110   4.956  17.131  0.3431 -0.4497  0.1120
 7615TIP3    H144336   0.194   5.000  17.121  0.1559  0.2368  1.3141
 7615TIP3    H244337   0.126   4.866  17.102  1.0108  0.1085 -1.3454
 7616TIP3   OH244338   1.497   2.563   1.377 -0.1083  0.3109  0.1704
 7616TIP3    H144339   1.498   2.638   1.437  0.4489 -0.1043  0.6857
 7616TIP3    H244340   1.405   2.540   1.369 -0.2410  0.7547  0.3841
 7617TIP3   OH244341   1.989   2.929   3.933  0.8198 -0.4661  0.4548
 7617TIP3    H144342   2.031   2.849   3.967  0.5104 -1.2413 -0.9243
 7617TIP3    H244343   2.018   2.934   3.842 -1.0432 -0.3102 -0.1675
 7618TIP3   OH244344   2.280   4.178   5.857 -0.5269 -0.0506 -0.0881
 7618TIP3    H144345   2.312   4.179   5.947 -1.0532 -1.1075  0.1232
 7618TIP3    H244346   2.360   4.182   5.804 -0.1598 -0.3801  0.4287
 7619TIP3   OH244347   3.044   3.547   1.706 -0.1221 -0.5932  0.3461
 7619TIP3    H144348   3.044   3.551   1.611 -1.8888  1.3303  0.3673
 7619TIP3    H244349   3.130   3.580   1.732  0.4038 -1.2124 -0.5470
 7620TIP3   OH244350   2.326   1.207  11.385 -0.5681 -0.2797  0.2893
 7620TIP3    H144351   2.380   1.154  11.327 -1.8158 -0.0097 -1.1758
 7620TIP3    H244352   2.273   1.261  11.326 -1.4903  0.4096  1.6939
 7621TIP3   OH244353   4.456   4.238  12.900 -0.5563  0.2412  0.0171
 7621TIP3    H144354   4.392   4.297  12.937  0.2678  1.0034  0.2532
 7621TIP3    H244355   4.457   4.163  12.960 -2.4810 -0.6238 -0.9328
 7622TIP3   OH244356   1.705   4.767   2.470 -0.7741 -0.0160  0.4332
 7622TIP3    H144357   1.749   4.729   2.546 -0.6982  0.5689  0.6886
 7622TIP3    H244358   1.616   4.732   2.474 -0.2305 -1.5985 -0.3604
 7623TIP3   OH244359   3.914   4.346   6.018  0.3129 -0.3691  0.3023
 7623TIP3    H144360   3.887   4.330   6.109 -0.0359  2.6984  0.8217
 7623TIP3    H244361   3.935   4.259   5.985 -2.0039 -1.9395  2.5184
 7624TIP3   OH244362   0.643   5.801   2.450 -0.0487  0.3035  0.2824
 7624TIP3    H144363   0.605   5.730   2.502 -0.6512  0.2947 -0.1469
 7624TIP3    H244364   0.570   5.830   2.394  0.4141  0.7174 -0.1117
 7625TIP3   OH244365   1.667   4.559  17.144  0.1568 -0.0314  0.5715
 7625TIP3    H144366   1.732   4.514  17.089 -0.0664  0.0671  0.2203
 7625TIP3    H244367   1.583   4.524  17.113 -0.2275  2.3498 -1.3945
 7626TIP3   OH244368   4.241   2.808  12.129 -0.1559  0.2725  0.2082
 7626TIP3    H144369   4.156   2.762  12.129 -0.5156  0.8376  1.9307
 7626TIP3    H244370   4.283   2.778  12.210  0.9130  0.6899 -0.1856
 7627TIP3   OH244371   5.315   1.005   5.958 -0.4624 -0.6909  0.3939
 7627TIP3    H144372   5.329   1.097   5.935 -0.8980 -0.3884  1.2975
 7627TIP3    H244373   5.261   0.970   5.887  1.7487 -0.9555 -1.3093
 7628TIP3   OH244374   2.474   5.922   3.751  0.3797  0.2010 -0.1333
 7628TIP3    H144375   2.522   5.840   3.767 -1.8171 -1.3854 -1.1117
 7628TIP3    H244376   2.395   5.895   3.703  1.0053  3.2672 -3.2871
 7629TIP3   OH244377   5.887   0.827  13.142  0.1478  0.1587  0.8602
 7629TIP3    H144378   5.925   0.913  13.122 -0.8852  0.5422  0.4549
 7629TIP3    H244379   5.838   0.804  13.062  0.2049 -0.6841  1.0679
 7630TIP3   OH244380   1.124   6.589  11.603  0.0912  0.4110  0.5752
 7630TIP3    H144381   1.166   6.631  11.528 -0.0028 -0.9971 -0.3044
 7630TIP3    H244382   1.045   6.549  11.566  0.1456 -0.4727  1.3812
 7631TIP3   OH244383   0.286   6.339  12.751  0.3845  0.0993 -0.0954
 7631TIP3    H144384   0.297   6.371  12.841 -1.8660  1.9010 -0.3926
 7631TIP3    H244385   0.327   6.406  12.697 -1.2602  0.7987 -0.5396
 7632TIP3   OH244386   0.962   4.750  12.906  0.1891 -0.5458  0.1585
 7632TIP3    H144387   0.990   4.835  12.873  1.3895 -1.6089 -1.7639
 7632TIP3    H244388   0.878   4.734  12.864  1.2063 -1.4068 -1.7320
 7633TIP3   OH244389   4.890   4.796   5.682  0.2153  0.1090  0.6992
 7633TIP3    H144390   4.980   4.820   5.706  0.7624 -0.2636 -0.8678
 7633TIP3    H244391   4.892   4.787   5.587 -1.1372 -1.3517  0.7661
 7634TIP3   OH244392   4.539   2.814   0.979 -0.2191 -0.0353  0.3563
 7634TIP3    H144393   4.542   2.722   0.954 -2.9979 -0.0423 -0.2605
 7634TIP3    H244394   4.460   2.848   0.937  0.6379  2.6155  0.6902
 7635TIP3   OH244395   4.167   5.231  11.665 -0.3472  0.1953  0.0996
 7635TIP3    H144396   4.076   5.240  11.637 -0.1092  0.0675 -0.7361
 7635TIP3    H244397   4.207   5.315  11.642  0.3593 -0.6444 -1.9349
 7636TIP3   OH244398   6.249   5.980  12.881  0.1026  0.2850  0.3464
 7636TIP3    H144399   6.212   5.922  12.815 -2.0508  0.8141  1.0032
 7636TIP3    H244400   6.317   6.029  12.834 -0.5187 -0.2248 -1.1421
 7637TIP3   OH244401   3.242   3.901   0.065  0.3777  0.0761 -0.0027
 7637TIP3    H144402   3.256   3.833   0.131 -0.4430 -1.4881 -1.3667
 7637TIP3    H244403   3.148   3.898   0.046  0.3496  1.4840 -0.2466
 7638TIP3   OH244404   2.899   5.736   0.187 -0.5376  0.1385 -0.0536
 7638TIP3    H144405   2.877   5.653   0.144 -1.6338 -1.5824  3.4647
 7638TIP3    H244406   2.814   5.779   0.200 -0.5730 -0.4715  2.2107
 7639TIP3   OH244407   5.758   1.780   5.453 -0.0417  0.6509  0.3750
 7639TIP3    H144408   5.735   1.846   5.387 -2.2571  0.3867  0.8255
 7639TIP3    H244409   5.828   1.729   5.412  0.7970  2.4403 -0.4968
 7640TIP3   OH244410   4.052   6.079   3.268  0.2700  0.0209 -0.2788
 7640TIP3    H144411   3.966   6.121   3.279 -0.3050 -0.7610 -1.5516
 7640TIP3    H244412   4.097   6.096   3.351 -1.1021  0.4701  0.4185
 7641TIP3   OH244413   4.297   6.490  11.402  0.8621 -0.4187 -1.1420
 7641TIP3    H144414   4.269   6.573  11.441  1.6310  0.8344 -3.0955
 7641TIP3    H244415   4.381   6.471  11.444  0.6871 -0.1858 -0.6875
 7642TIP3   OH244416   5.974   5.790  13.631 -0.6667  0.4320  0.2436
 7642TIP3    H144417   5.932   5.870  13.599 -0.9412  0.1508 -0.1078
 7642TIP3    H244418   5.913   5.755  13.696 -1.0821 -0.0795 -0.4064
 7643TIP3   OH244419   3.828   0.453  15.357 -0.1605 -0.2742 -0.2410
 7643TIP3    H144420   3.772   0.475  15.282  0.9619 -1.4788 -1.4916
 7643TIP3    H244421   3.790   0.372  15.391 -1.9490  1.3191  1.9257
 7644TIP3   OH244422   1.383   6.270  12.453 -0.0985 -0.1772  0.3419
 7644TIP3    H144423   1.306   6.321  12.477  0.9183  0.9196  1.4126
 7644TIP3    H244424   1.400   6.215  12.529  0.7917  0.3779  0.5600
 7645TIP3   OH244425   5.020   2.264  14.527  0.1163  0.2325 -0.3082
 7645TIP3    H144426   5.043   2.218  14.447 -0.8524 -1.6158  0.4072
 7645TIP3    H244427   4.956   2.330  14.499 -0.5819 -0.7127 -1.0214
 7646TIP3   OH244428   2.150   4.737   1.319  0.1636 -0.0012  0.0395
 7646TIP3    H144429   2.170   4.829   1.305  2.5140 -0.5036 -0.3673
 7646TIP3    H244430   2.183   4.718   1.407 -0.9280 -0.3054  0.3908
 7647TIP3   OH244431   4.446   6.337   3.698  0.8075 -0.1594  0.2898
 7647TIP3    H144432   4.432   6.402   3.629 -0.4574 -1.8256 -1.1160
 7647TIP3    H244433   4.369   6.345   3.755  0.5312 -0.5736 -0.0219
 7648TIP3   OH244434   2.172   2.772  16.118 -0.4895 -0.1664 -0.2329
 7648TIP3    H144435   2.159   2.805  16.207  2.3456  2.4783 -0.6329
 7648TIP3    H244436   2.212   2.686  16.130  0.7541  0.5509  1.1353
 7649TIP3   OH244437   4.621   6.416  12.536  0.0869  0.0483  0.6251
 7649TIP3    H144438   4.564   6.385  12.607 -0.2963 -1.2537 -0.1993
 7649TIP3    H244439   4.586   6.372  12.458  0.7929  1.0714 -0.2885
 7650TIP3   OH244440   5.222   0.928   4.947 -0.0532 -0.1519 -0.5692
 7650TIP3    H144441   5.184   0.844   4.925  1.0310 -1.5323  2.2566
 7650TIP3    H244442   5.205   0.938   5.041  2.8066  1.0916 -0.0768
 7651TIP3   OH244443   5.135   4.359  14.278  0.1230  0.4496 -0.0328
 7651TIP3    H144444   5.073   4.286  14.271 -0.5207  1.0324 -0.4608
 7651TIP3    H244445   5.171   4.367  14.190 -1.2955  1.9383 -0.5153
 7652TIP3   OH244446   0.450   6.179  17.138  0.1922  0.5081  0.4245
 7652TIP3    H144447   0.394   6.255  17.152 -2.4640 -0.9148 -1.6186
 7652TIP3    H244448   0.506   6.203  17.065 -1.9042  0.0176 -1.4651
 7653TIP3   OH244449   0.933   0.405   5.282 -0.1466  0.8317  0.2072
 7653TIP3    H144450   0.946   0.385   5.375 -1.5176  1.8115  0.6391
 7653TIP3    H244451   0.962   0.326   5.236 -0.1388  0.0504  1.5055
 7654TIP3   OH244452   1.489   1.569  14.428 -0.1483  0.7552 -0.0262
 7654TIP3    H144453   1.547   1.632  14.470  0.0276  0.0957  0.7441
 7654TIP3    H244454   1.493   1.492  14.484 -1.0112  0.3544 -0.4968
 7655TIP3   OH244455   0.720   2.134   1.707  0.1602 -0.1666 -0.3626
 7655TIP3    H144456   0.668   2.153   1.629 -1.8648 -1.7894  0.5042
 7655TIP3    H244457   0.768   2.215   1.725 -2.1168  1.4479 -1.1909
 7656TIP3   OH244458   4.582   2.444  14.599 -0.4698 -0.1519 -0.0620
 7656TIP3    H144459   4.493   2.445  14.564  0.1918 -1.9816 -1.9759
 7656TIP3    H244460   4.574   2.399  14.684 -1.3534 -0.3491 -0.2443
 7657TIP3   OH244461   1.598   5.456  16.784 -0.0721  0.2226  0.3285
 7657TIP3    H144462   1.529   5.523  16.779 -0.5276  0.0019  2.6204
 7657TIP3    H244463   1.645   5.477  16.864  2.5207  0.2929 -1.1168
 7658TIP3   OH244464   0.867   2.365  14.497  0.1862  0.2498 -0.2737
 7658TIP3    H144465   0.895   2.310  14.570  0.4723 -1.4533 -1.5977
 7658TIP3    H244466   0.836   2.303  14.431 -0.8962  1.7800 -1.2710
 7659TIP3   OH244467   0.238   6.443   6.061  0.0520 -0.3583 -0.1053
 7659TIP3    H144468   0.178   6.435   5.987 -1.2751  0.5709  0.8274
 7659TIP3    H244469   0.226   6.363   6.111 -1.7931  0.5727  1.0312
 7660TIP3   OH244470   2.659   2.616   5.495  0.3648  0.0942 -0.5789
 7660TIP3    H144471   2.717   2.543   5.519 -0.9449 -0.5853  0.6665
 7660TIP3    H244472   2.697   2.692   5.538 -0.0824 -0.4997  0.9583
 7661TIP3   OH244473   4.119   5.855   5.918 -0.5195  0.3223  0.0336
 7661TIP3    H144474   4.039   5.819   5.879 -0.5717  0.2777  0.1823
 7661TIP3    H244475   4.132   5.804   5.997 -0.8145  0.8874  0.4545
 7662TIP3   OH244476   0.933   5.446   2.663  0.3251 -0.0008 -0.6991
 7662TIP3    H144477   0.995   5.506   2.621  0.8864  0.1653  0.3421
 7662TIP3    H244478   0.904   5.492   2.742 -0.6990 -0.3172 -0.8784
 7663TIP3   OH244479   2.750   3.319   2.057 -0.4906  0.1940  0.7313
 7663TIP3    H144480   2.721   3.298   1.968 -2.4669  1.2035  1.1022
 7663TIP3    H244481   2.832   3.367   2.045 -1.0896  0.9287 -0.6017
 7664TIP3   OH244482   5.181   1.467   5.977  0.5155 -0.5335  0.2743
 7664TIP3    H144483   5.092   1.439   6.000  0.7697 -1.2505  0.4137
 7664TIP3    H244484   5.219   1.497   6.059  0.1909  0.4001  0.0973
 7665TIP3   OH244485   0.700   0.771  16.714  0.0032  0.1978 -0.0735
 7665TIP3    H144486   0.669   0.860  16.725 -0.7487 -0.2451  1.5968
 7665TIP3    H244487   0.666   0.723  16.789  1.2968 -1.2599 -0.3515
 7666TIP3   OH244488   6.760   1.562  12.620 -0.4063 -0.2658 -0.4287
 7666TIP3    H144489   6.811   1.606  12.688 -0.8829 -0.9546  0.3992
 7666TIP3    H244490   6.702   1.630  12.585  0.7381  0.4123 -1.0695
 7667TIP3   OH244491   1.154   3.519  15.068  0.6490  0.0346 -0.3090
 7667TIP3    H144492   1.207   3.440  15.065  1.8639  0.8299 -0.4969
 7667TIP3    H244493   1.209   3.583  15.114  1.0082  1.6783 -2.8100
 7668TIP3   OH244494   6.285   0.417   3.546  0.2440 -0.2479 -0.2663
 7668TIP3    H144495   6.248   0.403   3.459  0.9306 -0.9788 -0.4468
 7668TIP3    H244496   6.218   0.468   3.592  0.5343  1.6106 -1.7302
 7669TIP3   OH244497   0.414   1.401  13.769 -0.7352  0.3167 -0.5422
 7669TIP3    H144498   0.481   1.452  13.725  2.3016 -1.0403  2.1621
 7669TIP3    H244499   0.376   1.460  13.834 -0.4002  0.3799 -0.4064
 7670TIP3   OH244500   5.516   3.380   1.329  0.4994 -0.9402  0.1416
 7670TIP3    H144501   5.534   3.409   1.419  0.7589 -1.0415  0.1217
 7670TIP3    H244502   5.438   3.325   1.337  0.8468 -1.4085  0.3914
 7671TIP3   OH244503   5.093   5.011  15.247  0.4836 -0.2855  0.1472
 7671TIP3    H144504   5.131   4.936  15.200  0.6008 -2.3921  3.2823
 7671TIP3    H244505   4.999   4.991  15.250  0.6764 -1.1486  2.1664
 7672TIP3   OH244506   0.444   5.668   2.634 -0.1247  0.0152 -0.0492
 7672TIP3    H144507   0.354   5.641   2.618  0.0921 -0.2347 -0.9058
 7672TIP3    H244508   0.496   5.592   2.608  0.5029  1.1508 -2.3594
 7673TIP3   OH244509   3.507   3.249  12.241  0.0901  0.1270  0.3147
 7673TIP3    H144510   3.570   3.320  12.252  0.8608 -0.7653  2.1684
 7673TIP3    H244511   3.455   3.250  12.321 -2.4364  0.9175 -1.2308
 7674TIP3   OH244512   3.723   3.523  12.624 -0.0147 -0.4452 -0.3667
 7674TIP3    H144513   3.668   3.507  12.700 -1.2645  0.6131 -1.0008
 7674TIP3    H244514   3.731   3.439  12.581  1.1599 -1.1830  1.1824
 7675TIP3   OH244515   2.518   2.617   5.793  0.0358  0.3439 -0.3450
 7675TIP3    H144516   2.514   2.623   5.888  2.0271 -0.5085 -0.1623
 7675TIP3    H244517   2.608   2.590   5.774 -1.3480 -3.8806 -2.2321
 7676TIP3   OH244518   1.719   3.072  16.173 -0.2085  0.2099  0.0599
 7676TIP3    H144519   1.759   3.147  16.217 -0.9859 -0.7469  2.5806
 7676TIP3    H244520   1.783   3.002  16.183 -0.4726 -0.0712 -0.2007
 7677TIP3   OH244521   6.412   4.136  10.878 -0.1268 -0.3232 -0.6212
 7677TIP3    H144522   6.382   4.176  10.959 -0.4595 -3.2233  0.8375
 7677TIP3    H244523   6.502   4.166  10.868 -0.5323  1.1980  0.0072
 7678TIP3   OH244524   3.566   2.036  15.198 -0.4151  0.1441 -0.2079
 7678TIP3    H144525   3.579   2.112  15.255 -0.5736 -0.1711  0.2535
 7678TIP3    H244526   3.542   1.965  15.258  0.5152 -0.4679 -0.5378
 7679TIP3   OH244527   2.593   4.304   5.089 -0.1071  0.0315  0.7002
 7679TIP3    H144528   2.664   4.240   5.095 -0.1454  0.0769  1.7542
 7679TIP3    H244529   2.596   4.335   4.998 -0.3440 -1.7436  0.0625
 7680TIP3   OH244530   0.733   4.215  15.618  0.0330  0.2610 -0.4753
 7680TIP3    H144531   0.644   4.182  15.615 -0.5983  1.9507 -1.8798
 7680TIP3    H244532   0.775   4.165  15.688 -1.8374 -0.9423 -0.1545
 7681TIP3   OH244533   5.284   4.792  17.342  0.4441  0.6247 -0.3954
 7681TIP3    H144534   5.256   4.790  17.433  0.6579  0.3940 -0.3311
 7681TIP3    H244535   5.357   4.853  17.341  1.5253 -0.6166 -0.0879
 7682TIP3   OH244536   5.917   0.381  16.978 -0.3579 -0.3727  0.2186
 7682TIP3    H144537   5.830   0.389  16.938  0.2331  0.6680 -0.9365
 7682TIP3    H244538   5.956   0.468  16.968  0.4461 -0.5497  1.6395
 7683TIP3   OH244539   3.244   5.014   1.439 -0.0688  0.0238 -0.0390
 7683TIP3    H144540   3.184   4.950   1.401 -0.7830 -0.0730  1.2000
 7683TIP3    H244541   3.262   4.980   1.527 -1.6887  2.2738  1.2585
 7684TIP3   OH244542   2.662   2.076   2.659  0.5909  0.8543  0.2352
 7684TIP3    H144543   2.677   1.982   2.668  1.7642  1.1100  1.2105
 7684TIP3    H244544   2.571   2.083   2.631 -0.3896 -0.4696  2.7910
 7685TIP3   OH244545   4.761   3.876   1.985  0.0172  0.1917 -0.4449
 7685TIP3    H144546   4.701   3.943   1.953 -0.8022 -0.7539 -0.9681
 7685TIP3    H244547   4.847   3.907   1.959 -0.4634  0.4069 -1.8630
 7686TIP3   OH244548   6.227   0.032  12.069  0.0136 -0.9919  0.6112
 7686TIP3    H144549   6.323   0.025  12.069  0.1147 -1.2737 -2.8637
 7686TIP3    H244550   6.210   0.127  12.069  0.3510 -0.9271  0.0941
 7687TIP3   OH244551   6.395   0.142  11.659 -0.0060 -0.3976 -0.1526
 7687TIP3    H144552   6.457   0.094  11.715  0.1635 -2.2172 -1.8056
 7687TIP3    H244553   6.409   0.106  11.572 -1.4958  1.1235 -1.0742
 7688TIP3   OH244554   2.580   3.671   2.968  0.0313  0.3062  0.3195
 7688TIP3    H144555   2.498   3.720   2.980 -1.0338 -0.8329 -1.5911
 7688TIP3    H244556   2.554   3.579   2.977  0.7574 -0.1546 -1.7627
 7689TIP3   OH244557   4.794   0.493  11.262 -0.1400 -0.0951  0.3876
 7689TIP3    H144558   4.738   0.570  11.276 -0.4689 -0.1085 -0.7795
 7689TIP3    H244559   4.850   0.518  11.188  1.5894  0.0071  1.6725
 7690TIP3   OH244560   0.603   2.836   2.733 -0.5522 -0.3702 -1.0689
 7690TIP3    H144561   0.517   2.879   2.742  0.5202  1.7254 -0.1343
 7690TIP3    H244562   0.596   2.784   2.653 -2.8076 -0.5602 -0.8117
 7691TIP3   OH244563   3.722   1.242   5.127  0.0178 -0.1080  0.0692
 7691TIP3    H144564   3.804   1.247   5.077 -0.1190 -0.1908 -0.1650
 7691TIP3    H244565   3.693   1.152   5.116 -0.7010  0.2070 -0.8140
 7692TIP3   OH244566   3.618   1.767   6.664  0.0553  0.1157 -0.0495
 7692TIP3    H144567   3.608   1.706   6.591  0.9942 -0.3742  0.2150
 7692TIP3    H244568   3.569   1.728   6.736  0.5502 -0.2698  0.0815
 7693TIP3   OH244569   5.391   1.185   1.009  0.3139 -0.1665 -0.2405
 7693TIP3    H144570   5.337   1.116   0.971 -0.6957 -0.3180  1.3702
 7693TIP3    H244571   5.353   1.266   0.975  0.1991 -0.3375 -0.5223
 7694TIP3   OH244572   4.621   0.708  13.508  0.0461  1.0190 -0.3802
 7694TIP3    H144573   4.627   0.727  13.414 -1.9424  0.7440 -0.6176
 7694TIP3    H244574   4.573   0.783  13.544  0.0895  0.7347  0.2734
 7695TIP3   OH244575   0.345   4.327  16.393  0.0131  0.2544 -0.0825
 7695TIP3    H144576   0.362   4.364  16.480 -2.1819 -0.5491  0.7674
 7695TIP3    H244577   0.391   4.243  16.393  4.1566  2.2632 -1.6439
 7696TIP3   OH244578   6.510   2.655   2.600  0.1659  0.0311 -0.0619
 7696TIP3    H144579   6.589   2.637   2.549 -0.2396 -1.1260 -0.3135
 7696TIP3    H244580   6.468   2.729   2.556  1.2087  0.7941  0.2032
 7697TIP3   OH244581   0.608   4.152   4.333  0.5863 -0.1688  0.5696
 7697TIP3    H144582   0.554   4.142   4.255 -1.1314  0.5413  1.6161
 7697TIP3    H244583   0.683   4.204   4.304 -0.7157  1.2621 -0.3169
 7698TIP3   OH244584   0.812   3.359   3.539 -1.0589  0.2353 -0.2095
 7698TIP3    H144585   0.856   3.442   3.524  1.1172 -0.6664  0.7341
 7698TIP3    H244586   0.745   3.354   3.471 -0.7220  2.3840 -0.7620
 7699TIP3   OH244587   2.551   4.505  11.998 -0.8750  0.2312  0.0214
 7699TIP3    H144588   2.636   4.517  12.039 -1.2556 -0.1193  0.9322
 7699TIP3    H244589   2.538   4.410  11.994 -1.3544  0.2835  0.1838
 7700TIP3   OH244590   5.684   0.283   5.788 -0.2535  0.0349  0.5309
 7700TIP3    H144591   5.739   0.278   5.710 -3.3266 -3.1863 -1.7115
 7700TIP3    H244592   5.718   0.215   5.847 -0.9630 -1.0563 -0.2886
 7701TIP3   OH244593   6.511   1.250  14.671 -0.0003  0.4813 -0.0478
 7701TIP3    H144594   6.443   1.244  14.604  1.2341 -0.0912 -1.3020
 7701TIP3    H244595   6.485   1.184  14.736 -0.7245  0.3725 -0.4318
 7702TIP3   OH244596   4.403   3.687  14.684 -0.7984  0.1972 -0.8412
 7702TIP3    H144597   4.448   3.739  14.751 -0.4126  0.6747 -1.4680
 7702TIP3    H244598   4.391   3.747  14.611 -1.6804 -0.1765 -1.0159
 7703TIP3   OH244599   4.633   1.616   5.136 -0.1972  0.4071  0.8220
 7703TIP3    H144600   4.628   1.686   5.200  2.4894  0.8021  0.7473
 7703TIP3    H244601   4.677   1.656   5.061  0.2092 -1.0220  0.2646
 7704TIP3   OH244602   1.360   3.087  16.187  0.3954 -0.3992 -0.5078
 7704TIP3    H144603   1.411   3.156  16.145 -0.2967  0.3376 -0.1774
 7704TIP3    H244604   1.269   3.119  16.184  0.2774 -0.4624  1.2114
 7705TIP3   OH244605   5.097   1.504   2.858 -0.1396 -0.5254  0.1221
 7705TIP3    H144606   5.036   1.535   2.792  0.7634 -2.1667 -1.6047
 7705TIP3    H244607   5.042   1.483   2.934 -1.5227 -0.5836 -0.8580
 7706TIP3   OH244608   5.868   4.039  16.963 -0.7830 -0.1030 -0.5712
 7706TIP3    H144609   5.957   4.028  16.928 -1.0069  0.7924 -1.4830
 7706TIP3    H244610   5.813   4.049  16.885 -1.8597 -1.6988 -0.0493
 7707TIP3   OH244611   3.198   6.102   5.055  0.0784 -0.3182  0.2744
 7707TIP3    H144612   3.237   6.117   4.968  1.9157 -0.4395  1.0228
 7707TIP3    H244613   3.212   6.185   5.102 -0.3417 -0.4590  0.6502
 7708TIP3   OH244614   5.687   1.523  11.484 -0.2100 -0.2341 -0.2296
 7708TIP3    H144615   5.658   1.584  11.417  0.5102  0.2944 -0.0665
 7708TIP3    H244616   5.728   1.451  11.435  0.8411  0.4275 -0.3555
 7709TIP3   OH244617   6.695   6.508   4.850 -0.3421  0.6564  0.0971
 7709TIP3    H144618   6.782   6.532   4.883 -0.6467  1.7280  0.1443
 7709TIP3    H244619   6.701   6.520   4.755 -0.9243  2.4278  0.2477
 7710TIP3   OH244620   3.557   4.758  17.089  0.0381 -0.2711 -0.1655
 7710TIP3    H144621   3.552   4.714  17.004 -1.7208  1.6954 -1.1939
 7710TIP3    H244622   3.598   4.843  17.069  0.4930 -0.1647  1.1434
 7711TIP3   OH244623   3.137   2.961   3.195  0.2035  0.1651  0.3239
 7711TIP3    H144624   3.168   3.022   3.262  2.1796 -0.6876  0.2442
 7711TIP3    H244625   3.077   2.903   3.242 -0.5462  1.2322  0.7204
 7712TIP3   OH244626   5.921   2.430   1.723  0.1781  1.0230  0.3635
 7712TIP3    H144627   6.014   2.418   1.706  0.4276  2.9134  0.1349
 7712TIP3    H244628   5.895   2.501   1.664 -2.1017 -1.2758 -1.6529
 7713TIP3   OH244629   0.883   6.302   2.314 -0.2405  0.9244  0.1941
 7713TIP3    H144630   0.964   6.271   2.353  0.9310  1.8296 -1.4044
 7713TIP3    H244631   0.817   6.288   2.382  1.1588 -0.1747  1.4010
 7714TIP3   OH244632   1.604   3.781  16.322  0.0160  0.3980  0.1697
 7714TIP3    H144633   1.545   3.724  16.371  0.1198 -0.1572 -0.3348
 7714TIP3    H244634   1.554   3.861  16.306 -0.4911  0.0537  0.0159
 7715TIP3   OH244635   3.252   1.919  11.444  0.1261  0.5816  0.8015
 7715TIP3    H144636   3.314   1.939  11.515  0.5814 -0.5086  0.7380
 7715TIP3    H244637   3.298   1.944  11.364  0.2143  0.4400  0.8053
 7716TIP3   OH244638   1.263   4.508   5.314 -0.2431  0.1835 -0.0057
 7716TIP3    H144639   1.352   4.529   5.286 -0.8076 -0.4276 -2.5375
 7716TIP3    H244640   1.272   4.425   5.362  0.5731  0.1757 -0.1514
 7717TIP3   OH244641   0.868   2.411  13.815 -0.1787  0.2888  0.1325
 7717TIP3    H144642   0.851   2.368  13.732  0.7886  0.2472 -0.0584
 7717TIP3    H244643   0.963   2.408  13.825 -0.2622  0.4555  1.1534
 7718TIP3   OH244644   0.903   0.614  12.683  0.4394  0.6000  0.0478
 7718TIP3    H144645   0.840   0.571  12.626  0.6309  0.1172  0.1987
 7718TIP3    H244646   0.944   0.543  12.732 -1.0425  1.1288  2.1706
 7719TIP3   OH244647   3.081   6.154  16.378 -0.1165 -0.2410 -0.1148
 7719TIP3    H144648   3.029   6.122  16.304  0.5730  0.9417 -1.1487
 7719TIP3    H244649   3.101   6.245  16.356  2.9567 -0.8221 -0.1502
 7720TIP3   OH244650   0.763   4.348  12.333  0.4795  0.7089 -0.1108
 7720TIP3    H144651   0.707   4.345  12.255  0.0428 -2.2563  0.2060
 7720TIP3    H244652   0.811   4.430  12.325 -2.3024  2.3290 -1.5302
 7721TIP3   OH244653   1.449   0.364   4.968  0.5175 -0.3056 -0.1613
 7721TIP3    H144654   1.431   0.270   4.970 -0.5577 -0.1793  3.1272
 7721TIP3    H244655   1.362   0.404   4.967  0.8608  0.5567  1.4993
 7722TIP3   OH244656   0.830   1.058   4.461 -0.8666  0.0043  0.0258
 7722TIP3    H144657   0.836   1.110   4.542 -0.8760  1.2995 -0.7795
 7722TIP3    H244658   0.888   1.103   4.399 -0.6302 -1.1442 -0.6086
 7723TIP3   OH244659   4.406   5.506  16.007 -0.0332  0.9574 -0.1305
 7723TIP3    H144660   4.364   5.442  16.065  0.0878 -0.4744 -1.5581
 7723TIP3    H244661   4.472   5.549  16.062  0.3535 -0.6395  0.6996
 7724TIP3   OH244662   1.160   0.611   5.335 -0.4999  0.6286 -0.1848
 7724TIP3    H144663   1.132   0.546   5.271  0.9747  0.7709 -1.0057
 7724TIP3    H244664   1.192   0.685   5.283 -0.8351  1.4367  0.7257
 7725TIP3   OH244665   4.922   6.042  17.019  0.0393 -0.1722  0.1702
 7725TIP3    H144666   4.956   6.055  17.108  1.8431 -0.6593 -0.4141
 7725TIP3    H244667   4.997   6.008  16.969 -0.8376  0.4299 -1.6294
 7726TIP3   OH244668   5.409   1.406   5.561  0.1177 -0.2456 -0.2375
 7726TIP3    H144669   5.434   1.412   5.469  0.2269 -2.6208 -0.4265
 7726TIP3    H244670   5.313   1.405   5.560  0.1087 -1.5399 -0.4922
 7727TIP3   OH244671   5.075   5.767  16.556  0.1824 -0.4569  0.1272
 7727TIP3    H144672   5.058   5.695  16.617  1.3662 -1.7982 -1.0563
 7727TIP3    H244673   5.163   5.797  16.578 -0.3345  0.7369  0.6706
 7728TIP3   OH244674   5.155   6.579   5.233 -0.2883 -0.3807  0.2870
 7728TIP3    H144675   5.083   6.583   5.295 -0.2199 -0.5679  0.3801
 7728TIP3    H244676   5.213   6.511   5.268  1.1366  1.3852  1.4861
 7729TIP3   OH244677   3.714   4.535   1.001 -0.0627  0.1073 -0.3740
 7729TIP3    H144678   3.745   4.445   1.005  2.4185  0.9251  1.6655
 7729TIP3    H244679   3.698   4.550   0.908  1.1115 -1.9370 -0.9785
 7730TIP3   OH244680   2.804   5.855   3.489  0.2053  0.0588  0.2645
 7730TIP3    H144681   2.900   5.852   3.487  0.2466  1.4510 -0.8737
 7730TIP3    H244682   2.784   5.919   3.557  0.0881  0.1609  0.1331
 7731TIP3   OH244683   0.857   3.807   0.228  0.2430 -0.1286 -0.8347
 7731TIP3    H144684   0.858   3.841   0.139 -0.1270  2.1396 -0.0469
 7731TIP3    H244685   0.845   3.885   0.283 -0.8409 -1.5987  1.1356
 7732TIP3   OH244686   4.524   2.324   6.028  0.1433  0.3372  0.2626
 7732TIP3    H144687   4.436   2.305   5.994  0.1436 -1.5356  1.1445
 7732TIP3    H244688   4.577   2.250   5.999  0.0483 -1.7102  4.4488
 7733TIP3   OH244689   3.445   6.492  16.998 -0.2956 -0.1128 -0.4699
 7733TIP3    H144690   3.370   6.444  16.961  0.7152 -0.7299 -1.8236
 7733TIP3    H244691   3.458   6.566  16.938  1.3970 -1.1411 -1.4515
 7734TIP3   OH244692   2.162   4.986  14.846  0.8189 -0.0657 -0.1551
 7734TIP3    H144693   2.205   5.065  14.878  0.0772  0.3804 -0.2430
 7734TIP3    H244694   2.082   5.017  14.804  0.7808 -0.8213 -0.6625
 7735TIP3   OH244695   1.977   5.800   1.447  0.1057  0.0511 -0.2995
 7735TIP3    H144696   1.906   5.770   1.390  0.3642  1.1044 -1.2080
 7735TIP3    H244697   1.940   5.798   1.535 -1.0794  0.6271 -0.7652
 7736TIP3   OH244698   3.642   3.774  13.523  0.1742 -0.3359 -0.6064
 7736TIP3    H144699   3.719   3.740  13.569 -0.3187  0.1031  0.5581
 7736TIP3    H244700   3.571   3.770  13.587 -0.2992  1.2622 -0.9799
 7737TIP3   OH244701   5.540   4.845   2.456 -0.4870 -0.0270 -0.4244
 7737TIP3    H144702   5.597   4.839   2.379 -2.2881 -0.5078 -1.7877
 7737TIP3    H244703   5.556   4.933   2.490  0.6925  0.0298 -1.0423
 7738TIP3   OH244704   6.280   3.658   3.213 -0.7029  0.7434  0.0851
 7738TIP3    H144705   6.251   3.627   3.298  1.1297 -1.8595 -0.1081
 7738TIP3    H244706   6.361   3.609   3.197  0.8855  3.6749 -1.6419
 7739TIP3   OH244707   3.032   1.318  13.770 -0.4194  0.4605 -0.0842
 7739TIP3    H144708   3.117   1.323  13.725  0.0523  0.3873  0.7636
 7739TIP3    H244709   3.042   1.379  13.843 -0.9965  0.2176  0.1933
 7740TIP3   OH244710   2.077   4.846  11.783  0.0842  0.2547  0.0835
 7740TIP3    H144711   2.149   4.907  11.766 -0.0578  0.0514 -1.4401
 7740TIP3    H244712   2.015   4.861  11.711 -0.3912 -1.0255  0.1965
 7741TIP3   OH244713   2.618   2.986  12.105  0.3670 -0.3722  0.3111
 7741TIP3    H144714   2.663   3.069  12.125  1.5868 -0.7867 -0.5728
 7741TIP3    H244715   2.552   2.978  12.174  0.2864  1.2808  0.4849
 7742TIP3   OH244716   0.902   4.035   5.538  0.6825  0.3839  0.0363
 7742TIP3    H144717   0.910   3.968   5.606  1.3509  1.6211  1.2116
 7742TIP3    H244718   0.824   4.085   5.563  1.8258  1.8494  0.8612
 7743TIP3   OH244719   4.288   4.081   3.615 -0.4989 -0.1908  0.6673
 7743TIP3    H144720   4.323   4.153   3.562 -0.6268  0.8629  1.9717
 7743TIP3    H244721   4.241   4.026   3.552  1.7327 -0.5589 -0.7803
 7744TIP3   OH244722   0.168   0.680  16.033 -0.8623  0.5264 -0.2024
 7744TIP3    H144723   0.124   0.607  16.075 -1.6076  1.4532  0.6789
 7744TIP3    H244724   0.228   0.639  15.970 -1.6336 -0.8107 -0.1063
 7745TIP3   OH244725   3.106   1.868  14.318  0.2628  0.1843  0.1428
 7745TIP3    H144726   3.066   1.912  14.243  1.3082 -1.3792 -1.4273
 7745TIP3    H244727   3.191   1.838  14.285  1.2836  0.5144  2.3527
 7746TIP3   OH244728   3.926   2.390  12.486 -0.2461  0.2098  0.6372
 7746TIP3    H144729   3.940   2.359  12.397 -0.7358 -0.1372  0.6776
 7746TIP3    H244730   4.002   2.358  12.535  0.0252  0.4034  0.3492
 7747TIP3   OH244731   5.123   0.600   6.107 -0.1801 -0.7215 -0.2823
 7747TIP3    H144732   5.215   0.610   6.082 -0.6288 -1.1358 -2.2323
 7747TIP3    H244733   5.087   0.538   6.043 -1.6658 -1.1032  0.8605
 7748TIP3   OH244734   2.939   5.666  14.764  0.1709  0.1109 -0.0608
 7748TIP3    H144735   2.893   5.705  14.690  0.0347  0.4279  0.1877
 7748TIP3    H244736   2.877   5.602  14.799 -0.1780  0.6887  0.4050
 7749TIP3   OH244737   1.283   2.799  12.796 -0.0815  0.4500  0.0226
 7749TIP3    H144738   1.288   2.895  12.797  2.1141  0.3991  0.9856
 7749TIP3    H244739   1.374   2.771  12.812 -1.1498 -1.7496  3.2265
 7750TIP3   OH244740   1.283   4.208  11.400  0.0656  0.4529  0.8516
 7750TIP3    H144741   1.310   4.240  11.486  0.1299  0.4057  0.8492
 7750TIP3    H244742   1.297   4.113  11.405  3.5503  0.7515 -0.4270
 7751TIP3   OH244743   0.573   4.747   2.666  0.5167 -0.1697  0.1277
 7751TIP3    H144744   0.484   4.723   2.692 -0.1918  0.2640 -1.6957
 7751TIP3    H244745   0.620   4.761   2.748 -0.8264 -1.3549  1.1448
 7752TIP3   OH244746   5.640   6.775   2.259  0.2613 -0.0377 -0.0041
 7752TIP3    H144747   5.733   6.772   2.282  0.2239 -0.7432  0.0821
 7752TIP3    H244748   5.595   6.793   2.341  0.5107  4.3582 -0.5780
 7753TIP3   OH244749   4.808   2.440  14.454 -0.3595 -0.4217  0.3504
 7753TIP3    H144750   4.849   2.518  14.492 -0.5542 -0.6065  0.9408
 7753TIP3    H244751   4.721   2.437  14.493 -0.5496 -0.6346 -0.0877
 7754TIP3   OH244752   2.176   5.646   3.928 -0.1216  0.6567  0.3237
 7754TIP3    H144753   2.146   5.737   3.930  0.6585  0.9270  0.0318
 7754TIP3    H244754   2.271   5.653   3.919 -0.1798 -0.2083 -1.0751
 7755TIP3   OH244755   6.672   1.228   4.674  0.6794  0.2378  0.5328
 7755TIP3    H144756   6.700   1.154   4.620 -1.4710 -0.1523 -0.1300
 7755TIP3    H244757   6.576   1.224   4.674  0.5438  1.2382  2.9996
 7756TIP3   OH244758   4.903   6.329  15.586  0.0098 -0.1370 -0.4872
 7756TIP3    H144759   4.958   6.257  15.555 -0.7204 -0.9996  0.1630
 7756TIP3    H244760   4.814   6.293  15.587 -0.3226  0.6675  0.1805
 7757TIP3   OH244761   3.915   3.030  16.159 -0.5963 -0.0472  0.1052
 7757TIP3    H144762   3.907   3.124  16.140 -1.0791  0.0957  0.9655
 7757TIP3    H244763   3.825   2.998  16.162 -0.4203 -1.2100 -3.1750
 7758TIP3   OH244764   0.731   3.778  15.662 -0.4794 -0.1985 -0.2609
 7758TIP3    H144765   0.777   3.805  15.583  2.1060 -0.6102  0.9924
 7758TIP3    H244766   0.694   3.693  15.640  0.2497 -0.3354 -1.0399
 7759TIP3   OH244767   0.716   0.222   5.833 -0.0068 -0.8589  0.0869
 7759TIP3    H144768   0.717   0.297   5.773 -1.6046  0.0667  1.1610
 7759TIP3    H244769   0.807   0.216   5.863  0.5509 -0.5443 -1.3972
 7760TIP3   OH244770   6.283   1.615  15.786  0.0006 -0.5624 -0.0549
 7760TIP3    H144771   6.256   1.530  15.820  0.9152 -1.0134 -0.4207
 7760TIP3    H244772   6.240   1.622  15.701 -1.7144  0.2567  0.8255
 7761TIP3   OH244773   6.755   6.127   0.159 -0.2705 -0.1080  0.0247
 7761TIP3    H144774   6.839   6.095   0.126 -0.9722 -0.5289 -1.3904
 7761TIP3    H244775   6.689   6.083   0.106 -1.4284 -0.1635  1.4461
 7762TIP3   OH244776   5.315   3.937   3.027 -0.5654 -0.5016 -0.1152
 7762TIP3    H144777   5.383   3.992   2.988 -0.8595  0.5277  0.7992
 7762TIP3    H244778   5.234   3.965   2.985 -1.3086  2.4222  2.8609
 7763TIP3   OH244779   0.607   0.054  14.912  0.0209  0.1568  0.0786
 7763TIP3    H144780   0.644   0.135  14.947 -0.4914  0.3798  0.1176
 7763TIP3    H244781   0.630   0.056  14.819 -0.5833  0.6888 -0.0634
 7764TIP3   OH244782   1.923   4.090   3.834 -0.3604 -0.3600  0.5017
 7764TIP3    H144783   1.991   4.023   3.824  0.4603  0.1727  2.0745
 7764TIP3    H244784   1.949   4.139   3.913 -1.3286  1.3284 -0.1611
 7765TIP3   OH244785   4.424   5.625   4.894  0.9530 -0.1891 -0.1199
 7765TIP3    H144786   4.341   5.635   4.942  1.6611  2.1814  0.7496
 7765TIP3    H244787   4.470   5.556   4.940 -0.5388 -1.6311 -0.6807
 7766TIP3   OH244788   2.386   0.804   2.452 -0.0840  0.4581  0.5239
 7766TIP3    H144789   2.343   0.889   2.448  0.1979  0.5928  0.3213
 7766TIP3    H244790   2.383   0.771   2.362 -0.1148  0.2928  0.5842
 7767TIP3   OH244791   2.365   3.367  12.895  0.3918 -0.4202  0.3828
 7767TIP3    H144792   2.352   3.278  12.862 -0.4596  0.1487 -0.9418
 7767TIP3    H244793   2.276   3.399  12.911  0.4878  1.0036 -1.5424
 7768TIP3   OH244794   1.671   0.359  13.096  0.1896  0.6334  0.0424
 7768TIP3    H144795   1.761   0.339  13.119 -0.3355 -3.1084 -0.4853
 7768TIP3    H244796   1.664   0.337  13.003 -1.2474  0.9602  0.0467
 7769TIP3   OH244797   6.602   5.819  14.301  0.1808  0.2013 -0.0449
 7769TIP3    H144798   6.630   5.741  14.348  1.1220  0.9950  0.7433
 7769TIP3    H244799   6.507   5.819  14.308  0.2633 -0.1203  1.1941
 7770TIP3   OH244800   1.231   4.722  15.913  0.3774  0.1896 -0.1853
 7770TIP3    H144801   1.285   4.724  15.992  2.0513 -2.0417 -1.1571
 7770TIP3    H244802   1.269   4.652  15.860 -2.6279 -0.5383 -1.5964
 7771TIP3   OH244803   3.363   5.048  16.584  0.4849  0.1647  0.1745
 7771TIP3    H144804   3.358   5.140  16.608  0.6823  0.5464 -1.1368
 7771TIP3    H244805   3.280   5.010  16.611  1.0825  0.2833  2.3650
 7772TIP3   OH244806   3.805   1.409  14.481 -0.0473 -0.9668  0.0841
 7772TIP3    H144807   3.739   1.380  14.543  0.3964 -2.7401 -0.2283
 7772TIP3    H244808   3.861   1.333  14.468  1.8265  0.3562  0.0247
 7773TIP3   OH244809   2.656   0.809   0.778 -0.2168  0.0546 -0.1584
 7773TIP3    H144810   2.630   0.816   0.686 -1.7825 -1.7199  0.0875
 7773TIP3    H244811   2.687   0.719   0.787 -0.3328  0.1252  1.1003
 7774TIP3   OH244812   1.804   3.356   4.779 -0.2762  0.1897 -0.0163
 7774TIP3    H144813   1.845   3.386   4.861 -0.9058 -3.1274  1.6928
 7774TIP3    H244814   1.712   3.343   4.801 -1.1358  1.9537 -2.1734
 7775TIP3   OH244815   3.145   0.883   5.006 -0.3401 -0.1595  0.1137
 7775TIP3    H144816   3.092   0.951   4.964 -0.2082 -0.3048 -0.2897
 7775TIP3    H244817   3.085   0.809   5.017  0.2860 -1.1167 -2.2989
 7776TIP3   OH244818   4.731   1.171   5.536 -0.1704 -0.2119 -0.2977
 7776TIP3    H144819   4.674   1.168   5.459 -0.5165  4.4785 -0.4973
 7776TIP3    H244820   4.809   1.123   5.510 -0.4434  0.8440 -3.5241
 7777TIP3   OH244821   2.935   1.505   0.928  0.4416  0.5544  0.3152
 7777TIP3    H144822   2.899   1.418   0.910  2.4321 -0.6362  1.7004
 7777TIP3    H244823   2.903   1.559   0.856  0.6895 -1.7676 -1.6909
 7778TIP3   OH244824   1.062   4.476  16.953 -0.7947 -0.1570 -0.3047
 7778TIP3    H144825   1.104   4.465  16.868 -0.1511  0.1946 -0.0462
 7778TIP3    H244826   1.128   4.446  17.016 -1.4157 -0.8004  0.0540
 7779TIP3   OH244827   6.179   4.618  15.128 -0.2201 -0.0757  0.0269
 7779TIP3    H144828   6.219   4.664  15.054 -0.1993 -0.3374 -0.1269
 7779TIP3    H244829   6.170   4.684  15.196  0.5589 -0.0367  0.0955
 7780TIP3   OH244830   3.314   3.098   4.738  0.6252  1.0292  0.1509
 7780TIP3    H144831   3.337   3.006   4.727  0.5620  1.2609 -2.5417
 7780TIP3    H244832   3.291   3.106   4.830  2.2516 -1.2620  0.8443
 7781TIP3   OH244833   2.834   4.382   1.493  0.1596  0.1830 -0.3685
 7781TIP3    H144834   2.888   4.358   1.418  1.3477  0.5867  0.3430
 7781TIP3    H244835   2.745   4.387   1.457  0.6354 -0.0870 -1.6424
 7782TIP3   OH244836   4.290   1.253   0.058 -0.2132  0.0884 -0.6436
 7782TIP3    H144837   4.360   1.189   0.045 -0.5642 -0.4202 -0.1215
 7782TIP3    H244838   4.260   1.275  -0.030 -0.7505 -1.2253 -0.8097
 7783TIP3   OH244839   4.737   0.765   0.490 -0.4742  0.2859  0.2045
 7783TIP3    H144840   4.675   0.836   0.508 -0.1371  1.3016 -2.2025
 7783TIP3    H244841   4.711   0.694   0.548 -0.8580  2.3417  2.7034
 7784TIP3   OH244842   4.636   0.695  13.767  0.4929 -0.5837  0.1665
 7784TIP3    H144843   4.702   0.764  13.763  0.8170 -0.8461  0.7458
 7784TIP3    H244844   4.609   0.682  13.677  0.2477  0.4658  0.0774
 7785TIP3   OH244845   1.866   4.396  16.507 -1.2281  0.0991 -0.1787
 7785TIP3    H144846   1.928   4.360  16.571 -0.3981  0.7224 -0.6077
 7785TIP3    H244847   1.830   4.474  16.550 -1.3570  0.0082 -0.1204
 7786TIP3   OH244848   2.207   4.586   3.541 -0.2013  0.2944  0.2944
 7786TIP3    H144849   2.150   4.526   3.590  0.3983 -1.2607 -0.8202
 7786TIP3    H244850   2.268   4.528   3.495  0.4660  1.7885 -0.7760
 7787TIP3   OH244851   5.070   4.628  14.164 -0.1905 -0.2588  0.5030
 7787TIP3    H144852   5.125   4.689  14.115 -0.6950 -0.5519 -0.4644
 7787TIP3    H244853   5.088   4.542  14.125  0.5793 -0.7627  1.9025
 7788TIP3   OH244854   3.889   2.765   5.485  0.3281  0.1665  0.1872
 7788TIP3    H144855   3.878   2.732   5.574  2.5388 -0.9468  0.1146
 7788TIP3    H244856   3.942   2.699   5.441  1.1456  1.7464 -1.3077
 7789TIP3   OH244857   3.382   5.914   4.174 -0.3026  0.1592  0.6631
 7789TIP3    H144858   3.362   5.938   4.083 -1.5050 -1.1351  0.5432
 7789TIP3    H244859   3.474   5.937   4.186 -0.1091  0.2903 -0.9059
 7790TIP3   OH244860   4.236   0.377   6.211 -0.6974  0.4974 -0.1897
 7790TIP3    H144861   4.254   0.378   6.117 -2.3838  0.0695 -0.5485
 7790TIP3    H244862   4.308   0.428   6.250  1.2909 -1.2019 -1.4349
 7791TIP3   OH244863   0.489   0.971  16.980 -0.2567  0.1317  0.4497
 7791TIP3    H144864   0.407   1.020  16.989 -0.3656  0.3368 -1.2679
 7791TIP3    H244865   0.462   0.884  16.951  0.1471  0.6827 -1.7882
 7792TIP3   OH244866   2.613   6.008  15.581 -0.5725 -0.7628  0.0731
 7792TIP3    H144867   2.567   5.968  15.655 -0.1544 -1.4767 -0.0367
 7792TIP3    H244868   2.630   5.935  15.521  0.4557 -0.4795 -0.0096
 7793TIP3   OH244869   5.514   2.028  14.229 -0.3704  0.2260 -0.3948
 7793TIP3    H144870   5.507   2.097  14.296 -1.4165  0.2165 -0.4728
 7793TIP3    H244871   5.531   1.948  14.279  0.8273  0.5248 -0.3024
 7794TIP3   OH244872   5.572   5.891  15.487 -0.1732 -0.0382 -0.3966
 7794TIP3    H144873   5.537   5.818  15.435  0.2052 -0.4475 -0.0893
 7794TIP3    H244874   5.667   5.884  15.477 -0.1540  0.8111 -0.8904
 7795TIP3   OH244875   3.236   1.089  11.073  0.1696  0.6274  0.4272
 7795TIP3    H144876   3.240   0.993  11.074  1.9215  0.6600  0.3185
 7795TIP3    H244877   3.255   1.112  10.982  2.6490  1.0905  0.9832
 7796TIP3   OH244878   5.652   3.240   5.161  0.3054 -0.2899 -0.2479
 7796TIP3    H144879   5.668   3.161   5.213 -0.9280 -0.7159 -0.4712
 7796TIP3    H244880   5.612   3.208   5.080 -0.0442  0.5471 -0.4202
 7797TIP3   OH244881   4.016   5.830  11.428 -0.4304 -0.1547  0.2962
 7797TIP3    H144882   4.027   5.913  11.381  0.4796 -0.0070  0.7621
 7797TIP3    H244883   4.034   5.851  11.520  3.0572 -1.4546  0.0688
 7798TIP3   OH244884   2.398   2.538   0.058  0.0980  0.3133 -0.2053
 7798TIP3    H144885   2.468   2.580   0.008 -0.6356  0.9186 -0.7375
 7798TIP3    H244886   2.325   2.532  -0.004 -1.7209  3.3341  1.4135
 7799TIP3   OH244887   5.837   1.992  15.490 -0.1851 -0.0964  0.6115
 7799TIP3    H144888   5.806   2.083  15.490 -0.5069 -0.1712 -1.1142
 7799TIP3    H244889   5.795   1.953  15.566 -0.7399  0.9782  0.8918
 7800TIP3   OH244890   3.477   2.674   4.953 -0.2162  0.1807 -0.2912
 7800TIP3    H144891   3.469   2.587   4.993 -1.5574 -0.0052 -0.8856
 7800TIP3    H244892   3.453   2.735   5.023 -0.5789 -0.0164 -0.2415
 7801TIP3   OH244893   2.080   5.478  10.605  0.0710 -0.1736  0.3781
 7801TIP3    H144894   2.174   5.492  10.593 -0.0186 -0.0224 -0.1782
 7801TIP3    H244895   2.050   5.447  10.520 -0.4968  0.3811  0.3741
 7802TIP3   OH244896   4.225   5.232   0.031 -0.0502  0.0490 -0.4196
 7802TIP3    H144897   4.262   5.147   0.056 -0.1278  0.5810  1.6771
 7802TIP3    H244898   4.147   5.209  -0.021  0.0501 -1.1655 -0.0796
 7803TIP3   OH244899   3.584   2.989   1.876  0.1641 -0.0788 -0.3149
 7803TIP3    H144900   3.675   3.005   1.849  0.4671 -0.6488  0.3195
 7803TIP3    H244901   3.587   2.903   1.919 -0.5784  0.1338  0.1841
 7804TIP3   OH244902   4.795   3.976   5.618  0.4376  0.1985  0.4773
 7804TIP3    H144903   4.845   3.922   5.679  2.1033  1.5150  0.3237
 7804TIP3    H244904   4.783   3.919   5.541 -0.6305 -1.0395  1.5004
 7805TIP3   OH244905   1.683   3.121   0.829 -0.7944 -0.2423  0.0664
 7805TIP3    H144906   1.651   3.204   0.863 -0.0940 -0.4230  1.2437
 7805TIP3    H244907   1.630   3.055   0.873 -0.1713 -0.4701  0.4869
 7806TIP3   OH244908   4.325   1.527  14.116 -0.2066  0.2573 -0.3839
 7806TIP3    H144909   4.335   1.513  14.021  0.3853 -0.0112 -0.2917
 7806TIP3    H244910   4.343   1.440  14.154  1.0673  0.6857  0.0595
 7807TIP3   OH244911   0.837   5.511  11.400 -0.3727  0.9425  0.3099
 7807TIP3    H144912   0.813   5.535  11.490  0.0163 -0.0723  0.6939
 7807TIP3    H244913   0.875   5.591  11.364 -1.4860  1.6762  0.6912
 7808TIP3   OH244914   4.114   2.005  11.723 -0.1435  0.2204  0.4988
 7808TIP3    H144915   4.123   1.935  11.658 -2.4665  0.4049 -0.0991
 7808TIP3    H244916   4.138   2.084  11.676 -0.5179  0.1846  0.2369
 7809TIP3   OH244917   0.536   2.960   5.682 -0.1822  0.2751  0.7491
 7809TIP3    H144918   0.562   3.050   5.667 -0.7064  0.4469  0.8306
 7809TIP3    H244919   0.610   2.920   5.727  0.5246  0.3406 -0.3275
 7810TIP3   OH244920   5.146   0.983   0.500  0.1812  0.3667 -0.5625
 7810TIP3    H144921   5.202   1.053   0.467  2.0055 -1.3275 -1.2296
 7810TIP3    H244922   5.098   0.953   0.423 -0.3489  0.6447 -0.3449
 7811TIP3   OH244923   6.060   5.936   4.683 -0.8836 -0.9943 -0.1722
 7811TIP3    H144924   5.980   5.895   4.717 -0.6983 -0.3797  1.0604
 7811TIP3    H244925   6.028   6.005   4.625 -1.2616 -0.5996  0.4970
 7812TIP3   OH244926   4.470   1.137   4.595 -0.3375 -1.0215 -0.5771
 7812TIP3    H144927   4.399   1.156   4.534 -1.0785 -0.0372  0.5345
 7812TIP3    H244928   4.522   1.069   4.552 -1.2520 -0.8883 -1.9487
 7813TIP3   OH244929   1.037   5.307  17.072  0.1887  0.0001 -0.1473
 7813TIP3    H144930   1.089   5.388  17.066 -0.9429  0.7457 -0.1079
 7813TIP3    H244931   1.069   5.253  17.000 -0.4696  1.3473 -1.5139
 7814TIP3   OH244932   0.127   6.142  14.700 -0.6067 -0.2953 -0.1877
 7814TIP3    H144933   0.076   6.218  14.671  1.5686  0.9451 -1.0243
 7814TIP3    H244934   0.168   6.109  14.620 -0.4640 -1.5421  0.3776
 7815TIP3   OH244935   1.782   6.469   1.999  0.1937  0.2281 -0.0200
 7815TIP3    H144936   1.717   6.515   2.052 -0.2771 -0.1002 -0.2960
 7815TIP3    H244937   1.786   6.520   1.917 -0.9738 -0.6859 -0.6746
 7816TIP3   OH244938   2.336   3.849  13.112 -0.0622  0.7351 -0.1000
 7816TIP3    H144939   2.354   3.820  13.022  0.9469  2.3710 -0.4607
 7816TIP3    H244940   2.352   3.772  13.166 -0.1464 -0.1210 -1.2664
 7817TIP3   OH244941   6.238   4.833   0.918 -0.2716 -0.3002 -0.6875
 7817TIP3    H144942   6.208   4.839   1.009  1.0260 -0.7375 -0.2207
 7817TIP3    H244943   6.269   4.744   0.908  0.5798  0.0458 -1.2437
 7818TIP3   OH244944   0.531   5.342   1.210  0.5835  0.0012  0.5948
 7818TIP3    H144945   0.548   5.248   1.211 -2.2974 -0.5928  0.6196
 7818TIP3    H244946   0.618   5.382   1.220  1.9894 -2.6015 -0.2938
 7819TIP3   OH244947   3.617   2.052   4.714  0.0670  0.2370 -0.2320
 7819TIP3    H144948   3.582   2.047   4.803 -0.3592 -1.7055 -0.4507
 7819TIP3    H244949   3.695   1.997   4.716  1.1228  1.6629 -0.6392
 7820TIP3   OH244950   1.675   3.520   2.869 -0.0421 -0.2603 -0.1110
 7820TIP3    H144951   1.713   3.490   2.786 -0.9303 -0.0293 -0.6210
 7820TIP3    H244952   1.736   3.490   2.936 -0.2388 -2.0880 -0.6938
 7821TIP3   OH244953   5.610   3.269   3.911 -0.3701 -0.1082 -0.0807
 7821TIP3    H144954   5.606   3.364   3.898  0.2936  0.1208  1.2136
 7821TIP3    H244955   5.600   3.232   3.823  3.7079  1.2735 -1.3624
 7822TIP3   OH244956   3.492   4.635  14.715 -0.1163 -0.0443  0.1793
 7822TIP3    H144957   3.459   4.635  14.805 -1.3132  0.3549 -0.2448
 7822TIP3    H244958   3.478   4.545  14.685  2.5307 -0.8639  1.1496
 7823TIP3   OH244959   1.247   1.496  15.606 -0.2791  0.4205  0.5962
 7823TIP3    H144960   1.201   1.550  15.671  2.5456  1.3850  1.9534
 7823TIP3    H244961   1.254   1.552  15.529 -0.8904  0.4654  0.5688
 7824TIP3   OH244962   1.807   5.594   5.656  0.4224 -0.2870 -0.0170
 7824TIP3    H144963   1.813   5.578   5.561 -0.6453 -0.0082 -0.1475
 7824TIP3    H244964   1.882   5.547   5.693  1.0915 -0.0598 -1.0381
 7825TIP3   OH244965   3.215   5.276  13.863  0.1659 -0.0524 -0.3527
 7825TIP3    H144966   3.135   5.256  13.814 -0.0595  1.6297 -0.7366
 7825TIP3    H244967   3.184   5.307  13.948  0.3231  1.5361 -0.8391
 7826TIP3   OH244968   3.255   1.827  11.868  0.1816 -0.1011  0.0810
 7826TIP3    H144969   3.205   1.749  11.893 -0.1084  0.5198  1.5712
 7826TIP3    H244970   3.343   1.811  11.903  1.4385 -1.6279 -3.3851
 7827TIP3   OH244971   0.239   0.114  15.149  0.0141  0.0586 -0.0600
 7827TIP3    H144972   0.153   0.103  15.108 -0.4971 -1.4640  1.3265
 7827TIP3    H244973   0.255   0.031  15.192  0.8199  1.3503  2.2596
 7828TIP3   OH244974   0.642   6.654   1.741 -0.0156 -0.3766 -0.8362
 7828TIP3    H144975   0.632   6.578   1.683 -0.1331 -0.3969 -0.7890
 7828TIP3    H244976   0.715   6.704   1.703  1.5440 -1.6445  0.3372
 7829TIP3   OH244977   1.684   1.343  15.517 -0.0610  0.2865  0.4913
 7829TIP3    H144978   1.760   1.400  15.500  0.9459 -2.0465 -4.8091
 7829TIP3    H244979   1.613   1.383  15.466  0.0929 -1.7780 -1.5213
 7830TIP3   OH244980   6.374   4.683  16.391  0.0714 -0.2693 -0.2921
 7830TIP3    H144981   6.424   4.602  16.404  0.4559  0.0119 -0.0091
 7830TIP3    H244982   6.289   4.665  16.432  0.9686  0.2916  1.9254
 7831TIP3   OH244983   1.636   1.745  11.719 -0.4913  0.4200 -0.2923
 7831TIP3    H144984   1.615   1.732  11.812  0.1033  0.5491 -0.1393
 7831TIP3    H244985   1.599   1.669  11.675  0.1898 -0.2031  0.1887
 7832TIP3   OH244986   0.577   1.484  17.318 -0.0184 -0.3042 -0.2256
 7832TIP3    H144987   0.605   1.462  17.406  1.1566  0.3472 -0.4233
 7832TIP3    H244988   0.505   1.423  17.300 -0.5004 -0.2226  1.2896
 7833TIP3   OH244989   6.782   0.171  13.474 -0.0228 -0.3395 -0.2327
 7833TIP3    H144990   6.876   0.190  13.476 -0.2469  0.7776  0.4973
 7833TIP3    H244991   6.766   0.123  13.555 -0.2629  0.4466  0.1954
 7834TIP3   OH244992   1.349   4.568  15.381 -0.2311 -0.0962 -0.4957
 7834TIP3    H144993   1.438   4.536  15.395  0.3782  1.1272 -1.4375
 7834TIP3    H244994   1.339   4.573  15.286 -2.1527 -2.4536 -0.5205
 7835TIP3   OH244995   0.629   1.967   5.274 -0.3040 -1.0198 -0.1007
 7835TIP3    H144996   0.669   2.004   5.195  0.2750 -1.1843  0.1141
 7835TIP3    H244997   0.590   2.042   5.319  0.7852 -0.6675  0.2883
 7836TIP3   OH244998   0.262   0.679  15.009  0.1155  0.4064 -0.4887
 7836TIP3    H144999   0.305   0.665  14.925  0.1048 -1.4414 -0.2190
 7836TIP3    H245000   0.283   0.770  15.032  0.1685  0.9365 -2.4374
 7837TIP3   OH245001   3.223   5.054  15.889  0.1513 -0.1733  0.4402
 7837TIP3    H145002   3.290   5.111  15.853 -0.8308 -0.9069 -2.8758
 7837TIP3    H245003   3.142   5.103  15.881 -0.5152 -1.4368 -1.2732
 7838TIP3   OH245004   2.240   0.363   2.369 -0.3099 -0.2949  0.3214
 7838TIP3    H145005   2.255   0.448   2.408 -0.0151 -1.6157  3.3596
 7838TIP3    H245006   2.327   0.325   2.358 -0.3127  0.3249 -2.5605
 7839TIP3   OH245007   0.408   4.804   3.244 -0.1184 -0.1003 -0.1576
 7839TIP3    H145008   0.434   4.741   3.177 -1.0669 -1.1930  0.4666
 7839TIP3    H245009   0.442   4.767   3.326  0.1379  0.6946  0.1049
 7840TIP3   OH245010   4.467   1.254  17.142  0.3706 -0.2369 -0.3403
 7840TIP3    H145011   4.459   1.346  17.165  1.3912 -0.1129 -0.4487
 7840TIP3    H245012   4.494   1.211  17.223  1.9104 -0.1146 -0.7592
 7841TIP3   OH245013   4.201   5.527  17.049 -1.1567 -0.2895 -0.2292
 7841TIP3    H145014   4.151   5.504  17.127 -0.6454 -0.8580 -0.0649
 7841TIP3    H245015   4.209   5.445  17.000 -0.7219 -0.1217 -0.4444
 7842TIP3   OH245016   0.644   6.639   4.420  0.1896 -0.4834 -0.4358
 7842TIP3    H145017   0.595   6.716   4.449 -0.3731 -0.9908 -0.0054
 7842TIP3    H245018   0.733   6.654   4.453 -0.4224 -1.0357  1.6621
 7843TIP3   OH245019   6.787   5.276   5.888  0.5203  0.6438 -0.5544
 7843TIP3    H145020   6.753   5.201   5.936  0.2359  1.3394  0.3769
 7843TIP3    H245021   6.881   5.260   5.882  0.4246  0.0848 -0.5919
 7844TIP3   OH245022   4.467   6.363  16.611  0.7177  0.3221 -0.4324
 7844TIP3    H145023   4.559   6.376  16.633  1.5024 -0.8350 -2.7162
 7844TIP3    H245024   4.456   6.268  16.610 -0.6448  0.4578  0.3059
 7845TIP3   OH245025   3.894   4.084   0.083 -0.3476 -0.4494 -0.8480
 7845TIP3    H145026   3.939   4.090   0.168 -1.4017  1.5825 -0.3523
 7845TIP3    H245027   3.871   3.992   0.074  0.8686 -0.9164  0.5021
 7846TIP3   OH245028   4.813   5.000  14.379 -0.2244  0.5355 -0.7512
 7846TIP3    H145029   4.840   5.053  14.453  0.0903 -0.9917  0.2737
 7846TIP3    H245030   4.829   5.055  14.302 -0.7944  2.2474  0.3068
 7847TIP3   OH245031   4.837   3.560   5.093  0.1804  0.3952 -0.1588
 7847TIP3    H145032   4.761   3.553   5.151  0.6722  1.1563  0.6004
 7847TIP3    H245033   4.833   3.650   5.059 -0.3405 -0.1631 -1.6648
 7848TIP3   OH245034   1.684   1.827   3.314  0.1939  0.1506 -0.3149
 7848TIP3    H145035   1.642   1.903   3.273  0.8549  0.2680 -0.7853
 7848TIP3    H245036   1.777   1.849   3.316  0.0785  0.6977  2.4049
 7849TIP3   OH245037   1.985   1.374  12.296 -0.0422  0.2788 -0.2748
 7849TIP3    H145038   1.944   1.356  12.381  0.6156 -0.3334 -0.0698
 7849TIP3    H245039   1.952   1.305  12.239 -0.8183  0.9444 -0.6384
 7850TIP3   OH245040   1.472   4.899   5.160 -0.0699  0.3255 -0.4703
 7850TIP3    H145041   1.442   4.895   5.251  0.5175  1.4453 -0.2030
 7850TIP3    H245042   1.566   4.914   5.168  0.0981 -0.2463 -1.2830
 7851TIP3   OH245043   6.568   2.796   5.944  0.4057  0.0538 -1.2167
 7851TIP3    H145044   6.626   2.743   5.998  0.8254  1.1501 -0.5601
 7851TIP3    H245045   6.573   2.884   5.982 -2.6186 -0.0310 -0.3465
 7852TIP3   OH245046   2.710   0.022  12.637  0.1005  0.2027  0.2847
 7852TIP3    H145047   2.723  -0.051  12.576  0.9989  0.5095  0.0837
 7852TIP3    H245048   2.721  -0.016  12.724 -0.4991 -0.1058  0.2267
 7853TIP3   OH245049   3.033   1.313  12.724 -1.0080  0.1024 -0.4392
 7853TIP3    H145050   3.107   1.253  12.734 -0.4071  1.1869  3.2115
 7853TIP3    H245051   2.956   1.257  12.729 -0.4411 -0.6017  1.0535
 7854TIP3   OH245052   0.270   2.086   3.976 -0.8033  0.1850 -0.3327
 7854TIP3    H145053   0.258   2.177   3.949  0.3994  1.0974  1.9640
 7854TIP3    H245054   0.184   2.058   4.006 -1.1557  0.5813 -0.9535
 7855TIP3   OH245055   2.109   5.358   4.891 -0.1918 -0.2827 -0.2065
 7855TIP3    H145056   2.059   5.385   4.813  0.2445 -0.3856 -0.5266
 7855TIP3    H245057   2.177   5.300   4.856  0.5319  0.3394  0.1433
 7856TIP3   OH245058   2.099   2.341   3.323  0.4500  0.0278  0.1587
 7856TIP3    H145059   2.027   2.292   3.363  1.1599 -0.5497  0.7588
 7856TIP3    H245060   2.085   2.432   3.352  0.9011 -0.3617  1.6949
 7857TIP3   OH245061   0.869   5.522   5.239  0.4910 -0.0327 -0.2420
 7857TIP3    H145062   0.828   5.588   5.296 -1.9022 -1.3037 -0.3571
 7857TIP3    H245063   0.857   5.439   5.286  3.4917 -0.4647 -0.0799
 7858TIP3   OH245064   0.166   2.681   3.520  0.5337  0.0193  0.4432
 7858TIP3    H145065   0.118   2.600   3.537 -2.2389  1.3521 -0.3453
 7858TIP3    H245066   0.199   2.709   3.605  0.4331 -1.2660  0.9206
 7859TIP3   OH245067   4.530   1.204   2.756 -0.2085  0.5941 -0.3403
 7859TIP3    H145068   4.478   1.229   2.832 -0.2145  0.5914 -0.3436
 7859TIP3    H245069   4.469   1.158   2.699 -0.0786  0.1249 -0.1064
 7860TIP3   OH245070   4.440   0.339  13.958 -0.2937 -0.0424  0.0754
 7860TIP3    H145071   4.466   0.293  13.878 -0.2607  1.1090 -0.6140
 7860TIP3    H245072   4.452   0.276  14.028 -2.2226 -1.7565 -1.0505
 7861TIP3   OH245073   4.542   0.544  14.482 -0.4404 -0.3474 -0.1018
 7861TIP3    H145074   4.475   0.489  14.441 -0.1489 -0.9589  0.2373
 7861TIP3    H245075   4.541   0.518  14.574 -0.5354  0.4576  0.1363
 7862TIP3   OH245076   1.873   2.500  11.661 -0.1463  0.9673 -0.5867
 7862TIP3    H145077   1.788   2.478  11.699  1.6780 -2.8790  1.9662
 7862TIP3    H245078   1.880   2.595  11.671 -2.8628  1.0448  2.0857
 7863TIP3   OH245079   0.515   4.544  13.770  0.5725  0.0759 -0.0263
 7863TIP3    H145080   0.456   4.556  13.844 -0.2866  0.4758 -0.7649
 7863TIP3    H245081   0.595   4.508  13.810 -0.2307 -0.7106  0.9632
 7864TIP3   OH245082   2.089   3.594   2.506 -0.4745 -0.5146  0.0021
 7864TIP3    H145083   1.997   3.619   2.510  0.3316  3.7895 -1.9777
 7864TIP3    H245084   2.131   3.645   2.576  0.5278 -1.7591  0.3428
 7865TIP3   OH245085   5.078   2.924   1.769  0.6692 -0.1581 -0.3174
 7865TIP3    H145086   5.086   2.998   1.709 -0.3308 -0.6992 -1.1242
 7865TIP3    H245087   5.038   2.962   1.848 -2.0892 -0.2235 -1.5766
 7866TIP3   OH245088   6.164   0.170  17.339  0.1542 -0.4840  0.2947
 7866TIP3    H145089   6.139   0.250  17.293  1.6256  0.0773  0.4054
 7866TIP3    H245090   6.118   0.100  17.292 -1.0178  0.3839  0.0854
 7867TIP3   OH245091   5.140   5.724  16.137  0.0185  0.3499 -0.5657
 7867TIP3    H145092   5.208   5.714  16.071 -1.1277 -0.7479 -1.6300
 7867TIP3    H245093   5.112   5.816  16.129 -1.1199 -0.1196 -2.6758
 7868TIP3   OH245094   6.113   0.752   1.454  0.4453  0.0761  0.3497
 7868TIP3    H145095   6.110   0.663   1.490 -1.3614 -0.0128  0.0478
 7868TIP3    H245096   6.110   0.740   1.359  0.3996  0.4559  0.3025
 7869TIP3   OH245097   3.020   2.953  13.631  0.0223  0.4524 -0.5059
 7869TIP3    H145098   3.070   2.967  13.711  1.1779 -0.5879 -1.0042
 7869TIP3    H245099   2.939   2.912  13.659  0.0406  0.8773  0.1910
 7870TIP3   OH245100   1.933   0.560   1.337 -0.1045  0.1590  0.8729
 7870TIP3    H145101   1.993   0.578   1.266 -1.0372  0.8249  0.2378
 7870TIP3    H245102   1.954   0.625   1.404  0.5510 -0.2622  1.0922
 7871TIP3   OH245103   3.827   1.650   2.258  0.2755 -0.3559  0.3667
 7871TIP3    H145104   3.740   1.621   2.284  0.0626 -0.0721 -0.0249
 7871TIP3    H245105   3.813   1.735   2.216  0.6936 -0.4749 -0.0270
 7872TIP3   OH245106   3.101   0.991   4.176 -0.0405 -0.4352  0.2729
 7872TIP3    H145107   3.066   1.081   4.176 -1.9925 -1.0903  2.0994
 7872TIP3    H245108   3.185   0.999   4.220 -0.6153  0.4163  1.2989
 7873TIP3   OH245109   4.653   5.271   4.256 -0.1710 -0.1609 -0.1818
 7873TIP3    H145110   4.653   5.365   4.276  0.4234 -0.3232  0.6390
 7873TIP3    H245111   4.728   5.237   4.304  0.0453 -0.9435 -1.0557
 7874TIP3   OH245112   6.459   2.206  14.929 -0.1588  0.4175  0.3310
 7874TIP3    H145113   6.479   2.117  14.957  0.9168  0.6062  0.1837
 7874TIP3    H245114   6.458   2.257  15.009  1.3728  0.6619  0.2287
 7875TIP3   OH245115   5.927   4.776  15.311 -0.1284  0.0235 -0.5283
 7875TIP3    H145116   5.876   4.714  15.258  2.1728 -1.3142 -1.3439
 7875TIP3    H245117   5.915   4.747  15.401 -1.1830  0.0660 -0.6431
 7876TIP3   OH245118   3.873   1.593   3.252  0.1671 -0.4327  0.5212
 7876TIP3    H145119   3.935   1.562   3.319  2.1288 -0.7739 -1.3364
 7876TIP3    H245120   3.807   1.523   3.246  0.6781 -0.9917  1.2030
 7877TIP3   OH245121   6.726   2.687   2.405  0.4274  0.1188  0.1766
 7877TIP3    H145122   6.711   2.778   2.382 -0.6548 -0.0790  0.0448
 7877TIP3    H245123   6.810   2.665   2.365  0.5634  0.9728 -0.0161
 7878TIP3   OH245124   1.570   2.368   5.534  0.3118 -0.6322  0.0042
 7878TIP3    H145125   1.485   2.326   5.548  0.7541 -1.0833  1.5313
 7878TIP3    H245126   1.554   2.460   5.552  0.4066 -0.9064  1.6501
 7879TIP3   OH245127   1.987   5.645   2.823  0.7456 -0.0989  0.7072
 7879TIP3    H145128   2.016   5.717   2.768 -0.3694  0.7647  1.2317
 7879TIP3    H245129   2.014   5.670   2.911 -0.3752  0.0906  1.0104
 7880TIP3   OH245130   6.735   5.694  16.459 -0.5815 -0.3454 -0.5382
 7880TIP3    H145131   6.710   5.659  16.545  0.4933 -0.2325 -0.1695
 7880TIP3    H245132   6.755   5.786  16.475 -0.4221 -0.3104 -0.9206
 7881TIP3   OH245133   5.734   1.458   3.122  0.3275 -0.6878  0.1544
 7881TIP3    H145134   5.723   1.364   3.133  0.5936 -0.5848  1.3595
 7881TIP3    H245135   5.694   1.497   3.200  0.9925  0.1491  0.0944
 7882TIP3   OH245136   0.276   1.338  17.410 -0.2931 -0.3379 -0.1563
 7882TIP3    H145137   0.238   1.426  17.412 -2.7280 -1.2423 -1.6694
 7882TIP3    H245138   0.251   1.299  17.494 -0.6475 -0.1241 -0.1633
 7883TIP3   OH245139   0.442   0.729  15.561  0.4278 -0.5090  0.1321
 7883TIP3    H145140   0.416   0.647  15.519 -0.2503 -0.3516  0.2275
 7883TIP3    H245141   0.371   0.790  15.539  0.3682 -0.2579  0.9968
 7884TIP3   OH245142   6.001   5.849   5.093  0.9435  0.0184 -0.1863
 7884TIP3    H145143   6.040   5.793   5.026  0.4706  1.3397 -1.6415
 7884TIP3    H245144   5.914   5.869   5.060  0.9083  1.1786  0.5410
 7885TIP3   OH245145   5.370   3.993   4.918 -0.0712  0.1872 -0.2823
 7885TIP3    H145146   5.424   3.914   4.910 -0.1287  0.2133 -1.0456
 7885TIP3    H245147   5.280   3.962   4.909 -0.0733  0.3823 -1.0230
 7886TIP3   OH245148   1.274   2.226  12.127 -0.1901  0.0558  0.4238
 7886TIP3    H145149   1.299   2.227  12.219 -1.3080 -1.5351  0.8056
 7886TIP3    H245150   1.188   2.182  12.126  0.2779 -0.9647 -1.4638
 7887TIP3   OH245151   4.732   3.906   2.894  0.2617 -0.2106  0.0045
 7887TIP3    H145152   4.792   3.873   2.826  0.7650  1.0282 -0.1760
 7887TIP3    H245153   4.680   3.973   2.850 -2.5447 -2.3978 -0.3140
 7888TIP3   OH245154   2.481   6.653   1.127 -0.5185  0.6500 -0.2929
 7888TIP3    H145155   2.471   6.741   1.163 -1.0884  0.1632  0.7953
 7888TIP3    H245156   2.565   6.655   1.081 -1.5524  2.4156 -2.3034
 7889TIP3   OH245157   5.855   4.950   2.536  0.4602  0.2907  0.3654
 7889TIP3    H145158   5.886   4.877   2.589  1.6100 -0.0346 -0.7023
 7889TIP3    H245159   5.873   4.924   2.445  0.3102  1.6213 -0.0737
 7890TIP3   OH245160   4.771   4.270   2.923 -0.5027 -0.2314 -0.0204
 7890TIP3    H145161   4.719   4.318   2.988  2.8640  2.2541  1.0707
 7890TIP3    H245162   4.770   4.179   2.954  0.1034  0.6749  2.9977
 7891TIP3   OH245163   5.703   6.775   4.827 -0.0244 -0.0859  0.3226
 7891TIP3    H145164   5.780   6.746   4.876 -0.3869 -0.8582  0.4425
 7891TIP3    H245165   5.739   6.828   4.756  0.5082  1.1186  1.4430
 7892TIP3   OH245166   5.805   5.462  14.249  0.5672 -0.0508  0.1037
 7892TIP3    H145167   5.900   5.461  14.239  0.5554 -0.8615  0.0321
 7892TIP3    H245168   5.790   5.418  14.333  0.1615 -1.7057 -0.7965
 7893TIP3   OH245169   3.901   5.599   2.607 -0.3841 -0.5836 -0.2994
 7893TIP3    H145170   3.842   5.656   2.557  1.0454  1.8897  0.6997
 7893TIP3    H245171   3.948   5.658   2.666  1.0166 -2.8557  0.9972
 7894TIP3   OH245172   6.210   2.107   5.961  0.5009  0.6467  0.4642
 7894TIP3    H145173   6.218   2.016   5.988 -0.0870  0.1765 -0.8776
 7894TIP3    H245174   6.183   2.103   5.869 -3.1018  2.1251  1.2853
 7895TIP3   OH245175   5.069   2.348   6.761 -0.0948 -0.4791 -0.2831
 7895TIP3    H145176   5.131   2.277   6.780 -0.2412 -0.8383 -1.1095
 7895TIP3    H245177   4.992   2.303   6.727 -0.1699  0.0825 -0.8633
 7896TIP3   OH245178   1.707   6.676   5.699 -0.5912  0.2410 -0.3988
 7896TIP3    H145179   1.792   6.670   5.744 -1.3869 -0.1287  1.0972
 7896TIP3    H245180   1.681   6.767   5.708  0.2454  0.6872 -2.0580
 7897TIP3   OH245181   3.436   4.607   5.025 -0.2826  0.3086  0.3672
 7897TIP3    H145182   3.375   4.627   4.955 -1.6145 -0.8151  1.1578
 7897TIP3    H245183   3.390   4.544   5.080  2.0833 -1.6341  0.2796
 7898TIP3   OH245184   1.301   0.991   2.464  0.6981  0.2657  0.0376
 7898TIP3    H145185   1.234   0.961   2.403 -0.1988  1.0106  0.6253
 7898TIP3    H245186   1.322   0.913   2.516 -0.0134  0.1165  0.1158
 7899TIP3   OH245187   3.616   5.669   0.620 -0.0121  0.1956  0.0767
 7899TIP3    H145188   3.520   5.665   0.627 -0.0402 -0.4539 -0.5527
 7899TIP3    H245189   3.645   5.684   0.710 -0.7167  0.6518  0.2402
 7900TIP3   OH245190   3.805   1.854   0.952  0.3574 -0.4944  0.0090
 7900TIP3    H145191   3.788   1.806   0.870  0.3811  0.3893 -0.5226
 7900TIP3    H245192   3.744   1.815   1.015 -1.4221  0.4444 -1.0551
 7901TIP3   OH245193   4.145   0.098  12.973  0.4667 -0.2969 -0.1534
 7901TIP3    H145194   4.112   0.188  12.969 -0.4647 -0.5539  1.0140
 7901TIP3    H245195   4.072   0.048  13.009 -0.0334 -2.0349 -3.1959
 7902TIP3   OH245196   3.287   3.298  15.099 -0.1468  0.3050 -0.2143
 7902TIP3    H145197   3.293   3.215  15.052 -1.3956 -1.5635  2.6262
 7902TIP3    H245198   3.377   3.317  15.124  0.4783  1.1161 -2.8043
 7903TIP3   OH245199   4.675   2.726   6.435  0.2602 -0.2845 -0.6577
 7903TIP3    H145200   4.745   2.745   6.373  0.0472 -1.8808 -1.4334
 7903TIP3    H245201   4.656   2.633   6.422  0.9626 -1.0087  2.5908
 7904TIP3   OH245202   5.224   3.461  16.441 -0.4567 -0.4294 -0.0059
 7904TIP3    H145203   5.257   3.419  16.520 -0.5093 -1.6627 -0.6233
 7904TIP3    H245204   5.205   3.389  16.381 -0.0227  0.5007 -1.3056
 7905TIP3   OH245205   4.514   6.016  16.284  0.1685  0.0492  0.1289
 7905TIP3    H145206   4.551   5.931  16.306 -0.1236 -0.4205 -1.1360
 7905TIP3    H245207   4.589   6.069  16.256  0.3636  0.2520  1.0151
 7906TIP3   OH245208   3.667   5.110  12.235 -0.2556  0.2041 -0.3735
 7906TIP3    H145209   3.604   5.163  12.282 -0.7901 -0.8509  0.1410
 7906TIP3    H245210   3.660   5.023  12.274  2.0665  0.2153  0.2254
 7907TIP3   OH245211   0.730   2.174   5.069  0.0618  0.2744  0.3472
 7907TIP3    H145212   0.822   2.185   5.043  0.3850  0.0363  1.3376
 7907TIP3    H245213   0.691   2.121   5.000  0.6479  0.4550 -0.1258
 7908TIP3   OH245214   2.996   0.981  13.636  0.4980 -0.3413  0.3584
 7908TIP3    H145215   3.074   0.941  13.596  0.4369 -0.7329  0.6284
 7908TIP3    H245216   2.984   1.062  13.587  0.2991 -0.9127 -0.5712
 7909TIP3   OH245217   5.235   5.317  14.001 -0.4360  0.4337 -0.0130
 7909TIP3    H145218   5.155   5.338  14.050 -0.6396 -1.1593  0.3934
 7909TIP3    H245219   5.204   5.281  13.918 -0.2616 -1.8867  0.8395
 7910TIP3   OH245220   5.662   1.176  17.409  0.1957  0.1817  0.2529
 7910TIP3    H145221   5.576   1.198  17.447  0.3728 -0.9921  1.3755
 7910TIP3    H245222   5.724   1.231  17.457  0.0418  1.6711 -1.1392
 7911TIP3   OH245223   0.459   2.104   5.461  0.5174  0.3607 -0.2492
 7911TIP3    H145224   0.366   2.095   5.483  0.2081  1.2227 -1.1275
 7911TIP3    H245225   0.483   2.190   5.496  0.9387  0.2243 -0.1997
 7912TIP3   OH245226   5.851   2.988  17.378  0.0956  0.2902 -0.3719
 7912TIP3    H145227   5.900   2.906  17.389 -0.7626 -0.1270  0.4622
 7912TIP3    H245228   5.897   3.033  17.307 -0.2020 -1.5054 -1.7947
 7913TIP3   OH245229   6.260   1.443   5.767 -0.2673  0.6489 -0.3127
 7913TIP3    H145230   6.168   1.468   5.752 -0.6066  0.0665  0.7054
 7913TIP3    H245231   6.300   1.446   5.680 -0.6509  3.2149 -0.4604
 7914TIP3   OH245232   4.065   0.164  15.521 -0.3106  0.0078 -0.0066
 7914TIP3    H145233   4.080   0.234  15.585  0.1225 -0.3911  0.3363
 7914TIP3    H245234   3.998   0.108  15.561 -0.4378  0.0588 -0.1471
 7915TIP3   OH245235   1.691   2.471  12.375  0.3846 -0.2802  0.1051
 7915TIP3    H145236   1.622   2.416  12.414  0.2072 -0.3943 -0.3699
 7915TIP3    H245237   1.731   2.515  12.450  1.0239 -1.6125  0.5814
 7916TIP3   OH245238   5.254   3.576   5.942 -0.8021  0.3603 -1.0839
 7916TIP3    H145239   5.173   3.582   5.992 -0.1762 -0.0903  0.0306
 7916TIP3    H245240   5.300   3.501   5.980 -0.2750  0.0233 -2.3256
 7917TIP3   OH245241   2.314   5.315   0.327 -0.1771  0.7511 -0.2491
 7917TIP3    H145242   2.286   5.250   0.391  1.7406  0.1951  0.0736
 7917TIP3    H245243   2.233   5.342   0.283 -0.8897 -3.5825 -2.0788
 7918TIP3   OH245244   3.866   1.730   3.009 -0.2872 -0.1520  0.1618
 7918TIP3    H145245   3.900   1.697   3.093  0.5728  1.7839  0.6348
 7918TIP3    H245246   3.932   1.705   2.945  0.5331  0.8823  0.5713
 7919TIP3   OH245247   5.315   3.288  16.634 -0.2746  0.7027  0.5408
 7919TIP3    H145248   5.363   3.211  16.603 -0.1232  0.0701  2.2092
 7919TIP3    H245249   5.303   3.271  16.728 -0.1112  2.7849  0.9768
 7920TIP3   OH245250   6.144   0.826   4.351 -0.2914  0.2818 -0.5055
 7920TIP3    H145251   6.100   0.751   4.391  1.3205 -1.0549 -1.1099
 7920TIP3    H245252   6.155   0.802   4.259 -0.8003  1.7939 -0.9913
 7921TIP3   OH245253   1.354   1.605   4.698  0.0779 -0.4720 -0.8230
 7921TIP3    H145254   1.276   1.580   4.749  0.7373  0.8797  0.9435
 7921TIP3    H245255   1.347   1.700   4.690 -0.0764 -0.6422 -3.4993
 7922TIP3   OH245256   2.137   4.721   0.739 -0.0328  0.2886  0.2575
 7922TIP3    H145257   2.164   4.785   0.673 -1.5320  1.0205  0.3258
 7922TIP3    H245258   2.157   4.764   0.822 -1.8283  1.0805  0.3216
 7923TIP3   OH245259   3.658   0.719   1.579  0.4138  0.9284  0.4969
 7923TIP3    H145260   3.745   0.683   1.598  0.0171 -0.8447 -0.8130
 7923TIP3    H245261   3.608   0.704   1.659  1.0717  1.1379  0.9491
 7924TIP3   OH245262   1.767   5.244   5.400  0.1455  0.0212 -0.3218
 7924TIP3    H145263   1.684   5.251   5.447 -0.0419 -0.6318 -0.5518
 7924TIP3    H245264   1.831   5.283   5.459 -0.1118 -0.6525  0.4178
 7925TIP3   OH245265   4.072   2.267   2.258  0.0783  0.0707 -0.6307
 7925TIP3    H145266   4.131   2.339   2.279  0.4267  1.3599 -5.0147
 7925TIP3    H245267   3.985   2.299   2.282  0.6855 -1.2067  4.3263
 7926TIP3   OH245268   3.871   5.373  13.865 -0.1590  0.0319 -0.0639
 7926TIP3    H145269   3.883   5.367  13.960 -1.5149 -3.4234  0.0346
 7926TIP3    H245270   3.781   5.345  13.851  0.6763 -1.8352 -2.4636
 7927TIP3   OH245271   6.477   5.529   5.054  0.0256  0.7731  0.0877
 7927TIP3    H145272   6.417   5.530   4.980  0.8879  1.6503 -0.6287
 7927TIP3    H245273   6.424   5.554   5.129 -0.7222  0.5097 -0.3449
 7928TIP3   OH245274   0.527   2.820  12.479  0.7874  0.5271  0.3917
 7928TIP3    H145275   0.547   2.857  12.393  4.0596  1.8413  1.5223
 7928TIP3    H245276   0.533   2.895  12.539 -0.6384 -0.4737  1.8589
 7929TIP3   OH245277   4.316   3.012  10.971 -0.6037 -0.0119 -0.3337
 7929TIP3    H145278   4.301   3.093  11.019 -2.8771 -0.6000  0.0953
 7929TIP3    H245279   4.409   2.994  10.982 -0.3299  1.7910  0.7352
 7930TIP3   OH245280   5.852   1.459   0.539  0.4973 -0.2810 -0.2956
 7930TIP3    H145281   5.760   1.471   0.563  0.6841 -0.4836  0.5390
 7930TIP3    H245282   5.855   1.482   0.446 -0.6557 -1.5325 -0.6766
 7931TIP3   OH245283   4.557   6.757  16.202  0.2971 -0.0283 -0.4301
 7931TIP3    H145284   4.506   6.690  16.247  0.7850 -0.3965 -0.4245
 7931TIP3    H245285   4.527   6.753  16.111  1.5112 -1.4240 -0.8092
 7932TIP3   OH245286   0.524   0.484   3.327 -0.0956  0.0542 -0.3478
 7932TIP3    H145287   0.581   0.506   3.401  1.5124 -3.7065 -0.2468
 7932TIP3    H245288   0.442   0.455   3.368  0.9174 -2.3826  0.1363
 7933TIP3   OH245289   2.669   3.327   4.671  0.4051 -0.1170  0.0040
 7933TIP3    H145290   2.609   3.390   4.711 -0.5635 -1.2960  0.4702
 7933TIP3    H245291   2.663   3.344   4.577 -0.0124  0.3397  0.1124
 7934TIP3   OH245292   5.030   2.217   1.689  0.4504  0.5843 -0.5292
 7934TIP3    H145293   4.948   2.179   1.722  0.7704 -0.1019 -0.5192
 7934TIP3    H245294   5.006   2.307   1.665 -0.8946 -0.2432 -2.6760
 7935TIP3   OH245295   0.513   6.396   4.776 -0.3324  0.3426 -0.6484
 7935TIP3    H145296   0.578   6.445   4.828 -0.8411  0.3296  0.0143
 7935TIP3    H245297   0.542   6.407   4.686  0.0195  1.1893 -0.4419
 7936TIP3   OH245298   6.689   1.242   5.921  0.6840 -0.2158  0.0437
 7936TIP3    H145299   6.686   1.333   5.950  3.6589  0.4279 -1.3297
 7936TIP3    H245300   6.653   1.192   5.994 -0.6666  1.9861  0.9856
 7937TIP3   OH245301   0.186   2.045   0.995 -0.2356  0.4935  0.0903
 7937TIP3    H145302   0.104   2.040   1.045 -0.3477  0.5240 -0.0887
 7937TIP3    H245303   0.244   1.982   1.037 -0.0178  1.1746  0.8400
 7938TIP3   OH245304   0.018   3.352  14.439 -0.2846  0.0948  0.4476
 7938TIP3    H145305   0.094   3.306  14.403 -0.4607  0.5485 -0.5463
 7938TIP3    H245306   0.014   3.325  14.530  1.8029  0.9920  0.8630
 7939TIP3   OH245307   5.369   5.352  16.034 -0.1784  0.1707 -0.7584
 7939TIP3    H145308   5.408   5.403  15.963 -1.2880 -1.4027 -2.5934
 7939TIP3    H245309   5.276   5.375  16.033 -0.3778 -0.5718 -0.4604
 7940TIP3   OH245310   1.209   4.782   2.529  0.7953 -0.3039  0.0866
 7940TIP3    H145311   1.157   4.862   2.527 -1.4449 -1.5429  2.3757
 7940TIP3    H245312   1.201   4.746   2.441  0.7086  1.2860 -0.5852
 7941TIP3   OH245313   2.945   0.411   1.032  0.6024  0.1393  0.3403
 7941TIP3    H145314   2.966   0.483   1.091  1.4306 -1.1666  1.6848
 7941TIP3    H245315   2.916   0.455   0.952  0.7933  1.9630  1.2065
 7942TIP3   OH245316   4.044   5.484  12.792  0.3254 -0.0064  0.0951
 7942TIP3    H145317   4.084   5.460  12.708 -0.4902 -0.1019 -0.2701
 7942TIP3    H245318   4.117   5.521  12.843  0.7489  0.4120 -0.7886
 7943TIP3   OH245319   1.545   6.109   5.412 -1.1225 -0.4924 -0.3790
 7943TIP3    H145320   1.493   6.100   5.332 -2.0311  2.4912 -0.2642
 7943TIP3    H245321   1.621   6.160   5.384 -0.0128 -1.8067  0.1607
 7944TIP3   OH245322   1.108   0.506   0.371 -0.0860 -0.1686 -0.5039
 7944TIP3    H145323   1.174   0.573   0.388  0.4374 -0.2924 -1.9642
 7944TIP3    H245324   1.026   0.546   0.400  0.6559 -0.2827  2.0256
 7945TIP3   OH245325   1.320   6.557   5.092 -0.0676  0.1450 -0.2049
 7945TIP3    H145326   1.327   6.578   5.185 -0.2139 -2.8105  0.5903
 7945TIP3    H245327   1.291   6.638   5.050 -1.3445  1.2073  2.5250
 7946TIP3   OH245328   2.891   3.539   0.353  0.4512  0.3093 -0.3748
 7946TIP3    H145329   2.799   3.525   0.328  0.2549  0.5815  0.1725
 7946TIP3    H245330   2.920   3.453   0.385  0.1875  0.3713  0.0520
 7947TIP3   OH245331   0.056   2.353   4.931  0.4346  0.4584 -0.2794
 7947TIP3    H145332   0.025   2.401   4.854  0.1906  0.3777 -0.2329
 7947TIP3    H245333   0.085   2.268   4.896 -0.6341  0.0214 -0.1590
 7948TIP3   OH245334   3.339   0.918   1.893 -0.0412 -0.1800 -0.2617
 7948TIP3    H145335   3.248   0.892   1.879 -0.0427 -0.4579  0.2258
 7948TIP3    H245336   3.339   1.013   1.888 -0.5504 -0.1147  0.7778
 7949TIP3   OH245337   5.650   0.371  14.316  0.1110  0.4722  0.2768
 7949TIP3    H145338   5.617   0.292  14.273 -1.4111  0.6094  1.1504
 7949TIP3    H245339   5.731   0.391  14.269  0.5012 -1.5581 -0.0053
 7950TIP3   OH245340   2.650   1.243  11.413 -0.3676  0.2756 -0.0889
 7950TIP3    H145341   2.669   1.157  11.451  0.0692  0.2621 -0.3337
 7950TIP3    H245342   2.612   1.223  11.327  1.4922  0.3393 -0.9589
 7951TIP3   OH245343   4.025   0.292   2.087 -0.2278 -0.0132  0.5411
 7951TIP3    H145344   3.971   0.325   2.159  0.9431  0.4289  1.2426
 7951TIP3    H245345   4.066   0.371   2.050  0.0999 -0.3571  0.1595
 7952TIP3   OH245346   1.449   3.781   5.472 -0.6878  0.2403 -0.4841
 7952TIP3    H145347   1.515   3.843   5.504  0.3755 -0.3326 -1.4694
 7952TIP3    H245348   1.392   3.834   5.417  0.4609  0.3047 -1.6588
 7953TIP3   OH245349   6.024   5.318   4.784  0.0799 -0.7597 -0.8684
 7953TIP3    H145350   5.939   5.320   4.741 -0.0385 -0.3955 -0.6266
 7953TIP3    H245351   6.034   5.227   4.814 -1.9774 -0.0768  2.5061
 7954TIP3   OH245352   2.440   5.274  13.653 -0.0099 -0.3272  0.1355
 7954TIP3    H145353   2.479   5.239  13.733  0.6008 -2.6806 -1.0815
 7954TIP3    H245354   2.408   5.197  13.606 -1.3433  1.0677 -1.4025
 7955TIP3   OH245355   6.654   5.903  16.650 -0.1797 -0.4704 -0.2124
 7955TIP3    H145356   6.647   5.998  16.658 -0.5883 -0.5617  0.6344
 7955TIP3    H245357   6.644   5.871  16.739  0.2874 -1.2950 -0.4429
 7956TIP3   OH245358   2.607   0.644   1.785  0.0912 -1.2613 -0.3002
 7956TIP3    H145359   2.624   0.603   1.870  1.0517  3.4177  2.0605
 7956TIP3    H245360   2.692   0.676   1.756 -0.9462  2.1635 -0.0256
 7957TIP3   OH245361   6.046   2.513   3.403  0.1593 -0.0947 -0.1279
 7957TIP3    H145362   5.998   2.595   3.398  0.8252  0.4087  1.1894
 7957TIP3    H245363   6.137   2.538   3.388  0.1848 -0.8560 -1.3955
 7958TIP3   OH245364   6.178   1.323   2.192 -0.0460  0.6154  0.5128
 7958TIP3    H145365   6.150   1.320   2.101  0.0376  0.7564  0.4815
 7958TIP3    H245366   6.208   1.234   2.211  0.2351  0.6631  0.3054
 7959TIP3   OH245367   4.851   5.400   5.549  0.3249  0.1996 -0.1663
 7959TIP3    H145368   4.898   5.322   5.579  0.7358 -0.5474 -2.5178
 7959TIP3    H245369   4.862   5.463   5.620 -0.3929 -1.9659  2.0474
 7960TIP3   OH245370   5.550   6.023   5.785  0.3699  0.0765  0.1164
 7960TIP3    H145371   5.569   5.969   5.861 -0.9343  0.8323  1.0241
 7960TIP3    H245372   5.499   6.096   5.820 -0.7926  0.1214 -1.5786
 7961TIP3   OH245373   2.991   6.731  13.863  0.1512  0.3530  0.1474
 7961TIP3    H145374   2.963   6.647  13.899  1.0633  0.0592  0.1879
 7961TIP3    H245375   2.931   6.795  13.902 -0.9438 -0.3383 -0.3550
 7962TIP3   OH245376   0.067   0.775   4.348 -0.4943 -0.0799 -0.5165
 7962TIP3    H145377   0.144   0.719   4.335  0.6030  1.1126  0.4877
 7962TIP3    H245378  -0.007   0.719   4.328  0.6091 -1.4607 -0.9420
 7963TIP3   OH245379   3.723   4.041   4.214  0.3207  0.0553 -0.3168
 7963TIP3    H145380   3.736   3.991   4.133 -1.3501 -0.4642 -0.2982
 7963TIP3    H245381   3.781   4.116   4.205  1.6043 -0.9775 -1.1255
 7964TIP3   OH245382   5.029   3.692   0.177 -0.3534 -0.4986  0.3162
 7964TIP3    H145383   5.056   3.777   0.143  0.2475 -0.7749  0.0758
 7964TIP3    H245384   5.031   3.634   0.101  1.3950 -1.2182  0.8478
 7965TIP3   OH245385   2.553   2.866   2.853 -0.0936 -0.2733  0.4434
 7965TIP3    H145386   2.638   2.875   2.809  1.7257 -1.3596  3.4709
 7965TIP3    H245387   2.548   2.773   2.876 -1.8090 -0.0909  0.9464
 7966TIP3   OH245388   6.124   1.555   4.925  0.3005 -0.2059 -0.3225
 7966TIP3    H145389   6.082   1.625   4.976 -1.8815 -1.3800 -0.3743
 7966TIP3    H245390   6.217   1.562   4.947 -0.1186  1.4700  1.1783
 7967TIP3   OH245391   4.664   4.581   2.890  0.3046  0.2832 -0.0658
 7967TIP3    H145392   4.607   4.518   2.934 -0.3481 -0.3843 -1.7824
 7967TIP3    H245393   4.736   4.595   2.951 -0.0991 -1.2789  0.8245
 7968TIP3   OH245394   2.698   0.718  14.958 -0.6395 -0.0941  0.7546
 7968TIP3    H145395   2.693   0.645  14.896 -0.4592  0.3158  0.2443
 7968TIP3    H245396   2.785   0.709  14.997 -0.0532  0.6534 -0.3404
 7969TIP3   OH245397   0.973   4.803  15.274  0.0569 -0.1006 -0.2929
 7969TIP3    H145398   0.996   4.821  15.365 -0.9639 -1.3594  0.2517
 7969TIP3    H245399   1.052   4.825  15.224  0.0488  2.3934  0.6371
 7970TIP3   OH245400   1.129   5.553  15.204  0.5959 -0.1608  0.0666
 7970TIP3    H145401   1.079   5.504  15.139  0.2422 -0.3313  0.4652
 7970TIP3    H245402   1.098   5.520  15.288  0.2011  0.8950  0.3499
 7971TIP3   OH245403   0.030   3.719   5.075 -0.0280  0.4553 -0.2230
 7971TIP3    H145404   0.025   3.803   5.028  0.7014  0.7563  0.2182
 7971TIP3    H245405  -0.017   3.658   5.019 -1.7643  1.4420  0.0858
 7972TIP3   OH245406   1.722   6.214   3.756 -0.4232 -0.4983  0.2121
 7972TIP3    H145407   1.798   6.271   3.749  1.1609 -2.2548  1.7696
 7972TIP3    H245408   1.680   6.218   3.670  0.8653  1.2464 -0.3904
 7973TIP3   OH245409   5.761   6.274  14.600  0.1599 -0.2326 -0.1105
 7973TIP3    H145410   5.806   6.357  14.587  0.5044 -0.2267  1.0380
 7973TIP3    H245411   5.740   6.243  14.511  1.4394  0.2962 -0.6084
 7974TIP3   OH245412   4.452   5.962  13.812 -0.1506  0.7480  0.2418
 7974TIP3    H145413   4.408   5.882  13.839  0.5815  0.0437 -0.5907
 7974TIP3    H245414   4.523   5.933  13.755 -1.0939  2.0748 -1.7402
 7975TIP3   OH245415   6.754   2.573   5.167 -0.3265  0.5926  0.5785
 7975TIP3    H145416   6.687   2.511   5.197  0.8499 -0.9936  0.0340
 7975TIP3    H245417   6.706   2.639   5.117 -1.6394  0.2728  1.3852
 7976TIP3   OH245418   6.546   6.531   1.021  0.1154  0.0739  0.3710
 7976TIP3    H145419   6.473   6.525   1.083 -1.0580  1.6374 -0.7761
 7976TIP3    H245420   6.553   6.624   1.001  1.7873 -0.1749 -0.3192
 7977TIP3   OH245421   5.389   1.764  11.833 -0.0462  0.0838 -0.2217
 7977TIP3    H145422   5.324   1.710  11.788  1.3227 -2.2909  0.4564
 7977TIP3    H245423   5.373   1.747  11.926 -0.3310  1.8499  0.0915
 7978TIP3   OH245424   3.388   4.138   2.229  0.3079 -0.0157 -0.0448
 7978TIP3    H145425   3.379   4.125   2.324 -1.9056 -1.0264 -0.3238
 7978TIP3    H245426   3.467   4.091   2.206 -0.8945 -2.6737  0.8808
 7979TIP3   OH245427   0.912   3.094   0.267 -0.9204  0.1417 -0.2822
 7979TIP3    H145428   0.950   3.025   0.214 -3.0321 -0.2627 -1.3365
 7979TIP3    H245429   0.880   3.050   0.346  1.2355  0.5799  0.9197
 7980TIP3   OH245430   0.458   0.824  12.499 -0.4346 -0.0225  0.3215
 7980TIP3    H145431   0.418   0.839  12.413  1.9211 -0.4285 -0.9457
 7980TIP3    H245432   0.395   0.768  12.545 -1.0397 -1.2264 -1.7999
 7981TIP3   OH245433   2.654   4.601   6.237 -0.2131  0.0949  0.8044
 7981TIP3    H145434   2.637   4.653   6.315  0.9575 -1.4540  2.1601
 7981TIP3    H245435   2.733   4.550   6.258  1.3663  1.0827 -2.1527
 7982TIP3   OH245436   0.357   1.802  15.003 -0.0665  0.7512  0.8539
 7982TIP3    H145437   0.363   1.895  14.981 -1.8467  0.5330 -0.8624
 7982TIP3    H245438   0.429   1.761  14.955  0.3199  1.1358  1.0934
 7983TIP3   OH245439   5.705   0.638  17.046  0.2223  0.0725  0.2377
 7983TIP3    H145440   5.737   0.622  16.957  0.2385 -1.2888  0.4624
 7983TIP3    H245441   5.672   0.727  17.044  1.3346  0.4847 -0.8041
 7984TIP3   OH245442   1.762   0.952   4.799 -0.4443 -0.5009  0.0978
 7984TIP3    H145443   1.810   0.872   4.778 -0.9320 -0.4087 -1.5143
 7984TIP3    H245444   1.804   1.020   4.746 -1.1234 -0.0371  0.1425
 7985TIP3   OH245445   0.889   4.458  13.557  0.0320 -0.3245  0.7599
 7985TIP3    H145446   0.838   4.425  13.631 -1.1385 -0.1325  0.0674
 7985TIP3    H245447   0.940   4.530  13.594 -0.7376 -0.0548  1.3434
 7986TIP3   OH245448   1.551   3.257  15.826 -0.1658  0.1386  0.6174
 7986TIP3    H145449   1.557   3.344  15.787 -2.1082 -0.3308 -0.8662
 7986TIP3    H245450   1.554   3.273  15.920  2.0994  1.5362  0.3821
 7987TIP3   OH245451   5.157   1.485  10.956 -0.4466 -0.1491  0.4023
 7987TIP3    H145452   5.122   1.570  10.930  0.1459 -0.0380 -0.0713
 7987TIP3    H245453   5.252   1.499  10.958 -0.3130 -0.9252 -0.1676
 7988TIP3   OH245454   4.374   3.383  11.350 -0.2882 -0.3618 -0.0876
 7988TIP3    H145455   4.417   3.328  11.415 -0.3325 -0.7667 -0.4018
 7988TIP3    H245456   4.445   3.420  11.298 -0.1211  1.2965  1.2149
 7989TIP3   OH245457   1.639   1.459   1.713 -0.5933 -0.1298  0.0143
 7989TIP3    H145458   1.638   1.528   1.647 -1.1968 -0.3762 -0.2409
 7989TIP3    H245459   1.570   1.398   1.685 -2.2044  0.7383  1.9155
 7990TIP3   OH245460   3.006   1.355   1.741  0.2567 -0.1323  0.2020
 7990TIP3    H145461   2.926   1.359   1.689  0.4826 -0.2912 -0.1635
 7990TIP3    H245462   3.045   1.442   1.733  0.9696 -0.5297 -1.0000
 7991TIP3   OH245463   0.001   5.881   2.729 -0.1159  0.1515  0.2034
 7991TIP3    H145464  -0.038   5.943   2.668  1.2177 -0.0436 -0.8718
 7991TIP3    H245465   0.094   5.879   2.707  0.1242 -1.1465  1.1727
 7992TIP3   OH245466   3.265   3.780   0.318  0.2720 -0.2504 -0.3271
 7992TIP3    H145467   3.210   3.844   0.364  0.4013 -0.4715  0.1336
 7992TIP3    H245468   3.323   3.745   0.385  1.4625  0.4709 -0.9261
 7993TIP3   OH245469   5.944   4.941   4.100  0.0531 -0.0072 -0.5680
 7993TIP3    H145470   5.868   4.944   4.042  0.4187 -0.5330 -1.0804
 7993TIP3    H245471   5.956   4.848   4.120 -0.9295  0.2538  1.5264
 7994TIP3   OH245472   2.214   3.530   5.467  0.5760 -0.2126  0.3673
 7994TIP3    H145473   2.185   3.439   5.478  1.2209 -0.3866  0.6755
 7994TIP3    H245474   2.295   3.522   5.416 -0.1152  0.2906 -0.8555
 7995TIP3   OH245475   2.686   2.928   3.985 -0.2736 -0.0144 -0.0182
 7995TIP3    H145476   2.741   3.000   3.955 -0.9926  1.7600  2.6131
 7995TIP3    H245477   2.617   2.921   3.919  0.9599  0.2288 -1.3907
 7996TIP3   OH245478   4.415   2.934   6.701 -0.3996  0.4363 -0.4319
 7996TIP3    H145479   4.373   2.916   6.785 -1.5023 -0.6469 -1.1778
 7996TIP3    H245480   4.391   3.025   6.681 -0.4654  0.5681  0.2208
 7997TIP3   OH245481   2.014   3.320  16.845  0.1072 -0.0337  0.4924
 7997TIP3    H145482   2.001   3.405  16.888 -1.5230 -0.4022  0.7912
 7997TIP3    H245483   1.962   3.325  16.765 -0.3223 -0.8760  0.7049
 7998TIP3   OH245484   2.161   3.577  13.086  0.1757 -0.4256 -0.1291
 7998TIP3    H145485   2.109   3.586  13.006 -0.1895 -1.2631  0.0060
 7998TIP3    H245486   2.117   3.633  13.150 -0.9579 -1.6205  0.1699
 7999TIP3   OH245487   5.887   6.179   6.852  0.5714 -0.2960  0.2565
 7999TIP3    H145488   5.884   6.124   6.930  1.3349 -0.2304  0.3413
 7999TIP3    H245489   5.887   6.269   6.885 -0.4106 -0.2417  0.1283
 8000TIP3   OH245490   4.928   2.745  15.525  1.1646 -0.1907  0.3598
 8000TIP3    H145491   5.021   2.766  15.522  1.0898  0.2331  1.0116
 8000TIP3    H245492   4.918   2.691  15.603  1.0693 -1.3198 -0.4008
 8001TIP3   OH245493   2.714   0.559  15.343 -0.0686  0.5791 -0.0548
 8001TIP3    H145494   2.663   0.543  15.423 -0.7203 -0.4786 -0.6683
 8001TIP3    H245495   2.649   0.581  15.277  0.4521  1.2453 -0.3611
 8002TIP3   OH245496   6.574   5.000   4.489 -0.1847 -0.9325  0.4954
 8002TIP3    H145497   6.541   4.977   4.402  1.3198  3.6812 -1.6378
 8002TIP3    H245498   6.658   4.956   4.496 -0.9161 -2.4258  0.3102
 8003TIP3   OH245499   4.250   1.872  14.690 -0.4901 -0.5247 -0.2664
 8003TIP3    H145500   4.301   1.825  14.755 -1.5709  0.3098  1.2591
 8003TIP3    H245501   4.210   1.804  14.635 -1.1554 -1.3698  1.2070
 8004TIP3   OH245502   6.237   3.386  13.728 -0.2690  0.6989  0.2422
 8004TIP3    H145503   6.212   3.459  13.672 -0.5199  0.5019  0.0899
 8004TIP3    H245504   6.305   3.420  13.785 -0.9819  1.2939  0.7571
 8005TIP3   OH245505   4.732   5.104   4.601 -0.0927 -0.3290  0.2210
 8005TIP3    H145506   4.753   5.184   4.553  1.7433 -1.1325 -0.4466
 8005TIP3    H245507   4.782   5.036   4.555 -1.0382 -1.7367  1.1986
 8006TIP3   OH245508   3.816   2.417  13.273  0.1100 -0.3053  0.0852
 8006TIP3    H145509   3.748   2.352  13.292  1.6227 -1.4099  2.1119
 8006TIP3    H245510   3.776   2.501  13.298 -1.0008 -0.7388 -0.1672
 8007TIP3   OH245511   1.365   6.580  15.891  0.5210  0.0696  0.2731
 8007TIP3    H145512   1.336   6.543  15.974 -1.6771 -1.4428 -1.0474
 8007TIP3    H245513   1.339   6.672  15.895 -2.3564 -0.6563  0.1835
 8008TIP3   OH245514   2.585   2.542  13.675  0.4483 -0.0179 -0.5910
 8008TIP3    H145515   2.623   2.513  13.592 -0.6497 -1.1807 -0.7321
 8008TIP3    H245516   2.654   2.528  13.739  0.7044 -0.8432 -1.0314
 8009TIP3   OH245517   3.839   1.053   5.539  0.0222  0.0376  0.2211
 8009TIP3    H145518   3.923   1.092   5.515 -0.5125  1.9293  1.2345
 8009TIP3    H245519   3.821   0.991   5.469  2.6314 -1.0604  0.3887
 8010TIP3   OH245520   1.971   2.982  15.350  0.4651 -0.1280 -0.4793
 8010TIP3    H145521   2.046   2.929  15.323  0.0912 -0.4721 -0.8489
 8010TIP3    H245522   1.978   2.987  15.445 -0.4777 -2.3237 -0.2406
 8011TIP3   OH245523   0.665   3.355  11.768  0.0333  0.1859  0.5600
 8011TIP3    H145524   0.643   3.404  11.689  0.6711  1.2794  1.0439
 8011TIP3    H245525   0.688   3.268  11.736  2.3827  1.1833 -0.7254
 8012TIP3   OH245526   2.221   1.103   3.320  0.6397  0.0020  0.3952
 8012TIP3    H145527   2.298   1.144   3.282  1.2132 -0.6070  0.8681
 8012TIP3    H245528   2.148   1.138   3.271  1.3037 -0.2516 -0.8098
 8013TIP3   OH245529   6.017   1.900   1.370 -0.0434 -0.2913 -0.0673
 8013TIP3    H145530   5.931   1.860   1.382 -1.4719  1.5160 -3.1514
 8013TIP3    H245531   6.078   1.830   1.392 -2.3442 -2.8104 -1.0337
 8014TIP3   OH245532   0.469   3.007   4.774 -0.3681 -0.2240  0.1997
 8014TIP3    H145533   0.482   2.916   4.751 -0.7823 -0.2340 -0.0023
 8014TIP3    H245534   0.386   3.031   4.733  0.1587  0.4921 -0.5025
 8015TIP3   OH245535   6.262   0.792  16.203  0.5672  0.0751  0.1310
 8015TIP3    H145536   6.313   0.830  16.133 -0.9233  0.3115 -0.8734
 8015TIP3    H245537   6.257   0.699  16.182  3.6573 -0.7308  2.2386
 8016TIP3   OH245538   4.780   4.167  13.122  0.2833  0.0544 -0.1682
 8016TIP3    H145539   4.782   4.073  13.101  0.9085  0.1864 -0.7556
 8016TIP3    H245540   4.784   4.210  13.037 -0.1221  0.6175  0.0973
 8017TIP3   OH245541   5.622   2.666   3.279 -0.3844 -0.6662 -0.3141
 8017TIP3    H145542   5.614   2.571   3.278 -1.4667 -0.5858  0.0229
 8017TIP3    H245543   5.587   2.694   3.195  0.8487 -0.6167 -0.8295
 8018TIP3   OH245544   4.400   2.374   2.128 -0.4662 -0.3538  0.4825
 8018TIP3    H145545   4.421   2.303   2.067 -2.8982 -0.9826  0.2833
 8018TIP3    H245546   4.481   2.424   2.135  0.4150 -1.3113 -1.8488
 8019TIP3   OH245547   2.466   6.761   5.664 -0.4257 -0.4708 -0.2608
 8019TIP3    H145548   2.508   6.846   5.673 -0.1376 -0.6336 -0.0385
 8019TIP3    H245549   2.496   6.711   5.740 -1.4323 -0.4246  0.1881
 8020TIP3   OH245550   4.269   2.805  13.819  0.3071 -0.2857 -0.3621
 8020TIP3    H145551   4.355   2.844  13.802  1.0373 -0.3261  2.6398
 8020TIP3    H245552   4.217   2.876  13.856  0.2055 -1.0555  1.0382
 8021TIP3   OH245553   6.163   5.850  13.346 -0.3751 -0.0865 -0.8898
 8021TIP3    H145554   6.225   5.922  13.341  1.3724 -1.5048 -0.4683
 8021TIP3    H245555   6.172   5.805  13.262 -0.5324 -0.5502 -0.6598
 8022TIP3   OH245556   1.232   1.495   4.184  0.1174 -0.4254 -0.1108
 8022TIP3    H145557   1.273   1.579   4.208  0.6212 -0.0606 -2.0712
 8022TIP3    H245558   1.140   1.507   4.205  0.5544 -0.2801  1.8877
 8023TIP3   OH245559   2.719   3.053  13.541  0.3739  0.4795 -0.2511
 8023TIP3    H145560   2.716   3.030  13.633 -0.9593  1.6287  0.0283
 8023TIP3    H245561   2.658   2.992  13.499 -1.5426  2.0099  0.1700
 8024TIP3   OH245562   1.803   4.119  16.074 -0.0781  0.0640 -0.2501
 8024TIP3    H145563   1.871   4.170  16.030  0.5563  0.7911  1.4891
 8024TIP3    H245564   1.779   4.171  16.150 -1.4915 -0.9161  0.0221
 8025TIP3   OH245565   1.778   1.855  11.461 -0.2499  0.2492  0.0325
 8025TIP3    H145566   1.687   1.848  11.431 -0.8833  1.9257  1.3481
 8025TIP3    H245567   1.771   1.858  11.557  0.9171  2.8829  0.1264
 8026TIP3   OH245568   2.330   1.026   3.017  0.5654 -0.0301 -0.3696
 8026TIP3    H145569   2.384   1.100   3.043  0.4473  0.0280 -0.2856
 8026TIP3    H245570   2.243   1.063   3.005  0.5954 -0.0778 -0.7446
 8027TIP3   OH245571   0.933   1.790  15.032 -0.2925 -0.2665 -0.2265
 8027TIP3    H145572   0.845   1.812  15.001 -0.6641 -0.5323  0.6018
 8027TIP3    H245573   0.943   1.840  15.113 -0.5157 -1.8325  0.8128
 8028TIP3   OH245574   1.018   2.796  17.280 -0.5761 -0.2662 -0.4507
 8028TIP3    H145575   1.005   2.887  17.307  0.8790 -0.3847  0.7865
 8028TIP3    H245576   1.003   2.797  17.186 -2.3037  0.8934 -0.2164
 8029TIP3   OH245577   1.419   4.515  11.857  0.1774 -0.3502  0.4353
 8029TIP3    H145578   1.331   4.553  11.847  0.0874 -0.2558  1.4362
 8029TIP3    H245579   1.474   4.590  11.878  0.8224 -0.1669 -1.6784
 8030TIP3   OH245580   3.958   6.678  16.214 -0.1972 -0.0873 -0.0067
 8030TIP3    H145581   3.864   6.675  16.231  0.0839 -1.5295  1.4674
 8030TIP3    H245582   3.996   6.614  16.274  1.6716 -0.0236 -1.0462
 8031TIP3   OH245583   1.541   4.974  12.686 -0.0274 -0.8876  0.1379
 8031TIP3    H145584   1.601   4.906  12.658  0.0411 -1.4463  1.5388
 8031TIP3    H245585   1.458   4.928  12.703 -0.7654 -0.1860 -1.4225
 8032TIP3   OH245586   0.296   0.862  11.734  0.5867 -0.3075 -0.0646
 8032TIP3    H145587   0.266   0.814  11.811  0.1638 -0.6278 -0.4240
 8032TIP3    H245588   0.378   0.902  11.762 -0.1240  0.5121  0.9000
 8033TIP3   OH245589   6.236   6.371  15.671 -0.1429  0.1737 -0.3323
 8033TIP3    H145590   6.264   6.334  15.587 -0.2214  1.1306 -0.7890
 8033TIP3    H245591   6.306   6.432  15.695 -0.3770  0.3002  0.0339
 8034TIP3   OH245592   4.095   5.762  16.386  0.1263  0.2302 -0.3611
 8034TIP3    H145593   4.127   5.704  16.455 -0.0304  0.6921  0.1125
 8034TIP3    H245594   4.174   5.790  16.340  0.0988 -1.5799 -1.6244
 8035TIP3   OH245595   2.413   3.633  13.224  0.4074  0.4213 -0.2175
 8035TIP3    H145596   2.456   3.601  13.145  0.4165 -3.1681  1.0651
 8035TIP3    H245597   2.323   3.601  13.216  0.1859  0.7519  0.8137
 8036TIP3   OH245598   6.262   3.834  16.692  0.4182 -0.3047  0.0684
 8036TIP3    H145599   6.344   3.849  16.738  0.8605 -0.1277 -0.7526
 8036TIP3    H245600   6.265   3.894  16.617 -0.2070 -0.6955 -0.2854
 8037TIP3   OH245601   1.147   4.858  11.535 -0.5728  0.3556 -0.5682
 8037TIP3    H145602   1.091   4.934  11.527 -1.2459 -0.1789 -1.0516
 8037TIP3    H245603   1.233   4.888  11.504 -0.8098  0.9393 -0.6654
 8038TIP3   OH245604   4.716   6.674   5.561  0.3619 -0.4593  0.3761
 8038TIP3    H145605   4.781   6.726   5.608  1.3446 -1.3705  0.0697
 8038TIP3    H245606   4.745   6.583   5.574  0.0351 -0.7863 -1.0648
 8039TIP3   OH245607   1.019   5.902   2.170  0.2198  0.2314  0.3819
 8039TIP3    H145608   0.966   5.903   2.250 -1.5617  1.3338 -0.7322
 8039TIP3    H245609   0.966   5.950   2.106  1.9209  0.0338 -1.2580
 8040TIP3   OH245610   6.327   3.850  10.994  0.2043 -0.1625  1.1134
 8040TIP3    H145611   6.310   3.798  10.916 -1.2490  1.5289  0.2356
 8040TIP3    H245612   6.415   3.885  10.980 -0.9845  2.2892 -1.1828
 8041TIP3   OH245613   4.507   3.311  14.850  0.3677  0.3116 -0.2027
 8041TIP3    H145614   4.423   3.339  14.885  0.0430 -0.9310  0.0871
 8041TIP3    H245615   4.545   3.257  14.920  0.5328 -0.7029 -1.0377
 8042TIP3   OH245616   0.039   4.140   3.297 -0.0739  0.3332  0.7884
 8042TIP3    H145617   0.084   4.169   3.376  0.4919 -0.6222  0.8305
 8042TIP3    H245618  -0.042   4.101   3.328 -0.7482  1.6161  0.7444
 8043TIP3   OH245619   5.331   1.584  12.845  0.0693  0.1669 -0.1893
 8043TIP3    H145620   5.374   1.524  12.784  0.7095  1.0506 -0.6164
 8043TIP3    H245621   5.317   1.664  12.796  1.0365  1.0698  0.9323
 8044TIP3   OH245622   1.857   4.731  17.279 -0.0699  0.2693 -0.3818
 8044TIP3    H145623   1.795   4.670  17.240 -0.9461  0.9634 -0.1179
 8044TIP3    H245624   1.925   4.743  17.213 -0.5045 -0.0877 -0.8981
 8045TIP3   OH245625   4.484   4.425   6.031  0.5375 -0.4186  0.3489
 8045TIP3    H145626   4.479   4.476   6.112 -0.7269 -0.1365  0.1165
 8045TIP3    H245627   4.394   4.401   6.013  0.6005  0.6906 -1.7134
 8046TIP3   OH245628   5.376   4.629   2.487  0.1798  0.4904  0.1608
 8046TIP3    H145629   5.420   4.711   2.462 -1.1113  0.4678 -2.5358
 8046TIP3    H245630   5.286   4.640   2.456 -0.0957 -1.8419 -0.0062
 8047TIP3   OH245631   3.034   5.085  14.732 -0.6711  0.6296  0.1378
 8047TIP3    H145632   3.083   5.016  14.687  1.0697  1.2262  1.0257
 8047TIP3    H245633   3.003   5.142  14.662 -0.9783 -0.3074 -0.5118
 8048TIP3   OH245634   3.763   6.300  15.952 -0.0367 -0.7286 -0.7575
 8048TIP3    H145635   3.734   6.375  15.899 -0.9310 -0.8684 -0.4788
 8048TIP3    H245636   3.810   6.244  15.891 -0.1799 -0.3955 -1.1784
 8049TIP3   OH245637   6.794   0.215  15.757 -0.4526  0.0904  0.1025
 8049TIP3    H145638   6.744   0.296  15.752 -0.7847 -0.0754  0.6132
 8049TIP3    H245639   6.875   0.233  15.709 -1.0442  0.3262 -0.8296
 8050TIP3   OH245640   1.923   2.524   1.097  0.2421  0.3251  0.1044
 8050TIP3    H145641   1.849   2.555   1.150  0.9337  0.8308  0.8063
 8050TIP3    H245642   1.993   2.587   1.115  0.9277 -0.2987 -0.3347
 8051TIP3   OH245643   0.973   4.178  14.449  0.6068 -0.2140 -0.7208
 8051TIP3    H145644   0.955   4.109  14.385 -0.1946 -0.0765 -0.6455
 8051TIP3    H245645   0.894   4.232  14.450  0.9568  0.3002 -0.2633
 8052TIP3   OH245646   0.602   5.044   4.958  0.1860 -0.4781 -0.0931
 8052TIP3    H145647   0.573   5.131   4.983  1.6544 -0.1363  0.5732
 8052TIP3    H245648   0.680   5.059   4.904  0.0433 -1.3553 -0.5613
 8053TIP3   OH245649   3.181   5.333   4.860 -0.5060 -0.1204 -0.1789
 8053TIP3    H145650   3.258   5.372   4.902 -1.1467  0.7429  0.2234
 8053TIP3    H245651   3.155   5.396   4.794 -1.5093  0.1205  0.4242
 8054TIP3   OH245652   2.675   5.780   3.987 -0.1076 -0.3069 -0.5350
 8054TIP3    H145653   2.640   5.867   4.006 -1.1446 -0.4269 -1.7381
 8054TIP3    H245654   2.691   5.781   3.893 -0.6345 -1.5850 -0.6588
 8055TIP3   OH245655   3.478   2.197   2.963  0.2386  0.7091  0.1627
 8055TIP3    H145656   3.468   2.261   2.893 -0.1608  0.2707 -0.1844
 8055TIP3    H245657   3.474   2.112   2.919 -0.0216  0.4305  0.7172
 8056TIP3   OH245658   1.510   6.739  13.472  0.1413 -0.2965  0.2468
 8056TIP3    H145659   1.474   6.744  13.383  0.2097 -1.4790  0.1397
 8056TIP3    H245660   1.445   6.690  13.522  1.2049 -1.7763  0.2377
 8057TIP3   OH245661   2.013   0.756  12.501  0.2688  0.8394  0.3733
 8057TIP3    H145662   2.033   0.782  12.591 -0.8858  1.1852  0.5481
 8057TIP3    H245663   1.991   0.838  12.457 -0.3456  0.5358  0.1006
 8058TIP3   OH245664   5.758   0.902  11.780 -0.1722 -0.2004 -0.2380
 8058TIP3    H145665   5.729   0.825  11.733 -0.2837 -0.4126  0.1746
 8058TIP3    H245666   5.752   0.878  11.873 -1.2166  0.6537 -0.0634
 8059TIP3   OH245667   4.338   3.167   2.593 -0.2881 -0.1621  0.0201
 8059TIP3    H145668   4.260   3.112   2.597  0.8428 -1.7746  1.0318
 8059TIP3    H245669   4.386   3.135   2.516 -0.1991  0.2374 -0.0924
 8060TIP3   OH245670   1.283   2.518  14.166  0.2036  0.3623 -0.4481
 8060TIP3    H145671   1.348   2.579  14.201 -0.6889  1.3092 -0.3657
 8060TIP3    H245672   1.315   2.493  14.080  0.0934  1.7740 -0.9155
 8061TIP3   OH245673   4.113   0.618   0.002 -0.1120 -0.3676 -0.5476
 8061TIP3    H145674   4.118   0.608   0.097 -0.4982 -0.0670 -0.4965
 8061TIP3    H245675   4.123   0.529  -0.032 -3.3304 -0.9880 -0.1052
 8062TIP3   OH245676   3.509   2.047  16.251  0.3534 -0.1163 -0.4237
 8062TIP3    H145677   3.441   2.114  16.252 -1.2404 -1.6769 -0.0724
 8062TIP3    H245678   3.565   2.067  16.326 -1.8195 -0.8214  1.4740
 8063TIP3   OH245679   1.543   2.311  12.533 -0.1958 -0.2580 -0.0003
 8063TIP3    H145680   1.543   2.359  12.616  2.1106  2.1101 -1.2408
 8063TIP3    H245681   1.548   2.219  12.560 -0.1744  0.3759  2.4711
 8064TIP3   OH245682   3.989   1.844  12.645 -0.0043  0.0295 -0.4820
 8064TIP3    H145683   4.074   1.859  12.603  0.3756  0.2824  0.3596
 8064TIP3    H245684   3.995   1.891  12.728 -1.0792  0.2843 -0.5371
 8065TIP3   OH245685   5.640   0.403   5.395 -0.6719 -0.4233  0.1837
 8065TIP3    H145686   5.726   0.434   5.424 -0.9679  1.5150 -0.8651
 8065TIP3    H245687   5.656   0.314   5.364  1.5948  0.8111 -2.5947
 8066TIP3   OH245688   3.053   2.873  16.103 -1.0317  0.3761  0.0882
 8066TIP3    H145689   2.979   2.834  16.150 -0.5307 -1.2911 -0.4296
 8066TIP3    H245690   3.014   2.919  16.029 -1.4985 -2.6598 -1.7042
 8067TIP3   OH245691   6.086   1.804  17.132 -0.1138  0.4221 -0.3949
 8067TIP3    H145692   6.102   1.818  17.225  0.7827 -0.3876 -0.4160
 8067TIP3    H245693   6.170   1.822  17.090 -0.1881 -0.4044 -0.9130
 8068TIP3   OH245694   0.774   4.160   3.215 -0.7134 -0.1359  0.1583
 8068TIP3    H145695   0.842   4.161   3.282  1.7187 -2.2993 -2.0591
 8068TIP3    H245696   0.793   4.237   3.161 -1.8184  0.8158  1.0619
 8069TIP3   OH245697   6.760   4.838  16.044  0.4787  0.1373 -0.3815
 8069TIP3    H145698   6.746   4.809  15.954 -0.9870 -0.9268  0.1412
 8069TIP3    H245699   6.691   4.904  16.058  1.1039  0.7667 -0.2259
 8070TIP3   OH245700   6.388   2.249  14.312  0.2856  0.3055 -0.9324
 8070TIP3    H145701   6.371   2.159  14.285  3.0143  0.5683 -4.0713
 8070TIP3    H245702   6.312   2.298  14.281 -0.2748 -0.6032 -1.0382
 8071TIP3   OH245703   4.924   5.173   5.681 -0.1540 -0.1358 -0.6079
 8071TIP3    H145704   5.003   5.145   5.635 -1.6266 -4.0305 -1.1939
 8071TIP3    H245705   4.946   5.165   5.774  0.8208  1.2456 -0.6894
 8072TIP3   OH245706   2.286   6.692  13.540  0.1031 -0.4697 -0.4177
 8072TIP3    H145707   2.227   6.654  13.605  1.0777 -0.4651  0.4766
 8072TIP3    H245708   2.260   6.651  13.458 -0.4837 -1.2150  0.1275
 8073TIP3   OH245709   5.049   3.090   5.761 -0.4693 -0.0514 -1.0822
 8073TIP3    H145710   4.990   3.074   5.834  0.5769  1.2808  0.0982
 8073TIP3    H245711   5.014   3.036   5.690 -2.7470  0.2526 -0.2630
 8074TIP3   OH245712   3.858   0.249   3.142 -0.0898 -0.0474  0.3572
 8074TIP3    H145713   3.918   0.323   3.133  0.7985 -0.7538  0.4254
 8074TIP3    H245714   3.771   0.289   3.141  0.3899  1.0503  0.9193
 8075TIP3   OH245715   5.810   0.266  11.129  0.0533  0.8112 -0.3622
 8075TIP3    H145716   5.868   0.342  11.129 -0.2258  1.0751 -2.1308
 8075TIP3    H245717   5.856   0.201  11.076  0.8317 -0.7693  2.0596
 8076TIP3   OH245718   6.306   1.247  10.402  0.6539  0.0434  0.4061
 8076TIP3    H145719   6.333   1.334  10.430  2.8419 -0.9871  1.8370
 8076TIP3    H245720   6.340   1.238  10.313 -1.1951  1.2364 -0.4885
 8077TIP3   OH245721   1.567   0.131  15.132 -0.0278 -0.2716  0.5288
 8077TIP3    H145722   1.472   0.137  15.142 -0.1396 -1.8705  0.7208
 8077TIP3    H245723   1.597   0.221  15.138 -1.6909  0.4928 -1.4181
 8078TIP3   OH245724   2.511   6.664  12.825  0.3302 -0.4259 -0.0507
 8078TIP3    H145725   2.561   6.594  12.868  0.8987 -0.4970 -0.7915
 8078TIP3    H245726   2.550   6.745  12.858  1.6514 -0.4806 -1.3790
 8079TIP3   OH245727   6.677   6.658  14.327 -0.3291 -0.5456  0.3342
 8079TIP3    H145728   6.615   6.729  14.348 -0.3630  0.1172 -1.7106
 8079TIP3    H245729   6.763   6.700  14.331 -0.3297 -0.4174 -0.5887
 8080TIP3   OH245730   6.233   3.921   5.938  0.1034  0.7264 -0.1383
 8080TIP3    H145731   6.261   4.002   5.982  0.0918  0.8925 -0.4321
 8080TIP3    H245732   6.314   3.883   5.904  0.3046 -0.1443  1.2367
 8081TIP3   OH245733   6.353   4.280   0.741  0.0210 -0.5544  0.3908
 8081TIP3    H145734   6.310   4.217   0.798 -1.2460  1.7030  2.0905
 8081TIP3    H245735   6.408   4.227   0.683 -1.2611 -3.1919  1.4446
 8082TIP3   OH245736   0.957   0.394   2.568  0.3132 -0.0479 -0.2498
 8082TIP3    H145737   0.995   0.433   2.648  0.3402  1.6193 -1.0292
 8082TIP3    H245738   1.030   0.393   2.506 -0.3497  1.2239 -1.0920
 8083TIP3   OH245739   0.453   2.680   4.024  0.0237 -0.2829  0.1701
 8083TIP3    H145740   0.397   2.715   3.954  1.4404  0.2983 -0.7156
 8083TIP3    H245741   0.405   2.604   4.057 -2.1596  1.2028  0.7064
 8084TIP3   OH245742   2.410   2.903  12.719 -0.1433  0.5091 -0.2523
 8084TIP3    H145743   2.421   2.858  12.803  0.1900 -1.4895 -1.2963
 8084TIP3    H245744   2.497   2.936  12.698 -0.4716  2.0379  0.7085
 8085TIP3   OH245745   4.506   3.252  14.131  0.0845  0.2565 -0.2850
 8085TIP3    H145746   4.494   3.234  14.224  0.1508 -0.3495 -0.3879
 8085TIP3    H245747   4.455   3.184  14.087  0.7834 -0.0077 -0.6999
 8086TIP3   OH245748   2.544   2.647  14.974  0.0207 -0.5733 -0.0627
 8086TIP3    H145749   2.554   2.742  14.973  0.3797 -0.6098 -1.3267
 8086TIP3    H245750   2.624   2.614  15.014  0.2002 -0.3779 -0.2665
 8087TIP3   OH245751   6.346   5.119  14.787 -0.2111 -0.2267  0.5489
 8087TIP3    H145752   6.365   5.212  14.792  0.9547 -0.3828 -0.3085
 8087TIP3    H245753   6.261   5.108  14.828 -0.3281  1.2043  0.7086
 8088TIP3   OH245754   1.832   1.907  16.302  0.2196  0.9638  0.1824
 8088TIP3    H145755   1.816   1.819  16.268 -0.9053  1.4783 -0.6934
 8088TIP3    H245756   1.924   1.907  16.329  0.6671  0.0104 -1.2726
 8089TIP3   OH245757   1.283   0.737   5.555 -0.2193 -0.2399  0.0330
 8089TIP3    H145758   1.368   0.707   5.586 -0.4037 -0.3297  0.4625
 8089TIP3    H245759   1.262   0.679   5.482  1.8075  2.1399 -2.6479
 8090TIP3   OH245760   3.374   0.529   2.232 -0.3496  0.1669 -0.6935
 8090TIP3    H145761   3.382   0.616   2.193 -1.3008  0.1893 -0.8515
 8090TIP3    H245762   3.323   0.478   2.168  0.9570 -0.7791 -1.0321
 8091TIP3   OH245763   5.496   2.584   2.768 -0.1568  0.0079 -0.4498
 8091TIP3    H145764   5.544   2.560   2.689 -0.9367 -2.0284 -0.3780
 8091TIP3    H245765   5.510   2.510   2.828  0.3905  1.4828  1.3338
 8092TIP3   OH245766   0.807   4.152   4.767 -0.6517 -0.8482  0.5279
 8092TIP3    H145767   0.781   4.240   4.792  0.4226 -0.3851  0.0672
 8092TIP3    H245768   0.731   4.117   4.721 -0.8225  0.1016  0.0715
 8093TIP3   OH245769   1.798   4.141   3.569 -0.2691 -0.0613 -0.2606
 8093TIP3    H145770   1.834   4.131   3.658 -0.3832 -1.3530 -0.3405
 8093TIP3    H245771   1.874   4.130   3.512 -0.3681 -0.2553 -0.3546
 8094TIP3   OH245772   3.629   4.467  11.637 -0.8318  0.5188 -0.3057
 8094TIP3    H145773   3.615   4.537  11.574 -2.6705  1.2727  0.8450
 8094TIP3    H245774   3.695   4.411  11.597 -0.5484  1.9851 -2.0110
 8095TIP3   OH245775   1.130   3.693   5.357  0.1181 -0.0308 -0.1682
 8095TIP3    H145776   1.054   3.740   5.324  1.6025  2.3503 -0.4270
 8095TIP3    H245777   1.194   3.696   5.285  1.9807  1.8406  1.4100
 8096TIP3   OH245778   3.835   4.624   0.033  0.3173  0.4747  0.3071
 8096TIP3    H145779   3.817   4.664  -0.052  1.3742  0.9668  0.3089
 8096TIP3    H245780   3.814   4.532   0.021 -0.9365  0.7890 -0.0608
 8097TIP3   OH245781   1.649   0.113   1.579 -0.1119  0.4677 -0.0817
 8097TIP3    H145782   1.685   0.025   1.575  3.0002  1.4621  2.0799
 8097TIP3    H245783   1.683   0.156   1.500  1.2819  0.6287  0.5793
 8098TIP3   OH245784   1.298   0.781   5.134 -0.8793 -0.1904 -0.4143
 8098TIP3    H145785   1.256   0.838   5.070  1.8114  0.8184 -1.3896
 8098TIP3    H245786   1.387   0.814   5.143 -0.6018 -1.3950  2.5685
 8099TIP3   OH245787   0.405   2.672   0.089  0.4476 -0.1366 -0.1831
 8099TIP3    H145788   0.454   2.651   0.168  1.7478  0.8698 -0.6992
 8099TIP3    H245789   0.348   2.745   0.114 -0.2288 -0.7736  0.1922
 8100TIP3   OH245790   5.403   2.473   3.161  0.1951 -0.2563  0.3114
 8100TIP3    H145791   5.368   2.395   3.118  0.1169  0.2364 -0.5383
 8100TIP3    H245792   5.486   2.444   3.198  0.4932 -0.5725 -0.5883
 8101TIP3   OH245793   5.388   5.680   1.699 -0.2500 -0.4629 -0.6601
 8101TIP3    H145794   5.385   5.585   1.708 -0.6881 -0.3009  1.2426
 8101TIP3    H245795   5.339   5.713   1.774 -0.3983  1.2745 -1.4706
 8102TIP3   OH245796   5.746   3.367  15.435  0.5055 -0.3849 -0.0313
 8102TIP3    H145797   5.715   3.285  15.473  0.3393  0.3434  1.4910
 8102TIP3    H245798   5.699   3.435  15.482  0.6639  0.6022 -1.2459
 8103TIP3   OH245799   1.095   5.582  16.850  0.4782  0.4926 -0.7636
 8103TIP3    H145800   1.141   5.652  16.804  0.1399  1.0493 -0.2760
 8103TIP3    H245801   1.016   5.624  16.884 -0.1659 -0.3293 -1.1946
 8104TIP3   OH245802   5.463   4.519  13.970 -0.3865 -0.2268  0.6794
 8104TIP3    H145803   5.473   4.592  13.908 -0.9820 -0.8351 -0.1572
 8104TIP3    H245804   5.538   4.527  14.029  1.3663 -0.7932 -1.3397
 8105TIP3   OH245805   5.708   2.755   1.055  0.5177 -0.4219  0.0751
 8105TIP3    H145806   5.752   2.838   1.069 -1.2285  0.3299  1.5229
 8105TIP3    H245807   5.723   2.736   0.962  2.9025  0.2810  0.2423
 8106TIP3   OH245808   2.147   2.610  14.420  0.3473 -0.3080 -0.1994
 8106TIP3    H145809   2.064   2.650  14.395  1.2708 -0.2947 -3.9016
 8106TIP3    H245810   2.188   2.675  14.478 -2.6143 -0.9066  2.8415
 8107TIP3   OH245811   5.239   3.948  15.625 -0.2575  0.3687 -0.1745
 8107TIP3    H145812   5.238   4.028  15.572  0.4531  0.9283  0.6352
 8107TIP3    H245813   5.311   3.896  15.588 -0.5799  0.1820 -0.5598
 8108TIP3   OH245814   5.054   3.434   4.490  0.4751  0.0325  0.6992
 8108TIP3    H145815   4.983   3.442   4.554  1.3705  0.6850  1.6535
 8108TIP3    H245816   5.067   3.523   4.457 -0.5405 -0.4261 -1.0739
 8109TIP3   OH245817   0.688   0.315   6.554 -0.1411 -0.1365  0.0102
 8109TIP3    H145818   0.697   0.291   6.462  0.3951  1.8070 -0.4914
 8109TIP3    H245819   0.768   0.284   6.595  0.8412  1.2742 -0.7541
 8110TIP3   OH245820   2.764   1.383  12.368  0.5245  0.0174  0.0061
 8110TIP3    H145821   2.714   1.431  12.302 -0.0664 -0.8021 -0.1599
 8110TIP3    H245822   2.703   1.318  12.401  0.6247  0.7533  1.7647
 8111TIP3   OH245823   1.592   4.391  13.241  0.1401  0.5770 -0.1828
 8111TIP3    H145824   1.531   4.332  13.285  1.5201 -0.2438  0.7035
 8111TIP3    H245825   1.536   4.453  13.195 -1.3604  0.5604  1.5171
 8112TIP3   OH245826   0.335   2.783   1.328  0.2677 -0.0672  1.0953
 8112TIP3    H145827   0.274   2.798   1.400  0.7938  1.0065  1.3366
 8112TIP3    H245828   0.281   2.748   1.258 -0.6633  0.9953  1.2516
 8113TIP3   OH245829   6.402   1.514  13.500 -0.1181 -0.0362  0.3317
 8113TIP3    H145830   6.429   1.435  13.452 -0.0450  0.0083  0.3003
 8113TIP3    H245831   6.377   1.482  13.586 -0.1560 -0.1035  0.2965
 8114TIP3   OH245832   4.699   0.302   2.490 -0.6182  0.2283 -0.3497
 8114TIP3    H145833   4.707   0.388   2.447 -0.0687 -1.6314 -4.5198
 8114TIP3    H245834   4.605   0.287   2.495 -0.7793  1.5383  1.7230
 8115TIP3   OH245835   4.047   5.121   0.244 -0.7219 -0.1994 -0.2792
 8115TIP3    H145836   4.094   5.139   0.325 -2.3086  2.3170  0.1850
 8115TIP3    H245837   4.115   5.119   0.177  0.2030  3.0364  0.3983
 8116TIP3   OH245838   4.664   5.401   3.026  0.1855 -0.4555  0.1659
 8116TIP3    H145839   4.609   5.351   3.086 -1.5889 -2.0475 -2.6113
 8116TIP3    H245840   4.626   5.489   3.026 -0.1019 -0.5700  0.9270
 8117TIP3   OH245841   0.224   6.445  16.236 -0.0713  0.5566  0.2609
 8117TIP3    H145842   0.176   6.478  16.313  0.0900 -0.4616  0.8185
 8117TIP3    H245843   0.315   6.444  16.264 -0.1089 -0.6303  0.3624
 8118TIP3   OH245844   4.996   1.096   4.984  0.8570 -0.5601  0.0997
 8118TIP3    H145845   5.067   1.037   4.959 -0.2247 -2.1715  0.5834
 8118TIP3    H245846   4.932   1.087   4.913  0.7095  0.0972  0.1457
 8119TIP3   OH245847   5.844   0.531  15.210 -0.1744  0.1030 -0.0039
 8119TIP3    H145848   5.792   0.517  15.131  0.1320 -0.0105 -0.1861
 8119TIP3    H245849   5.828   0.453  15.263 -0.4085  0.1958  0.0616
 8120TIP3   OH245850   4.248   6.175   0.436 -0.1861  0.1893  0.3448
 8120TIP3    H145851   4.171   6.168   0.380 -0.2912  0.3266  0.4713
 8120TIP3    H245852   4.322   6.177   0.375 -0.1994 -1.1275  0.2628
 8121TIP3   OH245853   4.688   4.139  11.572  0.1074 -0.3233  0.5243
 8121TIP3    H145854   4.603   4.098  11.558  0.2557 -0.5594  0.2810
 8121TIP3    H245855   4.700   4.196  11.496  0.8351 -1.4631 -0.2435
 8122TIP3   OH245856   4.573   4.732   5.663  0.7262 -0.0417 -0.0185
 8122TIP3    H145857   4.524   4.801   5.709  0.4004 -1.6051  2.1301
 8122TIP3    H245858   4.664   4.762   5.665  0.1515  2.5005 -3.3180
 8123TIP3   OH245859   4.256   6.070   6.552  0.1599 -1.1706  0.2253
 8123TIP3    H145860   4.199   5.999   6.521  1.1541 -1.8482 -0.0773
 8123TIP3    H245861   4.328   6.025   6.597  0.5809 -0.3341  0.4011
 8124TIP3   OH245862   0.171   5.804   1.118  0.1342 -0.5656 -0.1710
 8124TIP3    H145863   0.185   5.759   1.201  1.1945 -0.8610 -0.4875
 8124TIP3    H245864   0.111   5.876   1.139  0.2519 -0.7387  0.8066
 8125TIP3   OH245865   1.012   3.732   0.787 -0.3170  0.3056 -0.2083
 8125TIP3    H145866   0.927   3.694   0.765 -1.1401  1.9761 -0.0595
 8125TIP3    H245867   1.021   3.718   0.881  0.1303 -0.9033 -0.4140
 8126TIP3   OH245868   6.418   5.614  13.088 -0.1743 -0.2050  0.5258
 8126TIP3    H145869   6.448   5.676  13.022 -0.4029  1.0849  1.5789
 8126TIP3    H245870   6.383   5.540  13.038 -0.5928  0.8409 -0.7963
 8127TIP3   OH245871   4.240   3.238  11.781  0.0802 -0.3827 -0.3543
 8127TIP3    H145872   4.280   3.289  11.852 -0.5564  0.0948 -0.3270
 8127TIP3    H245873   4.177   3.181  11.825 -0.4409  0.0378 -0.5503
 8128TIP3   OH245874   2.278   4.854   3.882  0.2093  0.1429 -0.4718
 8128TIP3    H145875   2.244   4.769   3.910 -0.5934  0.6771  0.2120
 8128TIP3    H245876   2.266   4.911   3.958  2.2165  0.4967 -0.3538
 8129TIP3   OH245877   5.302   3.206   5.197  0.1141 -0.3404  0.5761
 8129TIP3    H145878   5.346   3.266   5.136  0.5640 -0.2751  0.9577
 8129TIP3    H245879   5.218   3.249   5.217 -1.0001 -1.3650 -1.6219
 8130TIP3   OH245880   0.578   1.324   4.142  0.3929  0.2272 -0.5272
 8130TIP3    H145881   0.519   1.336   4.068 -1.3549 -3.0342  0.1815
 8130TIP3    H245882   0.660   1.295   4.103 -0.1018 -0.2064 -1.2461
 8131TIP3   OH245883   6.175   0.010   1.728 -0.2264 -0.3019  0.7929
 8131TIP3    H145884   6.089   0.048   1.743 -0.2541  0.0012 -0.0586
 8131TIP3    H245885   6.157  -0.080   1.698 -0.3427  0.2409 -0.8931
 8132TIP3   OH245886   0.564   4.742  14.064  0.3269  0.2904  0.5492
 8132TIP3    H145887   0.553   4.819  14.007 -1.5113  0.9015  1.6272
 8132TIP3    H245888   0.487   4.744  14.121 -0.7232 -3.3197 -0.4874
 8133TIP3   OH245889   5.159   0.760   1.636  0.3641 -0.3605 -0.4959
 8133TIP3    H145890   5.176   0.846   1.598  1.1771  0.1243  0.9075
 8133TIP3    H245891   5.086   0.725   1.585 -2.1966  2.5000  0.9606
 8134TIP3   OH245892   0.517   0.934   3.762 -0.3688 -0.0291  0.6037
 8134TIP3    H145893   0.446   0.986   3.724 -0.5961 -0.2051  0.7855
 8134TIP3    H245894   0.548   0.879   3.690  0.8892  1.4195 -0.0217
 8135TIP3   OH245895   5.061   6.514   3.342  0.0407  0.3609  0.1592
 8135TIP3    H145896   5.083   6.591   3.288 -3.5831  0.9455 -0.7348
 8135TIP3    H245897   5.022   6.452   3.280 -0.4669 -0.6594  1.4732
 8136TIP3   OH245898   0.025   1.706  10.563  0.0710 -0.5681 -0.8576
 8136TIP3    H145899   0.103   1.754  10.588 -0.0778 -0.4882 -0.5414
 8136TIP3    H245900  -0.021   1.690  10.645 -1.1042  0.8697 -1.1954
 8137TIP3   OH245901   3.669   2.553  12.775  0.0800  0.6201 -0.3746
 8137TIP3    H145902   3.646   2.475  12.723 -0.7864  0.5582  0.0800
 8137TIP3    H245903   3.738   2.523  12.833 -1.3299 -0.2811  0.9191
 8138TIP3   OH245904   4.059   2.091  14.419 -0.0724 -0.3549 -0.3983
 8138TIP3    H145905   4.008   2.047  14.488  0.7607  0.4248  0.7634
 8138TIP3    H245906   4.150   2.070  14.440  0.2375  0.5309 -0.8205
 8139TIP3   OH245907   5.768   3.787   0.797 -0.4809  0.3225  0.1457
 8139TIP3    H145908   5.757   3.794   0.702 -1.1678 -0.5166  0.1534
 8139TIP3    H245909   5.716   3.710   0.822  0.8155 -0.3181  1.0041
 8140TIP3   OH245910   4.575   4.384  17.085 -0.3295  0.2226  0.7361
 8140TIP3    H145911   4.490   4.379  17.128 -1.6873 -2.1665 -1.9234
 8140TIP3    H245912   4.557   4.427  17.001  1.1336 -0.0791  0.2364
 8141TIP3   OH245913   0.563   4.053   3.996 -0.1020 -0.6666 -0.9096
 8141TIP3    H145914   0.555   3.993   3.921 -2.3515 -1.6726  0.0508
 8141TIP3    H245915   0.655   4.047   4.021 -0.1330 -3.4172 -1.1444
 8142TIP3   OH245916   2.534   0.663  16.898 -0.1898  0.0176  0.6034
 8142TIP3    H145917   2.445   0.644  16.867 -0.2695 -0.3374  1.0301
 8142TIP3    H245918   2.589   0.654  16.821 -0.3533 -1.0685  0.5882
 8143TIP3   OH245919   6.690   2.486   2.031  0.4454  0.6647 -0.2900
 8143TIP3    H145920   6.619   2.533   2.074  0.9658  2.3535 -1.1505
 8143TIP3    H245921   6.765   2.496   2.091  0.2021 -0.3454  0.1999
 8144TIP3   OH245922   3.558   5.132   6.042  0.2179 -0.2959 -0.5146
 8144TIP3    H145923   3.485   5.157   5.985 -0.1017 -1.6963 -0.7646
 8144TIP3    H245924   3.517   5.112   6.126 -0.1351 -3.6140 -1.3482
 8145TIP3   OH245925   1.813   5.039  15.105  0.3144 -0.6131 -0.3191
 8145TIP3    H145926   1.849   4.963  15.150  0.3203 -1.1387 -1.1745
 8145TIP3    H245927   1.826   5.112  15.165 -2.6170 -1.7722  2.0028
 8146TIP3   OH245928   6.469   6.530  15.718  0.6800  0.5538 -0.4180
 8146TIP3    H145929   6.542   6.549  15.660  1.2212  0.3451  0.1906
 8146TIP3    H245930   6.506   6.534  15.806 -0.4290  2.2947  0.0298
 8147TIP3   OH245931   3.544   3.984  14.277 -0.0716  0.0177  0.7695
 8147TIP3    H145932   3.526   3.920  14.347  0.2223 -0.0449  0.7926
 8147TIP3    H245933   3.558   3.931  14.199 -0.2568  0.0795  0.6951
 8148TIP3   OH245934   3.739   3.283  13.618  0.6586  0.0701  0.5570
 8148TIP3    H145935   3.760   3.312  13.530  0.7306  0.8160  0.8171
 8148TIP3    H245936   3.818   3.238  13.648  0.3863 -0.8045 -0.0130
 8149TIP3   OH245937   0.432   2.296   2.856  0.6991 -0.1222 -0.0696
 8149TIP3    H145938   0.381   2.342   2.923 -0.7243 -0.3703 -0.9374
 8149TIP3    H245939   0.377   2.222   2.830  1.1104  0.0768 -1.6508
 8150TIP3   OH245940   4.001   5.963  16.545 -0.0881  0.5743 -0.5799
 8150TIP3    H145941   4.032   5.883  16.503  0.9264  0.1399  0.9106
 8150TIP3    H245942   3.916   5.940  16.581  0.1369  0.1925 -0.2823
 8151TIP3   OH245943   0.231   1.401  16.420 -0.0466 -0.0405 -0.4261
 8151TIP3    H145944   0.183   1.320  16.438  0.8597 -0.8155 -1.3683
 8151TIP3    H245945   0.230   1.409  16.325  0.7391  0.5195 -0.3985
 8152TIP3   OH245946   4.838   1.162   4.718 -0.0065  0.7377 -0.0228
 8152TIP3    H145947   4.817   1.255   4.723 -1.0481  0.4581  1.4696
 8152TIP3    H245948   4.849   1.145   4.624 -0.0485  2.2977 -0.3363
 8153TIP3   OH245949   5.579   2.581   1.238 -0.4773 -0.1359  0.1103
 8153TIP3    H145950   5.589   2.613   1.328  1.0058 -0.2294  0.0052
 8153TIP3    H245951   5.667   2.587   1.201 -0.8336 -1.2066 -0.9615
 8154TIP3   OH245952   1.619   4.673  15.612  0.0019  0.0347  0.2790
 8154TIP3    H145953   1.589   4.731  15.542 -1.5294 -1.8069 -0.6861
 8154TIP3    H245954   1.627   4.587  15.570  1.1754 -0.6974  1.8921
 8155TIP3   OH245955   0.076   2.928  12.713 -0.1541  0.2152 -0.4750
 8155TIP3    H145956   0.118   2.905  12.630 -1.2150 -0.7137 -0.7843
 8155TIP3    H245957   0.010   2.993  12.690 -0.4525 -0.0459 -0.3706
 8156TIP3   OH245958   0.060   3.662  12.524  0.3081  0.5515  0.0311
 8156TIP3    H145959  -0.019   3.646  12.576 -1.1117 -0.3589 -2.2263
 8156TIP3    H245960   0.080   3.754  12.537 -1.9731  1.1633 -0.3679
 8157TIP3   OH245961   2.947   6.073  11.829 -0.0990 -0.4333  0.1416
 8157TIP3    H145962   2.944   6.054  11.922  0.7143 -0.3084  0.1977
 8157TIP3    H245963   3.037   6.052  11.803 -0.6298 -1.6202 -0.8529
 8158TIP3   OH245964   5.913   2.587  12.370  0.1985  0.3359 -0.8255
 8158TIP3    H145965   5.950   2.667  12.407  0.6336 -0.9291  1.6279
 8158TIP3    H245966   5.972   2.517  12.397 -0.1370 -0.8814 -2.9443
 8159TIP3   OH245967   5.298   3.320  14.773  0.0427 -0.1384 -0.0032
 8159TIP3    H145968   5.290   3.264  14.850 -0.8615 -0.1063 -0.0587
 8159TIP3    H245969   5.320   3.261  14.702 -0.0532 -0.2981  0.0998
 8160TIP3   OH245970   5.099   0.625   2.296 -0.2675 -0.0225 -0.1379
 8160TIP3    H145971   5.054   0.707   2.274  1.0102  1.1435  1.4254
 8160TIP3    H245972   5.131   0.638   2.385 -0.6093 -2.5091  0.4201
 8161TIP3   OH245973   2.280   4.167  11.136  0.0344  0.7220 -0.4772
 8161TIP3    H145974   2.208   4.118  11.097  0.9269 -0.6439 -0.4744
 8161TIP3    H245975   2.356   4.111  11.124  0.7923  1.3742  1.0146
 8162TIP3   OH245976   0.147   5.317  11.013  0.1394 -0.4026 -0.3881
 8162TIP3    H145977   0.135   5.367  10.933  0.6462 -1.7895 -1.3612
 8162TIP3    H245978   0.241   5.322  11.032  0.0279 -0.1032  0.1119
 8163TIP3   OH245979   4.024   6.023  11.027 -0.0032  0.2711 -0.3571
 8163TIP3    H145980   3.962   5.999  10.958 -0.4369  0.0828  0.0856
 8163TIP3    H245981   4.105   5.980  11.002 -0.7203 -1.6011  0.3363
 8164TIP3   OH245982   6.109   2.832   3.581 -0.2031  0.4336  0.0102
 8164TIP3    H145983   6.065   2.840   3.497  1.4596 -0.6646 -1.0213
 8164TIP3    H245984   6.146   2.919   3.597  0.5629  0.3221 -1.0549
 8165TIP3   OH245985   5.958   6.594   4.532 -0.1967 -0.4392  0.3743
 8165TIP3    H145986   5.866   6.580   4.557 -0.6079 -0.3669 -0.9891
 8165TIP3    H245987   5.965   6.555   4.445  1.0842 -0.4504  0.4640
 8166TIP3   OH245988   0.715   1.513  14.785  0.1653  0.1830 -0.1063
 8166TIP3    H145989   0.631   1.512  14.830  1.2553 -1.0935  2.0685
 8166TIP3    H245990   0.779   1.496  14.854  2.2288  1.1480 -1.6782
 8167TIP3   OH245991   1.118   2.259   3.981 -0.1847 -0.2923 -0.3061
 8167TIP3    H145992   1.160   2.243   4.065 -0.4039 -0.6853 -0.2649
 8167TIP3    H245993   1.187   2.293   3.925 -0.0445 -0.0148  0.0399
 8168TIP3   OH245994   4.720   5.470  12.940 -0.2950  0.5579  0.2020
 8168TIP3    H145995   4.736   5.383  12.976 -0.4683  1.1711  1.8164
 8168TIP3    H245996   4.803   5.517  12.950 -0.4556  0.8556  0.1679
 8169TIP3   OH245997   2.595   3.371   1.828  0.2810 -0.3759  0.2542
 8169TIP3    H145998   2.643   3.401   1.750 -2.2141  2.1485 -0.4792
 8169TIP3    H245999   2.514   3.334   1.793 -0.8032  0.6294  1.6160
 8170TIP3   OH246000   5.567   1.944   0.691 -0.1735 -0.2897  0.2812
 8170TIP3    H146001   5.566   1.888   0.770  0.3263 -1.7391 -0.6902
 8170TIP3    H246002   5.518   1.894   0.626 -1.7537  1.5009  0.0159
 8171TIP3   OH246003   2.771   3.176  15.809  0.1086  0.1214  0.6130
 8171TIP3    H146004   2.817   3.189  15.725 -0.3241 -1.2277  0.1502
 8171TIP3    H246005   2.704   3.245  15.809  0.9602  0.9647  0.4628
 8172TIP3   OH246006   5.860   6.616   2.519 -0.2358  0.3454  0.3716
 8172TIP3    H146007   5.880   6.658   2.435  0.0456  1.4012  0.9511
 8172TIP3    H246008   5.870   6.686   2.584 -0.7465 -0.3817  1.2554
 8173TIP3   OH246009   4.481   5.070  12.704  0.7980 -0.1957 -0.5070
 8173TIP3    H146010   4.457   5.110  12.620 -0.4799 -1.7067 -0.9065
 8173TIP3    H246011   4.574   5.049  12.695  1.4005  2.1645 -0.4555
 8174TIP3   OH246012   3.777   5.475  16.436  0.3446  0.2954 -0.4053
 8174TIP3    H146013   3.737   5.398  16.477 -1.0497  0.5347 -1.2385
 8174TIP3    H246014   3.819   5.521  16.508 -0.7768 -0.0601  0.5173
 8175TIP3   OH246015   3.073   1.502  12.199 -0.3433 -0.3381 -0.1056
 8175TIP3    H146016   3.073   1.596  12.218 -1.5615 -0.5155  0.9647
 8175TIP3    H246017   3.054   1.461  12.283  1.5509 -1.6485 -0.2651
 8176TIP3   OH246018   5.850   3.065  11.715  0.1351 -0.6681  0.4412
 8176TIP3    H146019   5.787   3.028  11.653  0.1459 -1.1135  0.6987
 8176TIP3    H246020   5.935   3.040  11.680  0.1304 -3.3459  2.0857
 8177TIP3   OH246021   3.594   2.195  14.736 -0.2558  0.3379  0.0796
 8177TIP3    H146022   3.628   2.180  14.824 -1.5001 -1.1328  0.3451
 8177TIP3    H246023   3.561   2.110  14.708  1.3973  0.4153 -2.4059
 8178TIP3   OH246024   0.124   3.556  15.141 -0.5258  0.0256  0.5339
 8178TIP3    H146025   0.214   3.580  15.162 -0.6447  0.8895  0.0901
 8178TIP3    H246026   0.078   3.639  15.133 -0.9857 -0.3384 -0.8718
 8179TIP3   OH246027   4.022   0.098   5.455 -0.2478 -0.2141  0.2526
 8179TIP3    H146028   4.087   0.032   5.432 -1.5396 -1.3571 -0.3009
 8179TIP3    H246029   4.052   0.178   5.412 -0.4365 -1.3004 -2.0575
 8180TIP3   OH246030   5.638   2.072  17.191  0.0653 -0.4574 -0.4625
 8180TIP3    H146031   5.668   2.099  17.104 -0.0532 -0.4250 -0.4950
 8180TIP3    H246032   5.543   2.082  17.187  0.1579  0.7712  0.0873
 8181TIP3   OH246033   4.810   3.653   4.123  0.0801 -0.1701  0.2714
 8181TIP3    H146034   4.791   3.565   4.155  0.5090 -0.2756  0.2392
 8181TIP3    H246035   4.724   3.688   4.099 -0.1186 -0.4969  0.4874
 8182TIP3   OH246036   6.529   6.470  13.238  0.4278 -0.0601 -0.0060
 8182TIP3    H146037   6.611   6.507  13.271  0.8848 -0.8069 -0.2778
 8182TIP3    H246038   6.468   6.543  13.238  0.4533  0.0130  2.2915
 8183TIP3   OH246039   3.139   5.589   3.744  0.6503  0.1235  0.1134
 8183TIP3    H146040   3.107   5.679   3.736  0.6017  0.0605 -0.4402
 8183TIP3    H246041   3.234   5.596   3.740  0.6778  0.2131  0.7682
 8184TIP3   OH246042   3.860   5.263   3.548 -0.1410 -0.1247  0.2877
 8184TIP3    H146043   3.848   5.233   3.638  1.1796  0.5062  0.6947
 8184TIP3    H246044   3.830   5.190   3.494  0.2122 -0.9918  1.2399
 8185TIP3   OH246045   2.141   4.323   5.077 -0.2346 -0.0279  0.7129
 8185TIP3    H146046   2.191   4.312   4.996 -0.6596  0.0444  0.4359
 8185TIP3    H246047   2.098   4.238   5.090 -2.4593  0.7700 -0.7106
 8186TIP3   OH246048   5.760   1.279   3.775  0.1839  0.4182 -0.4930
 8186TIP3    H146049   5.775   1.200   3.723 -0.5326 -0.4634  0.5762
 8186TIP3    H246050   5.837   1.334   3.758  2.5436 -2.0035  1.3923
 8187TIP3   OH246051   1.380   4.839  12.220  0.3648 -0.3026  0.3345
 8187TIP3    H146052   1.469   4.811  12.201 -0.2148 -1.5487 -0.6812
 8187TIP3    H246053   1.381   4.857  12.314  1.3425 -1.7225  0.6392
 8188TIP3   OH246054   2.231   5.604   5.621  0.0350  0.1194 -0.0841
 8188TIP3    H146055   2.293   5.553   5.568 -1.8371 -2.7812  0.2350
 8188TIP3    H246056   2.215   5.683   5.570  2.7359  0.2411 -0.9009
 8189TIP3   OH246057   5.067   4.832   2.666  0.3413  0.1147  0.0435
 8189TIP3    H146058   4.974   4.820   2.644  0.1006  0.9014  0.6008
 8189TIP3    H246059   5.099   4.743   2.681 -0.8414 -0.0794  1.8292
 8190TIP3   OH246060   1.974   6.758  12.490  0.1802  0.2870 -0.9537
 8190TIP3    H146061   1.955   6.678  12.540  0.9291 -0.3714 -1.6921
 8190TIP3    H246062   1.942   6.829  12.545  1.9209 -0.3312  0.9674
 8191TIP3   OH246063   4.869   6.439   5.549  0.2690  0.4902 -0.0741
 8191TIP3    H146064   4.814   6.373   5.592 -0.1829  0.7221 -0.2849
 8191TIP3    H246065   4.935   6.463   5.614 -1.3177  1.9708  1.0718
 8192TIP3   OH246066   3.973   1.937  12.030  0.4731  0.3093 -0.4170
 8192TIP3    H146067   3.973   1.869  12.097 -0.9246  1.3395  0.6907
 8192TIP3    H246068   4.064   1.942  12.001  1.2728  0.2129  1.8555
 8193TIP3   OH246069   1.883   2.866  14.091 -0.2420 -0.9717  1.0550
 8193TIP3    H146070   1.968   2.825  14.108  1.3562  1.3541 -0.6580
 8193TIP3    H246071   1.879   2.875  13.996 -1.0486  1.5516  1.2433
 8194TIP3   OH246072   1.727   5.563   0.290 -0.4378 -0.0601 -0.4670
 8194TIP3    H146073   1.715   5.657   0.302 -1.0139  0.1595 -2.3757
 8194TIP3    H246074   1.686   5.523   0.367 -1.2467  1.2173 -0.2086
 8195TIP3   OH246075   0.472   3.825  13.006 -0.1586 -0.7516 -0.4131
 8195TIP3    H146076   0.458   3.837  13.099  0.1297  1.2284 -0.5751
 8195TIP3    H246077   0.567   3.832  12.995 -0.2948  0.5755 -0.9984
 8196TIP3   OH246078   2.339   3.549   1.627 -0.1224  0.4018  0.3000
 8196TIP3    H146079   2.389   3.586   1.555  0.1067  2.2083  1.3353
 8196TIP3    H246080   2.339   3.455   1.610 -1.6770  0.8784 -3.0544
 8197TIP3   OH246081   6.055   4.267  13.576  0.0657  0.1225 -0.0898
 8197TIP3    H146082   6.096   4.333  13.632 -0.5183  0.4777 -0.0616
 8197TIP3    H246083   6.079   4.183  13.615 -0.4647  0.3666  0.7973
 8198TIP3   OH246084   2.057   3.785   4.399  0.4842 -0.3196 -0.7094
 8198TIP3    H146085   2.043   3.737   4.480  1.7028  1.6047  0.7196
 8198TIP3    H246086   1.969   3.796   4.362 -0.6460  1.9253  2.2963
 8199TIP3   OH246087   1.463   3.387   5.937 -0.5054 -0.1735 -0.5419
 8199TIP3    H146088   1.441   3.404   6.029 -0.9959  4.2296 -1.2336
 8199TIP3    H246089   1.380   3.361   5.897 -1.2181  1.6139 -0.3412
 8200TIP3   OH246090   1.565   5.835   6.462 -0.1299  0.5754 -0.3450
 8200TIP3    H146091   1.639   5.793   6.506  1.3517  1.1583 -2.1708
 8200TIP3    H246092   1.505   5.763   6.442  0.0198  0.0562  0.9212
 8201TIP3   OH246093   3.509   1.961  14.634 -0.1794  0.0632  0.1596
 8201TIP3    H146094   3.449   1.950  14.560 -0.0923 -0.5701  0.1789
 8201TIP3    H246095   3.452   1.963  14.711 -0.1298 -1.5320  0.2694
 8202TIP3   OH246096   0.561   0.767  14.434  0.1403 -0.5544 -0.2205
 8202TIP3    H146097   0.655   0.754  14.445  0.1073  0.4884  1.9056
 8202TIP3    H246098   0.526   0.680  14.419  1.2749 -1.1776  0.5999
 8203TIP3   OH246099   6.788   0.458  16.158  0.0364 -0.3466  0.1174
 8203TIP3    H146100   6.706   0.505  16.171 -0.1431 -0.3987 -0.7537
 8203TIP3    H246101   6.796   0.401  16.234 -0.7583 -0.3712  0.1861
 8204TIP3   OH246102   1.022   2.711   3.755 -0.5637  0.3343 -0.3750
 8204TIP3    H146103   0.974   2.786   3.718 -0.2909  0.0574 -1.3136
 8204TIP3    H246104   1.111   2.743   3.768 -0.7963  0.6119  0.6361
 8205TIP3   OH246105   4.307   5.944   2.328  0.4554  0.4618  0.0387
 8205TIP3    H146106   4.291   6.021   2.383  1.2682 -0.1283  1.1379
 8205TIP3    H246107   4.390   5.909   2.360  1.1056  0.2610 -1.7794
 8206TIP3   OH246108   1.921   4.175  11.251  0.0444 -0.1259 -0.3766
 8206TIP3    H146109   1.827   4.171  11.266  0.0041 -0.5858 -0.7226
 8206TIP3    H246110   1.936   4.120  11.174  0.5307  0.3421 -0.6263
 8207TIP3   OH246111   5.199   4.183   2.854  0.2512 -0.2353  0.0165
 8207TIP3    H146112   5.206   4.272   2.889 -0.8518  0.2214 -0.8404
 8207TIP3    H246113   5.280   4.169   2.806  0.6268  0.1302  0.5340
 8208TIP3   OH246114   1.238   5.343   1.285  0.4714 -0.7874  0.7511
 8208TIP3    H146115   1.252   5.343   1.190  0.8054  0.6352  0.7753
 8208TIP3    H246116   1.284   5.265   1.316  2.5237  0.0855  0.0199
 8209TIP3   OH246117   6.700   6.169   1.027  0.4876  0.4992 -0.2152
 8209TIP3    H146118   6.721   6.093   1.081 -1.5896 -0.5146 -0.7049
 8209TIP3    H246119   6.608   6.156   1.002  1.4394  0.4890 -4.5755
 8210TIP3   OH246120   2.875   6.423   2.793 -0.0186  0.4728  0.0764
 8210TIP3    H146121   2.968   6.417   2.771  0.7672  1.7400  2.6840
 8210TIP3    H246122   2.851   6.514   2.778 -0.6879  0.2970  0.0095
 8211TIP3   OH246123   5.327   4.357  12.079 -0.6654  0.1425 -0.5383
 8211TIP3    H146124   5.259   4.316  12.025 -1.7950  1.1843  0.0367
 8211TIP3    H246125   5.280   4.390  12.156  0.3777  1.4036 -0.3952
 8212TIP3   OH246126   1.174   3.170   4.373  0.1739  0.1312 -0.4757
 8212TIP3    H146127   1.079   3.160   4.381  0.1335  0.1602 -0.8811
 8212TIP3    H246128   1.205   3.178   4.463 -0.2707  0.7019 -0.3657
 8213TIP3   OH246129   1.185   1.814   3.932  0.2486 -0.0126  0.0342
 8213TIP3    H146130   1.219   1.786   4.017 -1.2190  1.4149  1.1485
 8213TIP3    H246131   1.248   1.879   3.901 -1.0249  2.1985  1.8181
 8214TIP3   OH246132   4.807   2.752   0.689  0.3860  0.6798 -0.1893
 8214TIP3    H146133   4.717   2.723   0.674  0.4005  0.0096  0.9122
 8214TIP3    H246134   4.857   2.714   0.617 -0.1193  0.5541 -0.4769
 8215TIP3   OH246135   1.607   2.625  13.883  0.0906 -0.8092 -0.0804
 8215TIP3    H146136   1.674   2.563  13.853  0.9456  0.0238  0.0433
 8215TIP3    H246137   1.548   2.634  13.809 -0.0302 -1.7405 -0.1102
 8216TIP3   OH246138   6.729   1.763  12.354  0.9050 -0.6388 -0.5271
 8216TIP3    H146139   6.813   1.802  12.378  1.6170 -2.0708 -0.5716
 8216TIP3    H246140   6.738   1.744  12.260  0.0358  0.3591 -0.8245
 8217TIP3   OH246141   2.834   5.134   4.048 -0.3674 -0.1036 -0.2332
 8217TIP3    H146142   2.816   5.225   4.071  1.2285 -0.0772  1.0339
 8217TIP3    H246143   2.763   5.085   4.090  0.5651  0.2791  1.8979
 8218TIP3   OH246144   5.235   4.969  16.231 -0.6445 -0.5794 -0.1528
 8218TIP3    H146145   5.253   4.986  16.138 -0.3000 -0.9616 -0.1609
 8218TIP3    H246146   5.321   4.977  16.274 -0.8303 -0.2359  0.1619
 8219TIP3   OH246147   0.069   3.144   2.423 -0.2580  0.0959 -0.0843
 8219TIP3    H146148   0.134   3.192   2.371  0.2282 -0.3403  0.1027
 8219TIP3    H246149   0.009   3.211   2.455 -0.1260  0.4587 -0.5888
 8220TIP3   OH246150   1.689   3.521   3.263  0.0385  0.1760 -0.1341
 8220TIP3    H146151   1.655   3.600   3.222  0.3311  1.2123  1.5239
 8220TIP3    H246152   1.679   3.537   3.357 -0.1513 -1.8743  0.2468
 8221TIP3   OH246153   2.776   3.501  13.360  0.2335 -0.6558 -0.1430
 8221TIP3    H146154   2.778   3.475  13.268 -1.5621 -0.9692 -0.1211
 8221TIP3    H246155   2.824   3.432  13.406  1.5890 -0.2401 -0.8639
 8222TIP3   OH246156   3.499   3.747  13.771  0.5666  0.4513 -0.1211
 8222TIP3    H146157   3.521   3.669  13.822  0.2553  0.7924  0.5426
 8222TIP3    H246158   3.415   3.726  13.730  0.4879  0.4309  0.0487
 8223TIP3   OH246159   4.218   5.665   2.143  0.2707 -0.0599  0.5936
 8223TIP3    H146160   4.172   5.626   2.069  0.9212  1.1815 -0.5052
 8223TIP3    H246161   4.276   5.596   2.175 -1.1663 -1.1262  0.9889
 8224TIP3   OH246162   0.082   5.327  11.874 -0.1970 -0.5232 -0.1453
 8224TIP3    H146163   0.113   5.379  11.948 -0.3201  1.0596 -1.1615
 8224TIP3    H246164   0.105   5.379  11.797 -1.0317 -1.6249 -1.1715
 8225TIP3   OH246165   5.605   4.459  13.574 -0.3589  0.0806 -0.1469
 8225TIP3    H146166   5.610   4.430  13.665 -1.2782  1.9079  0.5415
 8225TIP3    H246167   5.694   4.449  13.541 -0.1361 -1.1495  0.7577
 8226TIP3   OH246168   4.357   5.007   4.117 -0.1218 -0.1109 -0.0596
 8226TIP3    H146169   4.342   5.100   4.132 -1.4903 -0.5551  1.6965
 8226TIP3    H246170   4.431   5.004   4.057 -0.3799  2.1049 -0.5710
 8227TIP3   OH246171   6.080   1.953  16.382  0.1259  0.2107  0.0389
 8227TIP3    H146172   6.060   2.016  16.312 -0.2465  1.0709  0.9067
 8227TIP3    H246173   5.995   1.922  16.411  0.0066  2.5381  2.5208
 8228TIP3   OH246174   2.682   4.494   0.678  0.2613  0.6773 -0.9928
 8228TIP3    H146175   2.591   4.524   0.674 -0.6369 -1.1396  2.3304
 8228TIP3    H246176   2.679   4.405   0.642  0.6011  0.4187 -0.3832
 8229TIP3   OH246177   0.730   1.545  15.595  0.1495  0.1406 -0.2698
 8229TIP3    H146178   0.771   1.551  15.509  0.7561 -0.1518 -0.0107
 8229TIP3    H246179   0.638   1.529  15.578  0.3117 -0.1751 -0.8645
 8230TIP3   OH246180   5.168   0.702  11.964 -0.6676 -0.4345  0.3546
 8230TIP3    H146181   5.238   0.666  12.019 -0.7540  0.0381  0.7897
 8230TIP3    H246182   5.139   0.629  11.910 -0.6476 -0.9408  1.0169
 8231TIP3   OH246183   5.117   0.163  17.213  0.6555  0.1696 -0.1707
 8231TIP3    H146184   5.192   0.105  17.203  1.9873  0.9680  3.5058
 8231TIP3    H246185   5.144   0.245  17.172  0.7628 -0.2967 -1.0441
 8232TIP3   OH246186   3.576   1.637  12.374  0.9138 -0.1755 -0.3808
 8232TIP3    H146187   3.517   1.592  12.313  1.1845 -0.8063 -0.1880
 8232TIP3    H246188   3.661   1.595  12.360  0.8635 -0.7203  0.8240
 8233TIP3   OH246189   4.710   4.564  17.368  0.2261 -0.1613 -0.3021
 8233TIP3    H146190   4.722   4.646  17.322  0.7500  0.1068  0.2979
 8233TIP3    H246191   4.761   4.573  17.448  1.1411 -1.4685 -0.7018
 8234TIP3   OH246192   4.057   3.997   3.144 -0.0829 -0.1174 -0.7054
 8234TIP3    H146193   3.979   4.051   3.161  0.0187 -0.3035  0.4422
 8234TIP3    H246194   4.022   3.918   3.103 -0.2931  0.5622 -1.8750
 8235TIP3   OH246195   1.176   4.409  15.798  0.1694  0.3248  0.3554
 8235TIP3    H146196   1.254   4.454  15.830  0.6331 -0.4212  0.2971
 8235TIP3    H246197   1.210   4.333  15.750 -0.5872  0.1012  0.1569
 8236TIP3   OH246198   6.433   6.575   5.804 -0.0795 -0.1501  0.0454
 8236TIP3    H146199   6.460   6.490   5.841  1.6216  0.9774  1.5672
 8236TIP3    H246200   6.373   6.611   5.868 -0.8181 -0.1932 -0.6131
 8237TIP3   OH246201   5.018   6.297   0.895  0.0560  0.0787 -0.2001
 8237TIP3    H146202   5.108   6.267   0.909  0.7849  2.8084  1.5529
 8237TIP3    H246203   4.993   6.256   0.812  2.4939 -1.6419 -0.2083
 8238TIP3   OH246204   2.448   2.104  12.253  0.2395 -0.1650  0.1780
 8238TIP3    H146205   2.467   2.065  12.168 -0.7845 -1.9350  0.6962
 8238TIP3    H246206   2.390   2.040  12.296  2.2793 -0.3328  3.0020
 8239TIP3   OH246207   1.260   3.533  11.401  0.0375  0.4898  0.0451
 8239TIP3    H146208   1.330   3.588  11.434  1.0408 -1.0162  0.5452
 8239TIP3    H246209   1.190   3.539  11.466  0.6878  0.1074  0.7872
 8240TIP3   OH246210   0.920   5.677   3.625  0.4229  0.4054 -0.3189
 8240TIP3    H146211   0.865   5.755   3.633 -1.0204 -0.5333 -0.6592
 8240TIP3    H246212   0.973   5.693   3.547 -1.2422  0.2522 -1.5191
 8241TIP3   OH246213   1.969   2.890   4.415 -0.1338 -0.5082 -0.0986
 8241TIP3    H146214   1.947   2.829   4.345  1.2517  0.8477 -1.8315
 8241TIP3    H246215   1.895   2.951   4.419  0.6247  0.6319 -1.9040
 8242TIP3   OH246216   1.106   0.163  16.534  0.0333  0.2262  0.0714
 8242TIP3    H146217   1.117   0.136  16.625  1.0774  0.9652  0.1802
 8242TIP3    H246218   1.129   0.256  16.534  1.3163 -0.0642 -1.1624
 8243TIP3   OH246219   3.858   0.869   5.327 -0.0467 -0.0569 -0.4930
 8243TIP3    H146220   3.853   0.824   5.242  1.6576 -1.5707  0.1299
 8243TIP3    H246221   3.940   0.838   5.365  0.3440  2.3199  0.7682
 8244TIP3   OH246222   4.137   5.173   2.745 -0.3105 -0.4856 -0.3953
 8244TIP3    H146223   4.043   5.170   2.762 -0.4150  1.6813 -0.3396
 8244TIP3    H246224   4.149   5.119   2.667 -1.6200 -0.6763 -0.4856
 8245TIP3   OH246225   6.279   0.961  13.215  0.5844 -0.0959 -0.4227
 8245TIP3    H146226   6.231   1.039  13.187  0.8606  0.0972 -0.3678
 8245TIP3    H246227   6.338   0.942  13.142 -0.0301 -0.7182 -0.7613
 8246TIP3   OH246228   4.806   0.654   2.493 -0.3702 -0.5920 -0.2734
 8246TIP3    H146229   4.836   0.743   2.472 -1.8910 -0.0217 -0.1783
 8246TIP3    H246230   4.822   0.604   2.413  2.3374 -0.7816  0.3007
 8247TIP3   OH246231   0.195   5.822  13.609  0.1916 -0.6438 -0.3425
 8247TIP3    H146232   0.212   5.729  13.594  1.0177 -0.7445  1.1200
 8247TIP3    H246233   0.212   5.836  13.702  0.9912  1.1811 -0.7189
 8248TIP3   OH246234   2.350   0.697  11.933 -0.1827  0.1229 -0.5009
 8248TIP3    H146235   2.297   0.723  12.009  0.5930 -0.7031  0.3413
 8248TIP3    H246236   2.394   0.778  11.906  1.7956 -0.0913  1.7652
 8249TIP3   OH246237   3.014   3.586  16.514 -0.2748  0.2661 -0.1674
 8249TIP3    H146238   2.966   3.641  16.451 -1.2317 -1.8335 -1.3804
 8249TIP3    H246239   3.099   3.571  16.473 -0.1406  0.5635  0.0033
 8250TIP3   OH246240   4.751   0.248  14.536 -0.0058  0.3859 -0.0359
 8250TIP3    H146241   4.691   0.250  14.462  1.7735  0.0439 -1.5727
 8250TIP3    H246242   4.821   0.309  14.511  0.5143  0.4743  1.5087
 8251TIP3   OH246243   1.026   0.778  15.285  0.4505 -0.3211  0.2964
 8251TIP3    H146244   0.951   0.828  15.318  0.6615 -0.3568  0.8365
 8251TIP3    H246245   1.035   0.705  15.346  0.0047 -1.1584 -0.6135
 8252TIP3   OH246246   4.812   3.149   1.898 -0.1389 -0.5696  0.2369
 8252TIP3    H146247   4.734   3.204   1.908  0.4161  0.0045  1.5891
 8252TIP3    H246248   4.840   3.130   1.987  1.1593 -0.9506 -0.2232
 8253TIP3   OH246249   1.452   0.740  17.031  0.3903 -0.1126  0.6082
 8253TIP3    H146250   1.405   0.775  16.956  0.2713 -0.2879  0.6001
 8253TIP3    H246251   1.401   0.770  17.107 -2.0038 -3.4261  0.5353
 8254TIP3   OH246252   5.508   1.247  14.554  0.0975 -0.0340 -0.0204
 8254TIP3    H146253   5.575   1.268  14.489  0.1781 -2.1062 -0.6830
 8254TIP3    H246254   5.548   1.271  14.638  0.0483  2.5334 -0.6620
 8255TIP3   OH246255   4.900   4.026   4.020 -0.1083  0.3201 -0.4103
 8255TIP3    H146256   4.815   4.070   4.025 -0.3934 -0.2380 -0.1992
 8255TIP3    H246257   4.964   4.097   4.021 -0.6083  0.8255 -2.1190
 8256TIP3   OH246258   0.746   4.901  13.465 -0.0500  0.1856 -0.0708
 8256TIP3    H146259   0.796   4.945  13.396 -1.5615  0.2270 -1.1878
 8256TIP3    H246260   0.792   4.819  13.480  0.2480  0.1382 -1.1875
 8257TIP3   OH246261   6.484   1.811   1.591  0.2295  0.3510  0.6590
 8257TIP3    H146262   6.427   1.836   1.663 -1.0858  0.6679 -0.4412
 8257TIP3    H246263   6.549   1.881   1.586  1.7529 -0.7945  2.9166
 8258TIP3   OH246264   0.211   6.420   4.883 -0.0468  0.5724  0.7418
 8258TIP3    H146265   0.198   6.387   4.794  0.0577  2.1592  0.1037
 8258TIP3    H246266   0.305   6.435   4.890  0.0781 -0.4489  1.4801
 8259TIP3   OH246267   2.492   1.090  12.173  0.6405 -0.0033  0.0631
 8259TIP3    H146268   2.424   1.040  12.128  1.8159  0.7164 -2.6944
 8259TIP3    H246269   2.459   1.179  12.176 -0.6565 -0.4470  3.3647
 8260TIP3   OH246270   6.583   5.167   0.840  0.0622 -0.1031 -0.0343
 8260TIP3    H146271   6.642   5.241   0.857 -1.4064  0.9347  0.7913
 8260TIP3    H246272   6.589   5.152   0.745 -0.1802  1.6128 -0.3523
 8261TIP3   OH246273   3.680   0.778   0.380 -0.2780  0.1257 -0.4598
 8261TIP3    H146274   3.636   0.786   0.464 -1.9000 -1.5022 -1.0989
 8261TIP3    H246275   3.671   0.686   0.356  2.6958 -0.1129 -1.1039
 8262TIP3   OH246276   1.366   4.924   3.485  0.0677  0.1195 -0.5814
 8262TIP3    H146277   1.434   4.921   3.552 -0.3602 -2.3621 -0.1269
 8262TIP3    H246278   1.383   5.004   3.436  1.5021  1.0672  1.3474
 8263TIP3   OH246279   0.297   3.822   4.922 -0.0978  0.0886 -0.0197
 8263TIP3    H146280   0.255   3.840   4.838 -1.1180  0.0472  0.4767
 8263TIP3    H246281   0.299   3.727   4.929 -1.6810  0.0846  0.8049
 8264TIP3   OH246282   1.227   4.381   3.485 -0.0711  0.3039  0.7131
 8264TIP3    H146283   1.211   4.473   3.507  0.4223  0.8537 -1.0799
 8264TIP3    H246284   1.288   4.384   3.412 -0.1083 -1.4670  0.5665
 8265TIP3   OH246285   2.529   0.582  17.160  0.1192 -0.0534  0.2548
 8265TIP3    H146286   2.517   0.615  17.071 -0.3592 -0.2443  0.2475
 8265TIP3    H246287   2.607   0.627  17.191 -0.3970  0.9329  0.1706
 8266TIP3   OH246288   6.629   1.341   6.430 -0.4404  0.3568 -0.3716
 8266TIP3    H146289   6.595   1.409   6.488 -0.8654  2.1662 -2.6181
 8266TIP3    H246290   6.722   1.361   6.422 -0.2142 -0.3812  0.2780
 8267TIP3   OH246291   5.743   4.723   0.357 -0.1159 -0.2514 -0.4506
 8267TIP3    H146292   5.794   4.762   0.286  0.2274  1.2866  0.5872
 8267TIP3    H246293   5.780   4.761   0.437  0.6862 -3.2423  0.7407
 8268TIP3   OH246294   0.225   6.621   5.243 -0.5117  0.6726  0.2966
 8268TIP3    H146295   0.258   6.532   5.234 -0.5273  0.8766 -3.0335
 8268TIP3    H246296   0.303   6.676   5.246 -0.5195  0.6540  1.0663
 8269TIP3   OH246297   1.721   5.824  11.538  0.1219  0.4340  0.1359
 8269TIP3    H146298   1.781   5.875  11.484  0.3354 -0.5056 -0.5537
 8269TIP3    H246299   1.635   5.838  11.498 -0.0644  1.4147  0.8473
 8270TIP3   OH246300   2.559   2.391   1.076 -0.1063 -0.0901 -0.3099
 8270TIP3    H146301   2.512   2.354   1.001 -1.3584  1.6521 -0.4525
 8270TIP3    H246302   2.578   2.316   1.132 -0.1014 -1.2874 -1.8551
 8271TIP3   OH246303   0.976   5.110   0.940  0.3594  0.2578 -0.2573
 8271TIP3    H146304   1.056   5.078   0.981  0.6363  0.1241 -0.8967
 8271TIP3    H246305   0.999   5.125   0.848 -0.3592  0.1331 -0.4720
 8272TIP3   OH246306   2.673   1.116   2.937  0.3303  0.9072 -0.3761
 8272TIP3    H146307   2.599   1.170   2.909 -0.4102  0.5236  0.7898
 8272TIP3    H246308   2.665   1.036   2.885  0.0178  0.9279 -0.3581
 8273TIP3   OH246309   6.039   5.032   1.238  0.0904  0.0686 -0.3491
 8273TIP3    H146310   6.022   5.028   1.332 -3.8077 -0.0719 -0.8745
 8273TIP3    H246311   6.087   4.952   1.218 -0.2427 -0.5898  1.3512
 8274TIP3   OH246312   3.511   5.728   5.314  0.3928  0.2018  0.2522
 8274TIP3    H146313   3.559   5.727   5.397  1.7570  1.7929 -0.4611
 8274TIP3    H246314   3.419   5.719   5.339  0.7469  0.9126  1.9475
 8275TIP3   OH246315   5.261   6.204  15.027  0.8225 -0.1922  0.0356
 8275TIP3    H146316   5.188   6.246  15.074 -2.4001 -2.5184 -2.4393
 8275TIP3    H246317   5.266   6.116  15.064  0.1905 -1.0844 -1.8628
 8276TIP3   OH246318   3.393   2.621  15.569 -0.1545 -0.0332 -0.1688
 8276TIP3    H146319   3.462   2.609  15.635  0.5270  1.6518 -0.5237
 8276TIP3    H246320   3.321   2.565  15.599  0.8122 -0.6756  1.0253
 8277TIP3   OH246321   0.764   5.552   2.232 -0.3975 -0.1722  0.5315
 8277TIP3    H146322   0.755   5.484   2.166 -1.0386 -0.4067  0.8524
 8277TIP3    H246323   0.678   5.555   2.275 -0.0875  0.1960  1.1353
 8278TIP3   OH246324   1.429   2.382  10.475 -0.3834  0.0342  0.0296
 8278TIP3    H146325   1.389   2.450  10.530 -1.1540  0.2638 -0.8012
 8278TIP3    H246326   1.393   2.300  10.508 -0.4398  0.1303  0.2070
 8279TIP3   OH246327   3.288   4.914   6.024  0.6671 -0.1012  0.0557
 8279TIP3    H146328   3.246   4.861   5.957  0.9057  0.4900 -0.5671
 8279TIP3    H246329   3.373   4.937   5.987  1.6697 -1.4404  1.3677
 8280TIP3   OH246330   1.542   5.862   1.441  0.9635 -0.3254  0.0819
 8280TIP3    H146331   1.448   5.844   1.455  0.9450  0.1573  0.5966
 8280TIP3    H246332   1.587   5.797   1.495  0.9195 -0.2299  0.2336
 8281TIP3   OH246333   4.586   0.043  17.068 -0.1669 -0.0798 -0.3202
 8281TIP3    H146334   4.611   0.006  17.152 -1.5222 -1.1257 -0.3523
 8281TIP3    H246335   4.653   0.010  17.007  1.5327  1.6650  0.4948
 8282TIP3   OH246336   1.587   0.956   3.819 -0.2889 -0.0649  0.3238
 8282TIP3    H146337   1.659   1.017   3.806  0.7135 -1.5250 -1.4616
 8282TIP3    H246338   1.617   0.874   3.778 -3.2090 -0.5317 -1.1786
 8283TIP3   OH246339   0.727   2.862   0.189 -0.6950  0.3465 -0.2906
 8283TIP3    H146340   0.732   2.893   0.098  0.3839  3.1588  0.6229
 8283TIP3    H246341   0.643   2.894   0.221 -0.9090 -0.3297 -0.1529
 8284TIP3   OH246342   1.291   3.094  12.854 -0.0233 -0.3470 -0.2082
 8284TIP3    H146343   1.241   3.170  12.825  0.3431  0.2982  0.7908
 8284TIP3    H246344   1.376   3.102  12.810 -1.3926 -2.6571 -3.7499
 8285TIP3   OH246345   3.642   0.008   2.398 -0.0165  0.7831  0.1230
 8285TIP3    H146346   3.710   0.006   2.465 -0.5179 -1.0354  0.6212
 8285TIP3    H246347   3.685   0.047   2.322  2.3362 -2.2428 -0.3082
 8286TIP3   OH246348   5.099   3.976   5.402 -0.0608  0.2628 -0.0443
 8286TIP3    H146349   5.112   3.881   5.411  1.3464  0.3936 -0.3955
 8286TIP3    H246350   5.132   4.012   5.484 -1.9538  0.3894  0.7212
 8287TIP3   OH246351   5.218   2.039  11.498  0.3768 -0.2058 -0.0438
 8287TIP3    H146352   5.295   2.085  11.463  1.9659 -0.6579  2.5847
 8287TIP3    H246353   5.244   1.947  11.499  0.3466 -0.2281  2.0463
 8288TIP3   OH246354   2.849   0.506  14.816  0.4130  0.7526  0.2807
 8288TIP3    H146355   2.847   0.450  14.893 -1.8650 -0.2286 -0.3822
 8288TIP3    H246356   2.924   0.475  14.765 -0.4034 -1.3387  0.2404
 8289TIP3   OH246357   4.303   5.110  13.852  0.8908  0.2507  0.0190
 8289TIP3    H146358   4.283   5.202  13.832  0.1343  0.5077  1.7295
 8289TIP3    H246359   4.309   5.068  13.767 -1.5475  1.3287 -0.7974
 8290TIP3   OH246360   6.058   3.469   3.031  0.7116  0.2343 -0.3146
 8290TIP3    H146361   6.118   3.492   2.960  1.1838  0.5042  0.1660
 8290TIP3    H246362   6.026   3.553   3.063  0.0871  0.0922 -0.5501
 8291TIP3   OH246363   4.097   5.446   2.816 -0.6681  0.8033  0.4911
 8291TIP3    H146364   4.086   5.355   2.789 -1.4295  0.9679  0.2103
 8291TIP3    H246365   4.027   5.493   2.770 -0.5154  1.4713  0.9255
 8292TIP3   OH246366   1.374   0.450  10.935  0.2228  0.3027  0.2463
 8292TIP3    H146367   1.329   0.378  10.891  0.8769 -0.9840  1.6060
 8292TIP3    H246368   1.307   0.518  10.943 -0.5970 -0.3955 -0.4954
 8293TIP3   OH246369   2.384   6.008   5.535  0.1757 -0.6816  0.0986
 8293TIP3    H146370   2.349   6.095   5.516  0.0041 -0.9945 -1.1276
 8293TIP3    H246371   2.314   5.948   5.511 -0.0496 -1.1451  1.8042
 8294TIP3   OH246372   2.542   3.711  13.971 -0.5141  0.2366  0.0017
 8294TIP3    H146373   2.547   3.615  13.974 -2.2420  0.1213  0.4456
 8294TIP3    H246374   2.547   3.732  13.878 -0.6009 -0.3157 -0.1318
 8295TIP3   OH246375   3.020   0.303  14.990  0.4770 -1.0882 -0.3291
 8295TIP3    H146376   2.999   0.348  15.072 -0.5895 -0.8612 -0.7201
 8295TIP3    H246377   3.116   0.302  14.988  0.5285 -1.1688  0.9565
 8296TIP3   OH246378   2.925   1.290   1.456  0.2222 -0.3949  0.3818
 8296TIP3    H146379   2.948   1.382   1.470 -0.9890 -0.1159  0.6197
 8296TIP3    H246380   2.836   1.282   1.490  0.1734 -1.5728  0.0111
 8297TIP3   OH246381   3.872   2.718   0.343  0.4257 -0.3656 -0.4373
 8297TIP3    H146382   3.902   2.731   0.433  2.2639 -0.7790 -0.9605
 8297TIP3    H246383   3.926   2.646   0.309 -0.4069 -0.3892 -1.7925
 8298TIP3   OH246384   6.110   6.586  15.481 -0.0013 -0.4935 -0.6610
 8298TIP3    H146385   6.122   6.499  15.518 -0.4701  0.1304  1.0479
 8298TIP3    H246386   6.187   6.635  15.509 -0.2496 -0.0634 -0.7190
 8299TIP3   OH246387   4.245   3.517   2.870  0.0905 -0.6486 -0.5890
 8299TIP3    H146388   4.197   3.593   2.902 -0.3398 -0.3425 -1.8956
 8299TIP3    H246389   4.337   3.545   2.871 -0.0560 -0.1456 -0.9687
 8300TIP3   OH246390   2.017   1.293  15.785  0.4211 -0.2373  0.7726
 8300TIP3    H146391   2.062   1.348  15.849 -0.1352  1.9303 -0.5682
 8300TIP3    H246392   1.926   1.289  15.817 -0.0899  1.6686 -0.2928
 8301TIP3   OH246393   5.158   6.301   5.580  0.4651  0.0186  0.3080
 8301TIP3    H146394   5.167   6.375   5.640  1.2650 -0.3429  0.6487
 8301TIP3    H246395   5.172   6.224   5.635  1.0809 -0.3284 -0.3163
 8302TIP3   OH246396   5.274   3.475   6.680 -0.0256  0.2788  0.8142
 8302TIP3    H146397   5.323   3.392   6.682 -1.2615 -0.4792  0.7655
 8302TIP3    H246398   5.306   3.520   6.602 -0.8311 -1.1312 -0.3811
 8303TIP3   OH246399   3.476   2.366  12.466  0.2228 -0.0293 -0.0391
 8303TIP3    H146400   3.544   2.355  12.532 -0.4796 -0.6056  0.6139
 8303TIP3    H246401   3.519   2.411  12.394  1.0160  0.5745  0.7962
 8304TIP3   OH246402   1.468   3.686   5.925 -0.6042 -0.4075 -0.3407
 8304TIP3    H146403   1.460   3.593   5.903  0.5694 -0.9890  1.4471
 8304TIP3    H246404   1.558   3.695   5.957 -0.6760  1.3737 -0.5805
 8305TIP3   OH246405   2.083   5.605   6.636  0.4350 -0.3992  0.4256
 8305TIP3    H146406   2.085   5.638   6.546  0.1369 -0.8392  0.2580
 8305TIP3    H246407   2.100   5.683   6.690  2.5564 -0.4657 -0.0723
 8306TIP3   OH246408   0.587   6.780  14.625  0.0805  0.2324 -0.2493
 8306TIP3    H146409   0.508   6.730  14.643  0.2592 -0.1319 -0.4640
 8306TIP3    H246410   0.646   6.718  14.583  1.8200 -0.5485  2.9439
 8307TIP3   OH246411   5.532   1.228   6.060  0.0367  0.3835 -0.0721
 8307TIP3    H146412   5.556   1.320   6.048  2.0468 -0.3264 -2.3211
 8307TIP3    H246413   5.472   1.209   5.987  0.6417 -0.3840 -0.3818
 8308TIP3   OH246414   1.405   4.028  13.661 -0.3940  0.2687  0.1072
 8308TIP3    H146415   1.319   4.033  13.702 -1.0443 -0.1904 -1.1509
 8308TIP3    H246416   1.457   4.094  13.706 -1.4767  0.7270  0.7228
 8309TIP3   OH246417   0.352   2.829  16.710 -0.7585  0.0228  0.2105
 8309TIP3    H146418   0.375   2.764  16.644  1.4779 -2.1612  2.8617
 8309TIP3    H246419   0.389   2.911  16.678  1.0312 -1.1597 -0.8832
 8310TIP3   OH246420   6.794   3.405  15.580  0.4475  0.4903 -0.3435
 8310TIP3    H146421   6.751   3.488  15.602 -1.1346 -0.5534  0.7529
 8310TIP3    H246422   6.880   3.430  15.548 -1.6540  2.8848 -5.0429
 8311TIP3   OH246423   3.659   4.167   4.703  0.6375  0.2467  0.4188
 8311TIP3    H146424   3.633   4.131   4.618 -0.9878  1.5426  0.3304
 8311TIP3    H246425   3.722   4.103   4.738  0.0902 -1.1327 -1.0236
 8312TIP3   OH246426   1.718   0.528  14.203  0.7565 -0.1257 -0.0731
 8312TIP3    H146427   1.692   0.551  14.114  2.1116  0.1142 -0.4362
 8312TIP3    H246428   1.718   0.432  14.205 -0.7543 -0.1444  0.1510
 8313TIP3   OH246429   5.684   5.109  16.610 -1.0015  0.5458 -0.0065
 8313TIP3    H146430   5.665   5.177  16.674 -1.3111 -0.7768  1.3753
 8313TIP3    H246431   5.718   5.036  16.662 -0.3506 -0.2422 -1.4687
 8314TIP3   OH246432   0.673   6.173  16.954 -0.8772 -0.2107  0.2265
 8314TIP3    H146433   0.722   6.220  17.021 -1.4653 -0.0029  0.5215
 8314TIP3    H246434   0.717   6.197  16.872  0.3992 -1.1845  0.6005
 8315TIP3   OH246435   1.312   2.918  10.975 -0.3703  0.0212  0.1643
 8315TIP3    H146436   1.405   2.906  10.957 -0.4284  0.1019 -0.2090
 8315TIP3    H246437   1.309   2.977  11.051 -0.1250  1.1616 -0.6815
 8316TIP3   OH246438   3.086   2.183  17.174  0.5984  0.0065 -1.0965
 8316TIP3    H146439   3.150   2.254  17.173 -0.3010  0.8288 -1.5621
 8316TIP3    H246440   3.009   2.220  17.218 -0.4064 -0.1697 -2.6100
 8317TIP3   OH246441   6.486   1.167   5.747 -0.0316  0.0183 -0.0909
 8317TIP3    H146442   6.522   1.138   5.663  0.9809 -0.2023  0.3909
 8317TIP3    H246443   6.560   1.209   5.791 -0.5106  0.0229  0.7346
 8318TIP3   OH246444   0.336   4.671   4.886 -0.7824  0.3524  0.5420
 8318TIP3    H146445   0.266   4.736   4.893 -0.0555  1.1355  0.5401
 8318TIP3    H246446   0.394   4.690   4.959 -0.6466 -0.4090  0.6444
 8319TIP3   OH246447   5.591   6.664   5.580  0.1706 -0.4153 -0.4736
 8319TIP3    H146448   5.512   6.700   5.541  0.1313  0.0620  0.0402
 8319TIP3    H246449   5.647   6.740   5.597  0.8427 -0.7611 -1.0356
 8320TIP3   OH246450   0.307   0.276   1.537 -0.6947 -0.0350  0.5954
 8320TIP3    H146451   0.332   0.202   1.593  0.7812  1.8606  2.5885
 8320TIP3    H246452   0.390   0.312   1.507 -1.4227 -0.0316 -1.6549
 8321TIP3   OH246453   3.413   0.125   6.374 -0.5085 -0.0982  0.2566
 8321TIP3    H146454   3.467   0.199   6.344 -0.4322 -0.1825  0.1830
 8321TIP3    H246455   3.356   0.162   6.441 -2.7619  0.7899 -2.0043
 8322TIP3   OH246456   2.549   2.047   3.228  0.0793 -0.1080  0.1723
 8322TIP3    H146457   2.501   2.129   3.243 -0.4180 -0.7663  2.8926
 8322TIP3    H246458   2.639   2.068   3.251  0.0913 -0.1474  0.1600
 8323TIP3   OH246459   0.335   5.874   3.558 -0.1500  0.2938 -0.5282
 8323TIP3    H146460   0.316   5.934   3.629  1.1759 -0.2638  0.3321
 8323TIP3    H246461   0.282   5.906   3.484  1.0587  2.9624 -0.3369
 8324TIP3   OH246462   4.626   0.555   0.281 -0.4944 -0.5937  0.2324
 8324TIP3    H146463   4.694   0.622   0.281  0.0787 -1.1339 -1.6808
 8324TIP3    H246464   4.561   0.587   0.219 -0.5876 -1.4469 -0.1165
 8325TIP3   OH246465   1.162   3.598   0.543  0.1424 -0.2085  0.1627
 8325TIP3    H146466   1.100   3.614   0.471 -0.3214 -0.7289  0.4362
 8325TIP3    H246467   1.127   3.649   0.616 -0.8472 -1.7017  0.7739
 8326TIP3   OH246468   0.853   0.386  10.532  0.4309 -0.1283 -0.8433
 8326TIP3    H146469   0.796   0.339  10.470 -0.2757 -1.1284  0.5165
 8326TIP3    H246470   0.828   0.352  10.618  2.8913 -0.3784 -0.1682
 8327TIP3   OH246471   5.423   5.717   2.658  0.1594 -0.3815  0.4953
 8327TIP3    H146472   5.372   5.789   2.620  0.4442 -1.6970 -2.7232
 8327TIP3    H246473   5.358   5.659   2.697 -0.2653  0.5074  1.1504
 8328TIP3   OH246474   1.149   1.303  17.287 -0.6878  0.0660  0.5440
 8328TIP3    H146475   1.139   1.356  17.208  0.0446 -1.5159 -0.6635
 8328TIP3    H246476   1.230   1.334  17.327  0.8513 -1.3679 -1.2429
 8329TIP3   OH246477   5.195   3.602  13.293 -0.5552 -0.1921 -0.4517
 8329TIP3    H146478   5.250   3.672  13.258 -1.0316  0.1875 -0.4495
 8329TIP3    H246479   5.250   3.559  13.359 -1.3508  2.3172  2.0382
 8330TIP3   OH246480   4.341   5.036   2.204  0.5297  0.1182  0.2646
 8330TIP3    H146481   4.332   4.964   2.141 -0.6495 -0.7293  1.3299
 8330TIP3    H246482   4.434   5.039   2.224  0.6025 -1.1799  0.2392
 8331TIP3   OH246483   4.988   5.960  11.864 -0.7915  0.3299  0.4070
 8331TIP3    H146484   4.940   6.025  11.915  0.3955  0.1546  1.7836
 8331TIP3    H246485   5.079   5.986  11.870 -0.5467 -0.0102 -1.2108
 8332TIP3   OH246486   6.737   4.738   3.590  0.6359 -0.0456 -0.4348
 8332TIP3    H146487   6.712   4.720   3.500 -0.7595  0.7647 -0.2507
 8332TIP3    H246488   6.809   4.800   3.584 -0.4450  1.1959 -1.0148
 8333TIP3   OH246489   1.425   3.319  13.092  0.1938 -0.5371 -0.8357
 8333TIP3    H146490   1.372   3.393  13.061  0.6734 -0.1286 -0.6903
 8333TIP3    H246491   1.514   3.354  13.096  0.2062 -0.6608  0.6941
 8334TIP3   OH246492   2.477   1.692  14.616 -0.5482 -0.1461  0.2908
 8334TIP3    H146493   2.469   1.609  14.569  1.1075 -0.0653 -0.2027
 8334TIP3    H246494   2.556   1.682  14.669 -0.3607  1.0779  0.2800
 8335TIP3   OH246495   1.348   3.795   0.890  0.8250 -0.2708 -0.0282
 8335TIP3    H146496   1.373   3.842   0.811  1.2198  0.9237  0.7743
 8335TIP3    H246497   1.416   3.818   0.954 -0.2546 -0.0463  1.0762
 8336TIP3   OH246498   3.615   0.008  15.711 -0.3149 -0.1045  0.0888
 8336TIP3    H146499   3.616   0.103  15.720 -1.5134 -0.1356  0.7318
 8336TIP3    H246500   3.586  -0.024  15.796  1.5782 -1.1493  0.4084
 8337TIP3   OH246501   0.199   1.533   3.909  0.5562  0.3824  0.7731
 8337TIP3    H146502   0.226   1.593   3.840 -0.7124 -1.9023 -1.9389
 8337TIP3    H246503   0.124   1.575   3.950 -0.9020  0.3850 -1.6904
 8338TIP3   OH246504   1.762   0.446  12.268  0.1090 -0.0360 -0.1278
 8338TIP3    H146505   1.697   0.387  12.229  0.0693 -0.2659  0.2875
 8338TIP3    H246506   1.734   0.457  12.359 -0.4747  1.4569 -0.4518
 8339TIP3   OH246507   2.685   0.220  14.884 -0.3253 -0.0070 -0.0994
 8339TIP3    H146508   2.772   0.183  14.894 -0.3027  0.0009 -0.2655
 8339TIP3    H246509   2.688   0.267  14.801 -0.5544 -0.1990 -0.2199
 8340TIP3   OH246510   5.080   5.548  17.058  0.0814  0.3185 -0.0816
 8340TIP3    H146511   4.989   5.558  17.086 -1.4442 -2.2540 -3.3175
 8340TIP3    H246512   5.112   5.474  17.109 -1.1946 -1.5055 -1.7528
 8341TIP3   OH246513   5.125   2.152  11.774 -0.1469 -0.3417 -0.7929
 8341TIP3    H146514   5.135   2.247  11.771  0.9835 -0.4156 -0.1056
 8341TIP3    H246515   5.181   2.119  11.704  1.4167 -0.5781  0.4921
 8342TIP3   OH246516   1.218   0.687  13.796 -0.8459  0.1778  0.2751
 8342TIP3    H146517   1.292   0.672  13.736 -1.3545  0.3180 -0.3970
 8342TIP3    H246518   1.178   0.601  13.806 -0.7205  0.1411  0.4784
 8343TIP3   OH246519   3.860   0.179   6.185 -0.6456  0.2288 -0.1192
 8343TIP3    H146520   3.943   0.175   6.138 -0.7484  1.7266 -0.4786
 8343TIP3    H246521   3.866   0.110   6.252  0.8952  0.3441 -0.1148
 8344TIP3   OH246522   5.925   0.873   2.950 -0.5158  0.3105 -0.0033
 8344TIP3    H146523   5.893   0.838   3.033 -2.0041  2.0357  0.2269
 8344TIP3    H246524   5.934   0.797   2.893  1.5519 -1.0615  1.9955
 8345TIP3   OH246525   2.251   4.223  15.515  0.2117 -0.1275 -0.1133
 8345TIP3    H146526   2.315   4.153  15.530 -1.2549 -1.2867  1.1784
 8345TIP3    H246527   2.178   4.179  15.472 -1.0146  0.4231  1.3120
 8346TIP3   OH246528   4.136   1.665   1.404 -0.3455  0.3324  0.1398
 8346TIP3    H146529   4.174   1.659   1.316  2.6042 -0.4564  1.3247
 8346TIP3    H246530   4.143   1.758   1.426  2.4920  0.0558  0.8367
 8347TIP3   OH246531   2.253   5.030  11.705  0.0495 -0.5740 -0.0977
 8347TIP3    H146532   2.294   5.065  11.784  0.7164 -0.3104 -0.5541
 8347TIP3    H246533   2.229   5.108  11.655 -1.2273 -0.7164  0.2647
 8348TIP3   OH246534   5.632   2.312   2.113  0.3582 -0.0942  0.4609
 8348TIP3    H146535   5.565   2.256   2.150 -0.0068  1.2071  1.8565
 8348TIP3    H246536   5.595   2.400   2.117  1.0186  0.3236 -1.4238
 8349TIP3   OH246537   5.192   0.666  15.199  0.0763  0.1713  0.3358
 8349TIP3    H146538   5.149   0.734  15.250  1.2170  0.4289  0.9796
 8349TIP3    H246539   5.250   0.714  15.139 -1.1649 -0.1245 -1.1837
 8350TIP3   OH246540   1.682   2.784  15.534  0.5624 -0.0848  0.0631
 8350TIP3    H146541   1.754   2.848  15.542  0.8480 -0.5911  2.1117
 8350TIP3    H246542   1.685   2.735  15.616  0.1933 -2.6013 -1.3308
 8351TIP3   OH246543   3.696   1.466  16.475 -0.4172  0.0607 -0.1512
 8351TIP3    H146544   3.660   1.472  16.386 -0.4985 -1.2491 -0.2183
 8351TIP3    H246545   3.649   1.394  16.516  1.0105 -0.6701  0.2788
 8352TIP3   OH246546   1.767   6.673   3.198  0.0763 -0.0129  0.3919
 8352TIP3    H146547   1.847   6.720   3.224  0.3932  0.2314 -0.9251
 8352TIP3    H246548   1.731   6.725   3.127  0.3140 -1.6027 -0.9716
 8353TIP3   OH246549   5.415   4.692   0.970  0.1468  0.3158 -0.1533
 8353TIP3    H146550   5.391   4.617   1.025  1.0794 -2.1388 -2.7999
 8353TIP3    H246551   5.475   4.743   1.023  0.7433 -1.7352  1.2685
 8354TIP3   OH246552   1.135   3.308  17.369 -0.4807  0.7360 -0.7396
 8354TIP3    H146553   1.122   3.237  17.307 -0.8929  0.1729 -0.0251
 8354TIP3    H246554   1.185   3.268  17.441  0.4161  1.4943 -0.9123
 8355TIP3   OH246555   0.397   5.687  17.011 -0.4189 -0.1942  0.3034
 8355TIP3    H146556   0.328   5.636  17.054  0.2556 -0.4243  1.1378
 8355TIP3    H246557   0.404   5.767  17.063 -1.5788  0.8947 -1.0867
 8356TIP3   OH246558   5.720   4.072   0.945  0.1042  0.4881  0.1206
 8356TIP3    H146559   5.720   3.996   0.887  0.2352 -0.4245  1.2742
 8356TIP3    H246560   5.799   4.061   0.999 -0.4248  0.8935  0.9969
 8357TIP3   OH246561   1.426   6.149  16.723 -0.1897 -0.3680 -0.6273
 8357TIP3    H146562   1.510   6.107  16.742 -0.3001 -1.1672 -1.7849
 8357TIP3    H246563   1.381   6.151  16.807  1.1240  0.4089  0.0783
 8358TIP3   OH246564   5.777   3.365  15.132 -0.3735 -0.7136  0.2687
 8358TIP3    H146565   5.759   3.434  15.068  0.6379 -2.7912 -2.4408
 8358TIP3    H246566   5.690   3.337  15.162 -0.8790  0.2207 -0.2724
 8359TIP3   OH246567   0.434   2.806   4.261 -0.1799 -0.0735 -0.4724
 8359TIP3    H146568   0.519   2.829   4.298 -0.8952  0.7493  0.7262
 8359TIP3    H246569   0.454   2.765   4.177  1.3570  0.7231 -0.5152
 8360TIP3   OH246570   2.506   0.471   0.467 -0.6073  0.3634  0.3758
 8360TIP3    H146571   2.518   0.487   0.373  0.6440 -2.5500 -0.0447
 8360TIP3    H246572   2.584   0.423   0.494 -1.9882 -0.9319  2.3604
 8361TIP3   OH246573   1.858   4.300   0.416 -0.0940 -0.4609 -0.5898
 8361TIP3    H146574   1.896   4.335   0.496 -0.4302  3.3994 -1.9169
 8361TIP3    H246575   1.927   4.311   0.350 -1.3350  0.7949 -1.7318
 8362TIP3   OH246576   4.827   5.809   2.425  0.0038  0.4386  0.3595
 8362TIP3    H146577   4.789   5.757   2.496  1.1299 -0.1617  0.5479
 8362TIP3    H246578   4.863   5.745   2.364 -0.7573  0.9525 -0.6616
 8363TIP3   OH246579   5.387   2.161   5.099 -0.2661  0.3989  0.1772
 8363TIP3    H146580   5.357   2.246   5.130  0.3334  1.0907 -1.0879
 8363TIP3    H246581   5.457   2.181   5.037  0.6073 -1.0590  0.6438
 8364TIP3   OH246582   6.221   1.322  15.605  0.0876  0.2257  0.0739
 8364TIP3    H146583   6.222   1.227  15.619 -1.0461 -0.2844 -2.6697
 8364TIP3    H246584   6.265   1.334  15.521  0.4728  2.1916  0.5183
 8365TIP3   OH246585   6.506   3.030   4.899  0.0547  0.1995 -0.1263
 8365TIP3    H146586   6.430   2.990   4.855  0.3825 -0.6275  0.0351
 8365TIP3    H246587   6.472   3.059   4.984  0.0557 -0.7497  0.2067
 8366TIP3   OH246588   5.976   0.922   5.271 -0.2171 -0.1561 -0.7079
 8366TIP3    H146589   5.997   0.828   5.266 -1.8593 -0.5093 -1.6265
 8366TIP3    H246590   5.958   0.947   5.181 -0.4788  0.8908 -0.3682
 8367TIP3   OH246591   4.356   1.032  13.801  0.2819  0.0272  0.9285
 8367TIP3    H146592   4.350   0.954  13.856  1.6148 -2.4694 -2.1299
 8367TIP3    H246593   4.447   1.032  13.771  0.6022  3.4024  1.5286
 8368TIP3   OH246594   3.462   2.102   0.234 -0.1143  0.2788 -0.3172
 8368TIP3    H146595   3.540   2.062   0.273  0.3153  1.9341  0.5813
 8368TIP3    H246596   3.496   2.168   0.174 -0.8163  0.7246 -0.2367
 8369TIP3   OH246597   2.222   0.871  16.230  0.1036 -0.1075 -0.5275
 8369TIP3    H146598   2.288   0.940  16.236  0.5701 -0.5924  0.1208
 8369TIP3    H246599   2.263   0.804  16.174 -0.7561  0.5752 -2.0180
 8370TIP3   OH246600   0.803   5.965  13.268 -0.0650 -0.0022 -0.0470
 8370TIP3    H146601   0.708   5.977  13.258 -0.1110 -1.3610 -1.9886
 8370TIP3    H246602   0.838   5.984  13.181  1.4732  0.4810  0.6432
 8371TIP3   OH246603   2.721   4.282  11.671 -0.3339 -0.3548  0.4280
 8371TIP3    H146604   2.669   4.362  11.666 -0.4994 -0.5036 -0.3025
 8371TIP3    H246605   2.667   4.215  11.629  0.0203 -0.7356  0.5682
 8372TIP3   OH246606   3.349   1.543  12.139 -0.3412 -0.0978  0.3646
 8372TIP3    H146607   3.263   1.517  12.172 -0.0417  0.5010  1.7037
 8372TIP3    H246608   3.339   1.634  12.113 -0.0584  0.0574  0.7820
 8373TIP3   OH246609   4.325   0.724  13.163  0.0145 -0.1706  0.1240
 8373TIP3    H146610   4.271   0.772  13.226  0.3936  0.3172  0.0856
 8373TIP3    H246611   4.296   0.757  13.078 -0.8711 -1.2173  0.0006
 8374TIP3   OH246612   0.035   1.155  11.667 -0.2652  0.4269  0.3688
 8374TIP3    H146613   0.079   1.237  11.644  0.1922 -0.0704 -0.6130
 8374TIP3    H246614  -0.007   1.173  11.751  0.9253  1.2531  0.8187
 8375TIP3   OH246615   0.351   5.029  13.607  0.1055 -0.0948  0.5893
 8375TIP3    H146616   0.353   5.112  13.656 -1.5624 -0.2075  0.8958
 8375TIP3    H246617   0.373   4.963  13.673  0.3528 -0.0088  0.5954
 8376TIP3   OH246618   4.603   1.307  13.201 -0.2764 -0.2034 -0.1883
 8376TIP3    H146619   4.658   1.238  13.238 -0.0258 -0.0957 -0.3539
 8376TIP3    H246620   4.570   1.356  13.277 -0.8981 -0.8368 -0.0424
 8377TIP3   OH246621   5.439   0.206   2.379 -0.3318 -0.1794 -0.7438
 8377TIP3    H146622   5.428   0.152   2.300  0.5742 -0.4964 -0.6660
 8377TIP3    H246623   5.355   0.251   2.389 -0.8686 -1.0465 -1.2079
 8378TIP3   OH246624   6.227   0.182  11.159  0.2196  0.3241  0.1348
 8378TIP3    H146625   6.254   0.245  11.226  0.4960 -0.4249  0.7359
 8378TIP3    H246626   6.204   0.236  11.083 -0.6891  1.2143  1.0242
 8379TIP3   OH246627   5.904   0.393  14.201 -0.5380 -0.4424 -0.0872
 8379TIP3    H146628   5.969   0.449  14.243 -1.9671  1.8414 -0.6968
 8379TIP3    H246629   5.936   0.382  14.111 -1.3383  1.4459 -0.6607
 8380TIP3   OH246630   4.209   2.681   5.046 -0.2988 -0.0416  0.4959
 8380TIP3    H146631   4.230   2.604   5.099  1.6907  0.8285  1.1008
 8380TIP3    H246632   4.180   2.746   5.109  0.1448  0.3745  0.2776
 8381TIP3   OH246633   4.114   4.160   0.370  0.1810  0.4521  0.0772
 8381TIP3    H146634   4.177   4.149   0.299  0.4569  0.3874  0.3281
 8381TIP3    H246635   4.132   4.247   0.406  1.2200 -0.1995  1.1918
 8382TIP3   OH246636   5.696   4.935   1.060  0.6812  0.4531  0.3170
 8382TIP3    H146637   5.786   4.920   1.089  0.7247  1.6443  0.8531
 8382TIP3    H246638   5.690   4.889   0.977  1.7746  0.3049  0.3033
 8383TIP3   OH246639   2.295   2.221   5.957 -0.1651 -0.0080 -0.1015
 8383TIP3    H146640   2.270   2.241   6.047 -0.3559 -0.4890 -0.0453
 8383TIP3    H246641   2.215   2.191   5.915  0.3910 -2.1387  0.2504
 8384TIP3   OH246642   3.092   4.309  17.415 -0.2915 -0.8190  0.5660
 8384TIP3    H146643   3.021   4.369  17.438 -0.3495  0.0443 -1.5973
 8384TIP3    H246644   3.061   4.224  17.444 -1.5614 -0.2462  0.9907
 8385TIP3   OH246645   0.568   0.182  11.500 -0.8170  0.7961  0.2703
 8385TIP3    H146646   0.653   0.211  11.465 -0.6673 -1.0471 -1.0553
 8385TIP3    H246647   0.584   0.168  11.593  0.3181  0.5771  0.0649
 8386TIP3   OH246648   5.498   1.354  11.912 -0.1209  0.2823  0.1284
 8386TIP3    H146649   5.426   1.292  11.910  0.1960 -0.0861  0.0739
 8386TIP3    H246650   5.489   1.405  11.831  0.2310 -0.3943 -0.3470
 8387TIP3   OH246651   0.215   4.516  13.512  0.0354 -0.3201 -0.6526
 8387TIP3    H146652   0.308   4.540  13.516  0.4400 -1.8689  1.6927
 8387TIP3    H246653   0.169   4.592  13.548  0.5100  0.0485 -0.8094
 8388TIP3   OH246654   5.166   2.535  11.822  0.6110  0.4219 -0.0295
 8388TIP3    H146655   5.216   2.589  11.762  0.1116  2.3440  1.1716
 8388TIP3    H246656   5.076   2.569  11.815  0.2007 -0.5326  0.4576
 8389TIP3   OH246657   0.136   1.694  16.669  0.2732 -0.0047 -0.4923
 8389TIP3    H146658   0.081   1.616  16.669  2.5896 -1.7519 -0.9514
 8389TIP3    H246659   0.081   1.762  16.632 -1.9945 -1.2743  0.3547
 8390TIP3   OH246660   3.195   6.453   4.932  0.1921  0.5139  0.2136
 8390TIP3    H146661   3.116   6.447   4.986  0.6412  1.0921  0.9600
 8390TIP3    H246662   3.265   6.422   4.990  0.4560 -0.4361 -0.5923
 8391TIP3   OH246663   4.507   2.800   1.567  0.3593 -0.0650 -0.3742
 8391TIP3    H146664   4.601   2.813   1.574  0.5221 -0.3832 -1.7417
 8391TIP3    H246665   4.487   2.813   1.474 -0.8356 -0.6505 -0.2231
 8392TIP3   OH246666   2.090   4.677   0.333  0.6936  0.1037  0.0619
 8392TIP3    H146667   2.031   4.741   0.373  0.2549 -0.2629  0.0150
 8392TIP3    H246668   2.053   4.661   0.246  0.8406 -0.1515  0.0451
 8393TIP3   OH246669   0.763   2.752   4.304  0.4686  0.0497  0.4570
 8393TIP3    H146670   0.738   2.793   4.387 -0.1380 -0.6358  0.6252
 8393TIP3    H246671   0.810   2.673   4.329 -1.0871 -1.0075  0.1990
 8394TIP3   OH246672   0.994   4.871   4.213 -0.0519 -0.0844  0.3803
 8394TIP3    H146673   1.019   4.957   4.177 -0.3409 -0.0468  0.2588
 8394TIP3    H246674   0.936   4.834   4.146  2.1115 -1.5120 -0.7929
 8395TIP3   OH246675   4.003   5.554  16.174 -0.0295 -0.1438 -0.2322
 8395TIP3    H146676   3.963   5.554  16.087 -1.1689  1.4964  0.2703
 8395TIP3    H246677   4.001   5.645  16.202 -0.3978 -0.7530  1.8581
 8396TIP3   OH246678   5.086   0.829  15.397 -0.4113  0.0328 -0.6303
 8396TIP3    H146679   5.125   0.868  15.475  0.5778 -0.6970 -0.7421
 8396TIP3    H246680   5.017   0.772  15.431 -1.2204  1.1032 -0.4151
 8397TIP3   OH246681   5.937   6.386  15.126 -0.2961 -0.5856 -0.0070
 8397TIP3    H146682   5.979   6.372  15.041 -0.5743  0.8062 -0.4151
 8397TIP3    H246683   5.935   6.482  15.136 -2.5799 -0.6104  0.3737
 8398TIP3   OH246684   3.481   5.427   1.843  0.2175  0.0792  0.4057
 8398TIP3    H146685   3.410   5.365   1.863 -0.0942  0.0749 -0.6807
 8398TIP3    H246686   3.520   5.393   1.763 -0.2178  1.5138 -0.4350
 8399TIP3   OH246687   4.197   0.803  11.925 -0.6409  0.0072  0.0230
 8399TIP3    H146688   4.195   0.714  11.888  0.8471  0.7633 -2.0776
 8399TIP3    H246689   4.107   0.820  11.951 -1.2731 -1.5434 -0.9924
 8400TIP3   OH246690   5.620   5.150   1.636  0.2290  0.0289 -0.4101
 8400TIP3    H146691   5.633   5.144   1.542  2.1387 -1.3727 -0.1026
 8400TIP3    H246692   5.536   5.106   1.651 -0.5622  1.0928 -1.5101
 8401TIP3   OH246693   1.708   1.057   1.892  0.1423  0.6898  0.3399
 8401TIP3    H146694   1.782   1.101   1.850  0.9678  2.0018  2.9840
 8401TIP3    H246695   1.637   1.064   1.828  1.9576  0.3523 -1.8377
 8402TIP3   OH246696   2.936   1.080   4.742  0.3036 -0.3403  0.3620
 8402TIP3    H146697   2.931   1.166   4.784 -2.8748 -0.9757  1.5755
 8402TIP3    H246698   2.885   1.089   4.662 -1.9808 -1.5588  1.5958
 8403TIP3   OH246699   1.333   0.975  11.774  0.5590  0.0306  0.3819
 8403TIP3    H146700   1.300   0.894  11.812  0.5466  0.2635  0.8793
 8403TIP3    H246701   1.410   0.949  11.723 -0.7946 -0.6392 -1.4193
 8404TIP3   OH246702   6.760   0.022   0.101 -0.3354 -0.3136  0.3802
 8404TIP3    H146703   6.780   0.116   0.094 -1.1617  0.1186  2.9857
 8404TIP3    H246704   6.680   0.012   0.049  0.4054  0.1268 -0.9195
 8405TIP3   OH246705   4.224   0.395  16.296 -0.3462 -0.8640  0.0732
 8405TIP3    H146706   4.295   0.330  16.302 -0.7611 -1.3180  0.1324
 8405TIP3    H246707   4.248   0.462  16.360 -0.5253 -1.5606  0.8888
 8406TIP3   OH246708   6.002   2.149  17.086 -0.4020  0.1213 -0.2741
 8406TIP3    H146709   6.051   2.214  17.036 -2.8290  1.2764 -1.3274
 8406TIP3    H246710   6.028   2.065  17.048 -0.1894  0.7904 -1.6685
 8407TIP3   OH246711   5.996   6.576  12.123 -0.3789 -0.5357  0.1649
 8407TIP3    H146712   6.010   6.640  12.053  0.6012  1.5894  2.1619
 8407TIP3    H246713   5.909   6.595  12.156 -1.0682 -1.9088 -0.7553
 8408TIP3   OH246714   3.063   4.843  16.291  0.3021  0.3515  0.3912
 8408TIP3    H146715   3.087   4.935  16.280 -0.7464  0.8214  1.7318
 8408TIP3    H246716   3.085   4.824  16.383  0.3767 -0.7041  0.1697
 8409TIP3   OH246717   5.137   6.254   4.094  0.6955  0.0632 -0.3706
 8409TIP3    H146718   5.225   6.278   4.063 -0.1863  2.0853 -1.4726
 8409TIP3    H246719   5.078   6.303   4.037 -1.1328 -0.3433  1.1145
 8410TIP3   OH246720   5.731   5.729   3.811  0.4479 -0.2460 -0.3982
 8410TIP3    H146721   5.699   5.767   3.729 -0.5978 -0.6945 -0.2138
 8410TIP3    H246722   5.708   5.636   3.804  0.1487 -0.2459  0.5036
 8411TIP3   OH246723   6.668   0.284   0.212 -0.2919 -0.2803  0.3991
 8411TIP3    H146724   6.712   0.357   0.167 -0.5444 -0.2501  0.2009
 8411TIP3    H246725   6.578   0.315   0.225 -0.9806 -1.3625 -1.5430
 8412TIP3   OH246726   4.090   1.127  14.129 -0.7840 -0.0238 -0.0580
 8412TIP3    H146727   4.063   1.096  14.043 -0.5656  0.2681 -0.2348
 8412TIP3    H246728   4.145   1.203  14.111  0.1890 -0.6189  0.2752
 8413TIP3   OH246729   4.778   5.884  11.152 -0.3473  0.0969  0.3709
 8413TIP3    H146730   4.776   5.970  11.195 -1.6406 -0.8385  2.3580
 8413TIP3    H246731   4.686   5.863  11.138 -0.1140 -1.4275  0.9440
 8414TIP3   OH246732   6.646   4.274   4.622  0.0926 -0.0763 -0.3423
 8414TIP3    H146733   6.652   4.363   4.655 -0.0318  0.4100 -1.5911
 8414TIP3    H246734   6.735   4.240   4.627  0.2670  0.3528 -0.4901
 8415TIP3   OH246735   1.048   5.240  14.883 -0.6833  0.2421 -0.2957
 8415TIP3    H146736   1.136   5.257  14.915 -0.1682 -1.5648 -0.6156
 8415TIP3    H246737   1.051   5.263  14.790 -0.5156  0.1337 -0.3191
 8416TIP3   OH246738   3.730   3.359  14.798  0.2693  0.4267  0.0843
 8416TIP3    H146739   3.764   3.398  14.879  1.1265 -1.3207  0.6181
 8416TIP3    H246740   3.638   3.385  14.796 -0.1003 -0.4992  2.2855
 8417TIP3   OH246741   3.993   2.803  12.804  0.6637  0.6315 -0.2554
 8417TIP3    H146742   3.923   2.864  12.826  2.1811  3.0794 -1.7914
 8417TIP3    H246743   4.020   2.766  12.888 -2.0600 -0.0417  0.4239
 8418TIP3   OH246744   6.375   0.602  15.315  0.1654  0.2103  0.9907
 8418TIP3    H146745   6.410   0.677  15.268 -0.2093  0.5800  1.2913
 8418TIP3    H246746   6.285   0.593  15.284 -0.1173  0.5191  1.6919
 8419TIP3   OH246747   6.136   1.936   3.300 -0.0377  0.1030 -0.8689
 8419TIP3    H146748   6.175   1.900   3.220 -0.8216 -1.1807 -0.6974
 8419TIP3    H246749   6.046   1.905   3.299 -0.2953  0.7869  0.0891
 8420TIP3   OH246750   2.014   4.485  16.836 -0.8927  0.4497 -0.2080
 8420TIP3    H146751   2.104   4.471  16.866 -1.2961 -2.4072 -0.0398
 8420TIP3    H246752   1.960   4.456  16.909 -1.9533  0.9299 -0.7837
 8421TIP3   OH246753   4.432   2.153   4.967  0.2386 -0.2941  0.3657
 8421TIP3    H146754   4.352   2.160   4.915  0.3422  0.4131  0.3013
 8421TIP3    H246755   4.483   2.230   4.945  1.4378 -1.2695 -0.3946
 8422TIP3   OH246756   0.127   0.981  13.134 -0.1208  0.2522  0.0619
 8422TIP3    H146757   0.094   0.898  13.169 -1.1040 -0.7345 -2.8900
 8422TIP3    H246758   0.218   0.984  13.164  0.6389 -3.0537 -1.3922
 8423TIP3   OH246759   5.070   4.999  10.998  0.4435 -0.4254 -0.1981
 8423TIP3    H146760   5.089   4.906  11.011 -0.5330 -0.7360 -0.8488
 8423TIP3    H246761   4.975   5.006  11.008  0.4812  0.4711 -0.3325
 8424TIP3   OH246762   2.272   6.198   0.305 -0.0657 -0.4180  0.3385
 8424TIP3    H146763   2.274   6.246   0.388  0.8913  1.9144 -0.9581
 8424TIP3    H246764   2.183   6.212   0.272 -0.3329 -1.0361  0.7928
 8425TIP3   OH246765   6.307   5.704  16.522 -0.0084 -0.6917 -0.5689
 8425TIP3    H146766   6.218   5.728  16.548 -0.4001 -2.5087 -0.1410
 8425TIP3    H246767   6.333   5.774  16.462 -1.8950 -0.3694 -1.0872
 8426TIP3   OH246768   1.208   2.608  16.267 -0.0935  0.3368 -0.3285
 8426TIP3    H146769   1.124   2.607  16.313 -0.8415  1.1665 -1.6219
 8426TIP3    H246770   1.263   2.668  16.318 -0.1458 -0.4745  0.7168
 8427TIP3   OH246771   4.890   3.274  12.327  0.1753 -0.1285 -0.2513
 8427TIP3    H146772   4.971   3.286  12.375  0.6039  0.0906 -1.0088
 8427TIP3    H246773   4.824   3.322  12.377  0.2321 -1.3124  1.0465
 8428TIP3   OH246774   3.767   3.194  13.230 -0.2213 -0.0516 -0.9864
 8428TIP3    H146775   3.754   3.280  13.270 -2.9438 -0.9499  0.3382
 8428TIP3    H246776   3.706   3.193  13.156  0.3970 -0.5667 -1.4993
 8429TIP3   OH246777   6.067   0.393  12.806  0.8580 -0.3305  0.0459
 8429TIP3    H146778   6.006   0.372  12.876 -1.2686 -0.4680 -1.7482
 8429TIP3    H246779   6.025   0.465  12.758  3.1400  1.0759 -0.0088
 8430TIP3   OH246780   6.366   1.755   5.699 -0.1167 -0.2949  0.0982
 8430TIP3    H146781   6.364   1.749   5.603  1.9599  3.4776 -0.3629
 8430TIP3    H246782   6.273   1.754   5.724 -0.8853  1.3688 -2.2853
 8431TIP3   OH246783   3.472   4.861   3.033  0.1776 -0.3892 -0.3643
 8431TIP3    H146784   3.559   4.883   3.065 -0.1857  1.1937 -0.3875
 8431TIP3    H246785   3.468   4.766   3.039  1.9205 -0.5102 -0.4086
 8432TIP3   OH246786   4.311   0.354  16.679 -0.3425 -0.3463  0.2582
 8432TIP3    H146787   4.345   0.411  16.611 -1.2033  0.0346  0.1399
 8432TIP3    H246788   4.267   0.283  16.632  0.3226 -0.8649  0.4086
 8433TIP3   OH246789   2.449   3.788  15.474 -0.1503 -0.1574  0.3072
 8433TIP3    H146790   2.418   3.747  15.554  0.5036  1.8016  1.6219
 8433TIP3    H246791   2.389   3.757  15.406 -1.3939 -0.9931  1.7345
 8434TIP3   OH246792   6.555   4.687  13.164  0.2665  0.0699  0.1261
 8434TIP3    H146793   6.459   4.685  13.167  0.1591 -0.0428 -1.9692
 8434TIP3    H246794   6.576   4.702  13.072  2.2881 -0.7296  0.4059
 8435TIP3   OH246795   3.435   0.906   2.822  0.0892 -0.3075 -0.5011
 8435TIP3    H146796   3.360   0.866   2.865  0.3876 -0.3507 -0.0124
 8435TIP3    H246797   3.502   0.912   2.890  0.9364 -1.3230 -1.1931
 8436TIP3   OH246798   4.311   4.142   0.904 -0.1794 -0.5636  0.1721
 8436TIP3    H146799   4.266   4.124   0.986 -1.3148 -0.6837 -0.4587
 8436TIP3    H246800   4.252   4.109   0.836 -0.2922  1.5012 -0.8103
 8437TIP3   OH246801   5.895   5.525   3.569 -0.5330 -0.1933 -0.2082
 8437TIP3    H146802   5.833   5.591   3.598 -2.0550 -1.9229  0.7305
 8437TIP3    H246803   5.917   5.550   3.479 -1.8398  1.0085 -0.2263
 8438TIP3   OH246804   0.637   4.497  13.041  0.5729  0.2524 -0.5109
 8438TIP3    H146805   0.592   4.413  13.056  2.1499 -0.3163  1.4977
 8438TIP3    H246806   0.630   4.511  12.946  0.2731 -2.1627 -0.9123
 8439TIP3   OH246807   0.986   0.139   1.393  0.3427 -0.1933  0.5728
 8439TIP3    H146808   0.915   0.112   1.451 -1.1196 -0.2913 -1.1810
 8439TIP3    H246809   1.036   0.060   1.377 -1.1583 -0.9411 -0.7870
 8440TIP3   OH246810   5.486   6.261   4.720  0.2750  0.3346  0.8302
 8440TIP3    H146811   5.503   6.173   4.687 -1.6828  0.0307  0.5018
 8440TIP3    H246812   5.411   6.291   4.669  2.0067  2.9516 -0.3481
 8441TIP3   OH246813   3.100   1.837  14.855 -0.9812 -0.3323 -0.1015
 8441TIP3    H146814   3.137   1.889  14.784 -0.9930 -1.0741 -0.6621
 8441TIP3    H246815   3.024   1.887  14.884 -1.1305 -0.1501 -0.7876
 8442TIP3   OH246816   3.263   2.143   1.231  0.5125  0.6593  0.0652
 8442TIP3    H146817   3.190   2.126   1.171 -0.9865  1.7155  1.4933
 8442TIP3    H246818   3.342   2.132   1.178 -0.6575 -0.8829 -1.4526
 8443TIP3   OH246819   5.227   5.244   5.174  0.0411  0.2573  0.7686
 8443TIP3    H146820   5.270   5.168   5.214 -1.4504 -1.2708 -0.3728
 8443TIP3    H246821   5.279   5.319   5.202  1.5824 -1.1816  1.9445
 8444TIP3   OH246822   1.707   1.584  13.718  0.8885  0.2620  0.1194
 8444TIP3    H146823   1.648   1.528  13.767  0.0350  0.0322 -1.1192
 8444TIP3    H246824   1.661   1.600  13.635  1.7224  1.6507 -0.1039
 8445TIP3   OH246825   0.005   3.173   2.103 -0.2121 -0.4451 -0.5247
 8445TIP3    H146826   0.029   3.088   2.068 -0.8152 -0.9613  0.2948
 8445TIP3    H246827   0.076   3.196   2.162  0.4792  0.1247 -1.5472
 8446TIP3   OH246828   0.404   5.765  13.867 -0.2941  0.3582 -0.2436
 8446TIP3    H146829   0.486   5.804  13.895  0.1049 -0.7718  0.2195
 8446TIP3    H246830   0.429   5.703  13.798 -0.7172 -0.2166  0.1115
 8447TIP3   OH246831   2.792   5.329  16.480  0.1855  0.5766 -0.4022
 8447TIP3    H146832   2.702   5.294  16.479  0.4037  0.0045 -1.1789
 8447TIP3    H246833   2.803   5.369  16.394  0.8242  0.2349 -0.4856
 8448TIP3   OH246834   1.184   1.059   4.548 -0.1352  0.1770  0.1663
 8448TIP3    H146835   1.150   1.016   4.470 -1.3625  0.6188  0.4382
 8448TIP3    H246836   1.150   1.148   4.543  2.4846  1.2577 -0.4794
 8449TIP3   OH246837   4.546   1.360  13.476 -0.6324 -0.2415  0.5155
 8449TIP3    H146838   4.577   1.447  13.502 -0.4484 -0.2833  0.4328
 8449TIP3    H246839   4.454   1.374  13.452 -0.2749  0.1809 -0.7126
 8450TIP3   OH246840   3.765   3.228  17.309  0.2611  0.5246 -0.1219
 8450TIP3    H146841   3.718   3.297  17.357 -0.6183 -0.4710  0.4934
 8450TIP3    H246842   3.726   3.147  17.340  1.5564 -0.2875 -0.5329
 8451TIP3   OH246843   1.554   3.744   3.089 -0.9855  0.5940  0.3939
 8451TIP3    H146844   1.631   3.785   3.129 -0.8830 -0.4375  1.3104
 8451TIP3    H246845   1.560   3.768   2.997  0.5442  0.4047  0.4088
 8452TIP3   OH246846   5.269   4.414   3.006 -0.4589  0.5128  0.3520
 8452TIP3    H146847   5.253   4.508   3.017 -0.3738  0.4833  0.7698
 8452TIP3    H246848   5.346   4.409   2.950 -1.5530  0.6665 -1.2261
 8453TIP3   OH246849   2.322   2.626  15.147  0.4083  0.1393 -0.2484
 8453TIP3    H146850   2.264   2.596  15.077 -0.3833  1.1999 -0.0816
 8453TIP3    H246851   2.408   2.631  15.107  0.5115 -1.9440 -0.3728
 8454TIP3   OH246852   0.344   3.284  16.371 -0.7010 -0.5948 -0.2751
 8454TIP3    H146853   0.316   3.224  16.301 -1.4343 -1.3943  0.6784
 8454TIP3    H246854   0.437   3.298  16.354 -0.5427 -1.8949 -0.6255
 8455TIP3   OH246855   4.748   3.535   0.531 -0.2491 -0.4146 -0.0933
 8455TIP3    H146856   4.694   3.577   0.598  1.1667 -1.3890  1.7479
 8455TIP3    H246857   4.738   3.591   0.454 -0.8401  1.5508  1.3349
 8456TIP3   OH246858   4.609   0.255  16.048  0.1777  0.2788 -0.1567
 8456TIP3    H146859   4.580   0.203  16.123  0.0470  0.7253  0.1065
 8456TIP3    H246860   4.669   0.197  16.001 -2.5693 -1.4106 -1.7939
 8457TIP3   OH246861   0.453   1.141   2.303 -0.1722  0.6851  0.0477
 8457TIP3    H146862   0.476   1.135   2.210  0.0816  1.1135  0.0837
 8457TIP3    H246863   0.358   1.127   2.304 -0.2848  1.3514 -0.3546
 8458TIP3   OH246864   6.033   0.929  10.609 -0.3761 -0.0625 -0.0135
 8458TIP3    H146865   6.046   1.020  10.584 -2.2622 -0.2051 -1.7629
 8458TIP3    H246866   6.119   0.900  10.642  0.3202  2.2257  0.3192
 8459TIP3   OH246867   3.085   2.683   2.086  0.6560  0.2904 -0.2695
 8459TIP3    H146868   3.111   2.632   2.009  1.1822  1.5220 -0.9245
 8459TIP3    H246869   3.157   2.745   2.099 -0.1309  1.1012  0.2995
 8460TIP3   OH246870   4.358   2.861   2.370  0.0754 -0.2880 -0.2536
 8460TIP3    H146871   4.273   2.904   2.359  0.9132  1.4435 -0.2972
 8460TIP3    H246872   4.363   2.798   2.298 -1.7275 -1.4290  0.5486
 8461TIP3   OH246873   2.934   3.412  14.483  0.1322  0.0953  0.2347
 8461TIP3    H146874   2.930   3.322  14.452  0.6303  0.5898 -1.3639
 8461TIP3    H246875   2.842   3.441  14.485 -0.1961 -0.8600  2.2380
 8462TIP3   OH246876   1.551   0.137   2.669  0.2751 -0.6523 -0.6325
 8462TIP3    H146877   1.464   0.145   2.632 -0.7391  2.1032  1.9796
 8462TIP3    H246878   1.543   0.068   2.735 -0.3846  0.5340  0.5719
 8463TIP3   OH246879   0.470   0.350   1.154  0.0110 -0.1171  0.1071
 8463TIP3    H146880   0.380   0.321   1.144 -0.4451  1.1682  0.3017
 8463TIP3    H246881   0.521   0.269   1.159 -0.9422 -0.8732 -1.4924
 8464TIP3   OH246882   5.279   2.210  11.080  0.2906 -0.1435  0.2285
 8464TIP3    H146883   5.350   2.228  11.018 -0.7992  1.7676 -0.5360
 8464TIP3    H246884   5.244   2.126  11.052  2.0030 -0.9566  0.4082
 8465TIP3   OH246885   5.434   6.003   4.093 -0.1050  0.4056  0.1549
 8465TIP3    H146886   5.462   6.087   4.058  0.6596  0.3747  0.6587
 8465TIP3    H246887   5.514   5.950   4.095 -0.2882  0.1474  1.1835
 8466TIP3   OH246888   2.227   2.682   2.972 -0.1529  0.6765  0.1149
 8466TIP3    H146889   2.150   2.686   3.029  0.3157  1.8168  0.7051
 8466TIP3    H246890   2.193   2.648   2.889 -0.7501 -1.4608  1.1693
 8467TIP3   OH246891   2.387   0.757   1.678  0.5012 -0.1438  0.2038
 8467TIP3    H146892   2.461   0.720   1.726  0.4466  0.9493  1.1600
 8467TIP3    H246893   2.310   0.729   1.727  0.2352 -1.4380 -0.8939
 8468TIP3   OH246894   2.311   3.615  15.315  0.9016 -0.2002 -0.4831
 8468TIP3    H146895   2.245   3.563  15.362  0.0314  1.4724  0.2366
 8468TIP3    H246896   2.326   3.567  15.234  0.1042 -1.5372  0.1267
 8469TIP3   OH246897   0.323   2.974  13.762  0.5526 -0.3635 -1.0146
 8469TIP3    H146898   0.348   2.944  13.674  2.0763 -0.3936 -0.5996
 8469TIP3    H246899   0.365   3.059  13.772 -1.1786  0.5393 -0.9958
 8470TIP3   OH246900   5.724   2.881  17.020 -0.6181  0.0604 -0.4822
 8470TIP3    H146901   5.701   2.907  16.931  0.6940  1.1726 -0.5327
 8470TIP3    H246902   5.811   2.919  17.034  0.3836 -2.3547  0.3311
 8471TIP3   OH246903   3.925   0.190   3.820 -0.4170  0.1444 -0.1202
 8471TIP3    H146904   3.925   0.253   3.892 -3.5817  0.8051 -0.5636
 8471TIP3    H246905   3.863   0.123   3.846  1.9466 -2.2751 -0.2381
 8472TIP3   OH246906   4.294   5.254  12.961 -0.2041  0.5706 -0.5987
 8472TIP3    H146907   4.326   5.338  12.928 -1.8242  1.5033  0.1274
 8472TIP3    H246908   4.342   5.241  13.042 -0.2506  1.0007 -0.4982
 8473TIP3   OH246909   0.626   0.123   2.992  0.0627 -0.2664  0.4371
 8473TIP3    H146910   0.559   0.104   2.926  0.8883  0.7224 -0.7155
 8473TIP3    H246911   0.675   0.041   3.000  2.0018  0.4105 -2.6336
 8474TIP3   OH246912   1.539   4.064  14.800 -0.1290  0.1943  0.0837
 8474TIP3    H146913   1.469   4.115  14.841 -1.2335 -0.7813 -0.5276
 8474TIP3    H246914   1.575   4.011  14.872 -2.0913 -1.5454 -0.1057
 8475TIP3   OH246915   6.305   2.710  11.740 -0.4673 -0.0761  0.3840
 8475TIP3    H146916   6.235   2.646  11.757 -0.6337 -0.0746 -0.2495
 8475TIP3    H246917   6.271   2.792  11.774 -0.9606  0.0120 -0.2962
 8476TIP3   OH246918   4.793   2.889   0.060 -0.2038 -0.4130  0.8708
 8476TIP3    H146919   4.777   2.816  -0.001  0.0842 -0.3166  0.6797
 8476TIP3    H246920   4.869   2.861   0.111 -0.4454 -0.4925  1.1847
 8477TIP3   OH246921   4.970   0.815   6.035  0.3351  0.0050  0.4361
 8477TIP3    H146922   5.026   0.756   6.085  0.5959  0.6621  0.9330
 8477TIP3    H246923   4.985   0.902   6.073 -1.1159  0.1827  0.6704
 8478TIP3   OH246924   4.299   0.244  15.965  0.0865 -0.5394  0.3916
 8478TIP3    H146925   4.344   0.328  15.963 -0.9497  0.0422  0.9392
 8478TIP3    H246926   4.363   0.183  16.003  1.0832 -0.1749 -0.6493
 8479TIP3   OH246927   6.374   2.206   1.657 -0.0522  0.5115 -0.7600
 8479TIP3    H146928   6.469   2.213   1.650  0.2697 -0.6417  1.5525
 8479TIP3    H246929   6.359   2.122   1.701 -1.9885  1.6277  0.9147
 8480TIP3   OH246930   5.364   0.930  13.927 -0.0742  0.0208 -0.0803
 8480TIP3    H146931   5.276   0.896  13.942 -0.2038  0.6334  0.5748
 8480TIP3    H246932   5.402   0.869  13.864 -0.9153 -0.3288 -0.2647
 8481TIP3   OH246933   6.764   0.517   4.080 -0.3032 -0.5306  0.4183
 8481TIP3    H146934   6.761   0.425   4.051  1.1344 -0.9840  1.5793
 8481TIP3    H246935   6.737   0.514   4.172 -1.9262  0.4761  0.0074
 8482TIP3   OH246936   1.334   6.491  13.541 -0.5356  0.0980 -0.0687
 8482TIP3    H146937   1.311   6.442  13.462 -0.5241  1.9128 -1.2628
 8482TIP3    H246938   1.399   6.436  13.585  0.5502 -0.3323 -2.0808
 8483TIP3   OH246939   0.347   1.043   4.073  0.7764 -0.0507  0.0355
 8483TIP3    H146940   0.381   1.129   4.095  0.5963 -0.1752  0.8390
 8483TIP3    H246941   0.271   1.032   4.130 -0.4635  0.1106 -1.5333
 8484TIP3   OH246942   3.587   3.487  11.303  0.2845  0.0204 -0.2354
 8484TIP3    H146943   3.613   3.402  11.268  0.8662  0.3142 -0.5340
 8484TIP3    H246944   3.610   3.483  11.395 -0.1017 -0.3033 -0.1488
 8485TIP3   OH246945   1.865   0.792  13.796 -0.0206 -0.2965  0.5409
 8485TIP3    H146946   1.870   0.814  13.889 -1.0897  0.3763  0.4562
 8485TIP3    H246947   1.850   0.876  13.752 -2.9460 -0.9662  0.0838
 8486TIP3   OH246948   2.005   0.780  17.117 -0.0236  0.6043 -0.3948
 8486TIP3    H146949   1.967   0.850  17.063  0.9020  0.7741 -0.8545
 8486TIP3    H246950   2.064   0.826  17.176  0.8163  0.1965 -0.9018
 8487TIP3   OH246951   6.178   2.329  15.320  0.5856  0.0893  0.4143
 8487TIP3    H146952   6.259   2.356  15.363 -0.3077 -0.5971  2.6862
 8487TIP3    H246953   6.205   2.306  15.231  2.8903 -0.2074  1.1118
 8488TIP3   OH246954   1.910   6.692   0.380 -0.0164  0.3109  0.7716
 8488TIP3    H146955   1.912   6.677   0.285  0.7129  1.7461  0.5168
 8488TIP3    H246956   1.965   6.623   0.416  1.9214  1.2857 -0.1502
 8489TIP3   OH246957   5.002   0.381  12.080 -0.5979 -0.6341 -0.0750
 8489TIP3    H146958   5.071   0.363  12.016  1.6000 -0.8803  2.2242
 8489TIP3    H246959   4.962   0.295  12.097 -0.3892 -0.7701 -0.2669
 8490TIP3   OH246960   1.311   2.875   6.335 -0.2959 -0.2096 -0.3215
 8490TIP3    H146961   1.247   2.888   6.405 -0.2666  1.6128 -0.5814
 8490TIP3    H246962   1.311   2.781   6.319 -0.1587 -0.7107  2.2617
 8491TIP3   OH246963   2.772   0.582  12.615  0.0180 -0.5415 -0.6686
 8491TIP3    H146964   2.843   0.521  12.593  0.7518  0.3491 -0.8515
 8491TIP3    H246965   2.711   0.576  12.542 -1.1065 -2.7126  0.3471
 8492TIP3   OH246966   6.650   1.866   2.249 -0.2063 -0.1147 -0.1466
 8492TIP3    H146967   6.587   1.917   2.301 -1.1555  0.2580 -1.5987
 8492TIP3    H246968   6.708   1.827   2.314  1.0183  3.3219  1.0320
 8493TIP3   OH246969   5.128   6.272  15.746 -0.2842 -0.6904  0.1268
 8493TIP3    H146970   5.064   6.319  15.692 -0.1549  0.1398  0.6803
 8493TIP3    H246971   5.213   6.299  15.711 -0.2057 -0.3563  0.5668
 8494TIP3   OH246972   5.094   2.215  15.629 -0.1938  0.2942 -0.3597
 8494TIP3    H146973   5.111   2.134  15.677 -0.9823  0.5392  0.3543
 8494TIP3    H246974   5.181   2.243  15.599 -0.0735 -1.5721 -1.9199
 8495TIP3   OH246975   3.115   3.779  14.477  0.4315 -0.3314 -0.1595
 8495TIP3    H146976   3.068   3.770  14.394  0.1156  1.8911 -0.2804
 8495TIP3    H246977   3.202   3.811  14.452 -0.3510  2.5183  0.3748
 8496TIP3   OH246978   0.849   0.956  11.781 -0.0045  0.9634 -0.1448
 8496TIP3    H146979   0.882   1.034  11.826  0.6555  0.3483  0.4518
 8496TIP3    H246980   0.928   0.911  11.750 -0.2695 -0.3515  1.0029
 8497TIP3   OH246981   4.924   0.347   3.887  0.3640 -0.0546 -0.6549
 8497TIP3    H146982   4.936   0.423   3.944  0.4809 -1.9947  2.0977
 8497TIP3    H246983   4.829   0.340   3.877  0.3587  0.5390 -1.0977
 8498TIP3   OH246984   5.146   1.513  14.222  0.0868 -0.6091  0.5692
 8498TIP3    H146985   5.085   1.568  14.271  0.5155  1.2398 -0.8606
 8498TIP3    H246986   5.113   1.514  14.132  2.1325  0.4022 -0.2388
 8499TIP3   OH246987   0.942   2.036   0.784 -0.2985  0.4365  0.3006
 8499TIP3    H146988   0.990   2.030   0.702  1.4851 -1.0044  1.3857
 8499TIP3    H246989   0.896   1.952   0.792  0.3243  0.1661  1.2154
 8500TIP3   OH246990   0.158   1.126  14.101  0.4587 -0.4263 -0.7128
 8500TIP3    H146991   0.099   1.186  14.147  0.4328 -0.8787 -0.1416
 8500TIP3    H246992   0.237   1.124  14.156  1.2152  0.5483 -1.7191
 8501TIP3   OH246993   2.842   1.249  14.395 -0.5126  0.0523 -0.0113
 8501TIP3    H146994   2.934   1.222  14.397 -0.6812 -0.5255  1.5587
 8501TIP3    H246995   2.835   1.318  14.461 -0.9307  1.1036 -1.1308
 8502TIP3   OH246996   1.561   3.700   4.361 -0.1986  0.4589 -0.4344
 8502TIP3    H146997   1.611   3.760   4.416  0.8209 -1.7927  1.2064
 8502TIP3    H246998   1.620   3.677   4.290 -0.1415  0.3897 -0.3635
 8503TIP3   OH246999   6.470   2.997  13.565 -0.2706  0.1788  0.2404
 8503TIP3    H147000   6.549   2.988  13.511 -0.0913  1.6262  0.2225
 8503TIP3    H247001   6.503   2.997  13.655 -0.3338 -0.0004  0.2633
 8504TIP3   OH247002   2.220   6.294   3.573  0.0975 -0.2504  0.4124
 8504TIP3    H147003   2.129   6.264   3.579 -0.2436  0.6794  0.0932
 8504TIP3    H247004   2.270   6.216   3.552 -0.5804 -0.8488  0.9879
 8505TIP3   OH247005   3.358   2.404   2.412  0.1794 -0.5591 -0.6922
 8505TIP3    H147006   3.343   2.383   2.320  0.1434 -0.3918 -0.7235
 8505TIP3    H247007   3.356   2.499   2.417  1.6274 -0.4989 -0.7673
 8506TIP3   OH247008   5.901   2.565   4.538  0.0690  0.6835  1.1166
 8506TIP3    H147009   5.940   2.609   4.463  0.1235  0.0833  0.7872
 8506TIP3    H247010   5.949   2.600   4.614  0.4854  0.7789  0.8138
 8507TIP3   OH247011   1.539   4.270   1.227 -0.1676  0.4997 -0.1176
 8507TIP3    H147012   1.542   4.299   1.318  1.0192  0.5712 -0.1760
 8507TIP3    H247013   1.578   4.182   1.228  0.9118  0.9532 -0.7192
 8508TIP3   OH247014   3.849   0.546   0.991  0.1925 -0.1051  0.3885
 8508TIP3    H147015   3.924   0.602   1.012  0.2685  0.0197 -0.1921
 8508TIP3    H247016   3.800   0.595   0.924  0.0061 -0.5212  0.2137
 8509TIP3   OH247017   6.253   2.380   2.536  0.4124 -0.1101  0.0189
 8509TIP3    H147018   6.271   2.446   2.469 -0.8854  0.3619  0.1013
 8509TIP3    H247019   6.214   2.307   2.488 -0.0190  0.0077  0.1891
 8510TIP3   OH247020   3.688   5.127  14.228  0.4031 -0.3646 -0.4705
 8510TIP3    H147021   3.639   5.147  14.148 -0.0120  0.0064 -0.1249
 8510TIP3    H247022   3.720   5.037  14.215 -1.1899 -0.9830 -0.2910
 8511TIP3   OH247023   0.435   2.968  14.825 -0.1654 -0.5068 -0.1010
 8511TIP3    H147024   0.473   2.904  14.885  0.8015 -0.5723 -0.7631
 8511TIP3    H247025   0.443   3.052  14.871  3.7150  0.0039 -1.4065
 8512TIP3   OH247026   6.387   4.572   1.522 -0.3288 -0.0286 -0.2861
 8512TIP3    H147027   6.319   4.607   1.578 -0.9652 -0.3425 -0.8435
 8512TIP3    H247028   6.437   4.648   1.493  0.0607  0.1251  0.7578
 8513TIP3   OH247029   5.063   2.447  13.944 -0.2315  0.0231 -0.3891
 8513TIP3    H147030   5.065   2.540  13.920 -1.2593  0.1876  0.1245
 8513TIP3    H247031   4.986   2.438  13.999  0.1386 -1.0467 -0.0208
 8514TIP3   OH247032   5.249   2.568  15.985  0.0977  0.1047  0.0815
 8514TIP3    H147033   5.278   2.608  16.067 -0.6489  1.4582 -0.2843
 8514TIP3    H247034   5.331   2.550  15.938  0.4580  1.1991  0.2686
 8515TIP3   OH247035   2.356   4.531   4.371 -0.4508 -0.4255  0.2186
 8515TIP3    H147036   2.305   4.486   4.303  1.1619 -2.9422  0.5759
 8515TIP3    H247037   2.414   4.590   4.322 -1.6658  0.3569 -0.3362
 8516TIP3   OH247038   2.701   2.311   6.199  0.1175  0.0904 -0.3219
 8516TIP3    H147039   2.706   2.262   6.282 -1.6085  0.6146  0.1539
 8516TIP3    H247040   2.706   2.403   6.225 -3.0064  0.3963 -0.4110
 8517TIP3   OH247041   0.562   2.735  11.445 -0.2434  0.5344 -0.0515
 8517TIP3    H147042   0.594   2.751  11.534 -1.1355  0.5270  0.2869
 8517TIP3    H247043   0.544   2.822  11.410  0.7438  0.5747 -0.4794
 8518TIP3   OH247044   4.104   2.071   6.606  0.2205 -0.1135 -0.2586
 8518TIP3    H147045   4.013   2.040   6.611  0.0136  0.5966  0.6879
 8518TIP3    H247046   4.138   2.057   6.694 -0.4787  4.0236  0.8673
 8519TIP3   OH247047   1.325   1.075   3.055 -0.5665  0.1360  0.3341
 8519TIP3    H147048   1.311   1.124   2.974  2.4077  1.8654  0.7254
 8519TIP3    H247049   1.376   1.134   3.111  0.1465 -2.1244  2.2634
 8520TIP3   OH247050   0.766   4.454   4.074 -0.4069  0.2188  0.8318
 8520TIP3    H147051   0.758   4.406   3.991 -0.0569  0.8672  0.4092
 8520TIP3    H247052   0.794   4.389   4.137 -0.4912 -0.2503  0.3920
 8521TIP3   OH247053   1.148   1.221  14.675  0.4386  0.1981 -0.4773
 8521TIP3    H147054   1.196   1.239  14.756  0.6517 -0.6033 -0.4132
 8521TIP3    H247055   1.142   1.125  14.672 -2.5858  0.2451  0.3712
 8522TIP3   OH247056   0.174   4.885   4.916  0.0734 -0.5605 -0.4552
 8522TIP3    H147057   0.098   4.926   4.875  0.8612  1.5927  0.1205
 8522TIP3    H247058   0.175   4.920   5.005  0.3893 -2.4448  0.3301
 8523TIP3   OH247059   4.561   4.352   0.028  0.1922 -0.5928  0.2589
 8523TIP3    H147060   4.518   4.393   0.103  0.4836  0.5408 -0.1712
 8523TIP3    H247061   4.620   4.419  -0.006  1.2482 -1.6289 -0.0300
 8524TIP3   OH247062   6.077   5.613   1.396  0.3367  0.2961  0.3079
 8524TIP3    H147063   6.109   5.699   1.424  0.3932  0.1320  0.7443
 8524TIP3    H247064   6.078   5.618   1.300  0.5753  0.6954  0.3278
 8525TIP3   OH247065   5.570   1.486  17.173 -0.0404  0.6083  0.0154
 8525TIP3    H147066   5.583   1.515  17.263  0.0302  0.8466 -0.0713
 8525TIP3    H247067   5.570   1.566  17.121 -0.9563  0.5521 -0.0946
 8526TIP3   OH247068   1.112   6.441  13.753  0.2254  0.0261 -0.4513
 8526TIP3    H147069   1.101   6.532  13.782  0.2881  0.1664 -0.8634
 8526TIP3    H247070   1.182   6.445  13.688 -1.3440  0.0479 -2.2078
 8527TIP3   OH247071   2.503   4.702  14.775 -0.2479 -0.2685  0.0244
 8527TIP3    H147072   2.520   4.610  14.797 -0.4413 -0.2373  0.3155
 8527TIP3    H247073   2.440   4.698  14.703  0.3720 -0.3718 -0.5227
 8528TIP3   OH247074   1.385   2.002   3.942 -0.3099  0.1583 -0.1845
 8528TIP3    H147075   1.457   1.955   3.984 -0.2829  0.5277  0.1911
 8528TIP3    H247076   1.380   2.086   3.989 -1.3336 -0.0834  0.1546
 8529TIP3   OH247077   2.293   1.645   5.336  0.6073  0.2416  0.1467
 8529TIP3    H147078   2.292   1.552   5.355  1.0371 -0.0887 -1.3180
 8529TIP3    H247079   2.379   1.661   5.297 -0.1464  0.8552 -1.3629
 8530TIP3   OH247080   1.338   5.685   0.758  0.0857 -0.4616 -0.3139
 8530TIP3    H147081   1.337   5.774   0.794  0.0150 -0.9245  0.8830
 8530TIP3    H247082   1.250   5.673   0.722 -0.2401 -0.3988  0.4380
 8531TIP3   OH247083   3.501   5.014   5.608 -0.2008 -0.0127 -0.3050
 8531TIP3    H147084   3.590   4.978   5.603  0.1469  0.9755 -1.8396
 8531TIP3    H247085   3.489   5.060   5.525 -1.5360  1.3013  0.5766
 8532TIP3   OH247086   2.952   2.475  13.646  0.1555  0.2764  0.2203
 8532TIP3    H147087   2.904   2.517  13.717  0.2887  0.1262  0.3985
 8532TIP3    H247088   2.905   2.393  13.630  1.1242 -0.5052  1.2889
 8533TIP3   OH247089   4.139   6.432   2.423  0.2890  0.8180  0.4645
 8533TIP3    H147090   4.180   6.354   2.461  0.4487 -0.8483 -2.8094
 8533TIP3    H247091   4.046   6.413   2.423  0.1695  1.3409  1.0012
 8534TIP3   OH247092   1.220   5.303  11.914 -0.1102  0.4207 -0.4606
 8534TIP3    H147093   1.275   5.379  11.894  0.4671  0.4876  1.2633
 8534TIP3    H247094   1.181   5.279  11.830  1.2724  1.3817 -1.4135
 8535TIP3   OH247095   4.903   0.552   3.662 -0.1070 -0.0160  0.1833
 8535TIP3    H147096   4.898   0.549   3.758 -0.4880 -2.2469  0.1503
 8535TIP3    H247097   4.834   0.492   3.633 -0.5867  1.2810 -1.5384
 8536TIP3   OH247098   0.395   6.091  12.681 -0.1626  0.1432  0.1200
 8536TIP3    H147099   0.361   6.173  12.717  0.4617 -0.1716  1.4987
 8536TIP3    H247100   0.463   6.119  12.620 -2.0134  0.7280 -1.8014
 8537TIP3   OH247101   6.538   5.704   5.670 -0.1214  0.0013 -0.5740
 8537TIP3    H147102   6.613   5.758   5.694 -0.4679  0.3310 -0.2225
 8537TIP3    H247103   6.477   5.712   5.743 -0.4052 -0.4494 -0.7491
 8538TIP3   OH247104   2.371   6.067  17.221  0.5659 -0.5125 -0.4666
 8538TIP3    H147105   2.393   6.004  17.289  1.7705 -0.8221 -1.1221
 8538TIP3    H247106   2.287   6.104  17.249  0.6874 -1.1499  0.8045
 8539TIP3   OH247107   5.814   2.851   1.375  0.4699 -0.0359 -0.5888
 8539TIP3    H147108   5.821   2.884   1.464  0.2326  0.2188 -0.6644
 8539TIP3    H247109   5.751   2.908   1.332  0.4284 -0.2805 -0.8631
 8540TIP3   OH247110   0.951   1.546  13.235  0.5670  0.5106 -0.2516
 8540TIP3    H147111   0.983   1.509  13.317  0.1495 -3.2036 -1.5873
 8540TIP3    H247112   1.030   1.578  13.191  0.7303  3.2082  1.7057
 8541TIP3   OH247113   0.264   3.206   0.687  0.8355  0.2360  0.2160
 8541TIP3    H147114   0.276   3.160   0.603  2.5279 -0.5543  0.8507
 8541TIP3    H247115   0.294   3.295   0.670  1.9178 -0.1268  0.1718
 8542TIP3   OH247116   5.075   0.478   5.490  0.4020 -0.0166  0.3379
 8542TIP3    H147117   4.998   0.427   5.465 -0.0428  1.1701 -0.8520
 8542TIP3    H247118   5.121   0.494   5.407  1.1886  0.4744  0.8505
 8543TIP3   OH247119   0.071   2.637   1.577  0.1513  0.8027  0.1225
 8543TIP3    H147120   0.131   2.710   1.565 -0.7569  1.7028  0.9319
 8543TIP3    H247121  -0.009   2.663   1.533  0.2510 -0.3091 -0.7783
 8544TIP3   OH247122   1.066   1.728   3.691  0.2404  0.8395 -0.3724
 8544TIP3    H147123   1.090   1.772   3.772  0.8631  0.0926 -0.1442
 8544TIP3    H247124   0.970   1.726   3.692  0.2570 -0.1771  0.8979
 8545TIP3   OH247125   2.748   6.156   4.765 -0.1516 -0.0694 -0.2011
 8545TIP3    H147126   2.725   6.110   4.845  3.0875 -1.1134  0.3128
 8545TIP3    H247127   2.751   6.248   4.790  0.4191 -0.3432  0.8029
 8546TIP3   OH247128   6.320   4.572   5.987  0.2712 -0.1361  0.0238
 8546TIP3    H147129   6.268   4.496   5.961 -0.2074  0.0601  0.4004
 8546TIP3    H247130   6.281   4.645   5.940 -1.9604  0.6046  2.7998
 8547TIP3   OH247131   0.090   5.884  13.306  0.0528  0.4107  0.2534
 8547TIP3    H147132   0.161   5.873  13.242 -0.5515 -0.8289 -0.2223
 8547TIP3    H247133   0.060   5.795  13.325 -0.7831  0.8600  1.1342
 8548TIP3   OH247134   5.056   6.441  14.447 -0.0194  0.2904  1.0028
 8548TIP3    H147135   5.036   6.534  14.452  0.8549  0.6679 -1.1953
 8548TIP3    H247136   5.145   6.433  14.481  1.7167  1.1092 -2.7813
 8549TIP3   OH247137   5.308   1.869  11.279  0.1849 -0.2673 -0.3211
 8549TIP3    H147138   5.286   1.870  11.186  0.3347  0.6631 -0.3595
 8549TIP3    H247139   5.233   1.826  11.321  0.4933 -1.4352 -0.9464
 8550TIP3   OH247140   4.927   5.292  12.425 -0.2203  0.5410  0.7122
 8550TIP3    H147141   4.902   5.378  12.392  0.3121  0.8747  1.1651
 8550TIP3    H247142   5.014   5.276  12.388 -0.2233  0.2939  0.8087
 8551TIP3   OH247143   0.599   2.907  17.280 -0.2177 -0.1347 -0.4362
 8551TIP3    H147144   0.633   2.916  17.191 -0.5420  1.6009 -0.4205
 8551TIP3    H247145   0.610   2.814  17.301  1.2278 -0.2956 -1.7295
 8552TIP3   OH247146   6.075   1.805  10.990  0.0859  0.1132 -0.0550
 8552TIP3    H147147   6.144   1.801  11.057  0.8120 -0.9229 -0.8303
 8552TIP3    H247148   6.025   1.725  11.002  0.0731  0.0362 -0.5951
 8553TIP3   OH247149   2.228   5.085   5.622 -0.0310 -0.3674 -0.4596
 8553TIP3    H147150   2.206   5.004   5.668  1.7982 -1.6171 -1.6162
 8553TIP3    H247151   2.207   5.155   5.683 -0.8414 -1.7714  0.9234
 8554TIP3   OH247152   2.366   4.072   1.675  0.0259  0.0418 -0.1953
 8554TIP3    H147153   2.328   4.150   1.717 -0.5940 -0.8524  0.9721
 8554TIP3    H247154   2.302   4.003   1.691  0.7147 -0.7916 -0.9400
 8555TIP3   OH247155   3.013   2.310   2.943 -0.4530 -0.2519 -0.0235
 8555TIP3    H147156   3.072   2.379   2.912  1.1791 -1.2180  0.7555
 8555TIP3    H247157   2.929   2.329   2.901  0.2125  1.6003 -0.6242
 8556TIP3   OH247158   4.951   4.397  17.258 -0.0629  0.2694 -0.2015
 8556TIP3    H147159   4.866   4.439  17.250 -0.2860 -0.2397 -0.5252
 8556TIP3    H247160   5.001   4.455  17.317 -0.3662  0.9695 -0.6227
 8557TIP3   OH247161   6.793   6.100   1.748  0.3193 -0.7410 -0.9094
 8557TIP3    H147162   6.747   6.160   1.806 -0.8132 -0.5202 -1.9861
 8557TIP3    H247163   6.753   6.115   1.662  1.4210 -1.5929 -1.5951
 8558TIP3   OH247164   4.299   6.142   6.300 -0.2552 -0.1877 -0.2944
 8558TIP3    H147165   4.278   6.078   6.232  0.0198 -0.7067  0.1112
 8558TIP3    H247166   4.279   6.098   6.382  0.6917 -0.0456  0.0237
 8559TIP3   OH247167   3.957   1.803  15.126 -0.8878  0.2241  0.2519
 8559TIP3    H147168   3.999   1.734  15.178  0.8331  0.7115 -0.4143
 8559TIP3    H247169   3.954   1.767  15.037 -1.1802  0.5042  0.1458
 8560TIP3   OH247170   6.557   0.705  11.652  0.3256  0.5043  0.1649
 8560TIP3    H147171   6.521   0.627  11.695  0.7698 -0.0691 -0.4827
 8560TIP3    H247172   6.647   0.681  11.632  0.0362  0.6315 -1.3787
 8561TIP3   OH247173   2.532   0.194   0.097 -0.5610 -0.4327 -0.2101
 8561TIP3    H147174   2.593   0.242   0.040 -0.7589  2.5928  1.8679
 8561TIP3    H247175   2.584   0.172   0.174 -1.0005 -1.9243 -0.3189
 8562TIP3   OH247176   0.295   0.664  10.461  0.1164 -0.3845  0.2268
 8562TIP3    H147177   0.286   0.597  10.394 -0.1533 -0.9697  0.8337
 8562TIP3    H247178   0.206   0.677  10.493  0.1440  0.3852  0.0001
 8563TIP3   OH247179   3.115   5.622   1.954  0.1194  0.2774  0.0568
 8563TIP3    H147180   3.170   5.611   1.876 -2.7278 -1.5025 -1.8852
 8563TIP3    H247181   3.136   5.545   2.009 -0.8457 -0.7860 -1.0118
 8564TIP3   OH247182   5.459   4.419  14.575 -0.1681 -0.0760 -0.3293
 8564TIP3    H147183   5.447   4.346  14.515  0.2075 -0.1712 -0.2968
 8564TIP3    H247184   5.554   4.421  14.590  0.1191  1.6848 -1.9382
 8565TIP3   OH247185   4.907   2.645  15.779  0.0692 -0.0880 -0.1053
 8565TIP3    H147186   4.953   2.563  15.797 -1.0218 -0.6348  0.3123
 8565TIP3    H247187   4.854   2.659  15.857 -2.2131 -0.7024 -1.4655
 8566TIP3   OH247188   4.380   6.303   5.579  0.2734  0.1112  0.2012
 8566TIP3    H147189   4.460   6.264   5.545 -0.8264 -2.6735  0.5575
 8566TIP3    H247190   4.313   6.282   5.513 -0.8941 -1.0136  1.6766
 8567TIP3   OH247191   5.865   0.588   3.098 -0.3414  0.1776 -0.0234
 8567TIP3    H147192   5.769   0.589   3.100 -0.3684 -1.2774  1.7544
 8567TIP3    H247193   5.891   0.566   3.187  1.7181  1.6853 -0.1762
 8568TIP3   OH247194   0.054   4.124   1.506  0.5220 -0.0811  0.7331
 8568TIP3    H147195  -0.021   4.156   1.455  0.6120 -0.6402  0.2382
 8568TIP3    H247196   0.100   4.204   1.534 -0.8075  0.3197  1.9112
 8569TIP3   OH247197   2.156   3.074  12.684 -0.3500  0.3954 -0.5135
 8569TIP3    H147198   2.223   3.030  12.736  0.9378  2.9939  0.2109
 8569TIP3    H247199   2.085   3.093  12.746 -0.0907  0.9316 -0.3741
 8570TIP3   OH247200   0.883   4.230  16.696  0.3251 -0.3550  0.7124
 8570TIP3    H147201   0.880   4.173  16.773  1.2234 -0.2957  0.8057
 8570TIP3    H247202   0.950   4.295  16.718  1.3315 -0.9417 -0.5235
 8571TIP3   OH247203   0.332   1.732  16.426 -0.3985  0.2028 -0.7263
 8571TIP3    H147204   0.396   1.685  16.371  0.5812  1.5508 -0.8051
 8571TIP3    H247205   0.292   1.665  16.480  0.6275 -0.7785 -1.1527
 8572TIP3   OH247206   4.201   6.392   4.199 -0.0196  0.1917 -0.0114
 8572TIP3    H147207   4.231   6.411   4.287 -1.6480  1.9460  0.2348
 8572TIP3    H247208   4.120   6.342   4.211  0.2464 -0.3820 -0.5348
 8573TIP3   OH247209   1.425   4.681  13.647  0.4159  0.4628  0.3431
 8573TIP3    H147210   1.440   4.674  13.553 -3.1518 -0.5113 -0.3214
 8573TIP3    H247211   1.457   4.597  13.682  1.7616  0.8301  0.0339
 8574TIP3   OH247212   0.926   2.133  11.522 -0.2144 -0.0588  0.2180
 8574TIP3    H147213   0.993   2.134  11.590 -0.0229  2.5160  0.0660
 8574TIP3    H247214   0.844   2.145  11.569 -0.2199  0.3543  0.1004
 8575TIP3   OH247215   4.431   5.708  15.830 -0.2339  0.4482  0.5661
 8575TIP3    H147216   4.422   5.637  15.894  0.1417 -1.2144 -1.1454
 8575TIP3    H247217   4.342   5.740  15.818 -0.4019  0.3401  1.4185
 8576TIP3   OH247218   0.956   0.825   6.048  0.2131  0.0677 -0.3598
 8576TIP3    H147219   1.051   0.840   6.053  0.3895 -0.8503 -0.7279
 8576TIP3    H247220   0.936   0.831   5.955 -0.3215  1.4617 -0.1844
 8577TIP3   OH247221   4.343   5.794  16.208 -0.1878 -0.3960  0.7036
 8577TIP3    H147222   4.428   5.839  16.208 -0.0587 -0.6371  0.8091
 8577TIP3    H247223   4.286   5.852  16.158 -0.0438 -0.0770  0.9006
 8578TIP3   OH247224   4.640   3.658   5.752  0.4530 -0.3008 -0.3560
 8578TIP3    H147225   4.725   3.628   5.722  0.5933 -0.6406  0.3580
 8578TIP3    H247226   4.578   3.624   5.688  0.8881  0.3128 -1.1181
 8579TIP3   OH247227   0.810   0.966  15.453 -0.0361  0.4392 -0.3379
 8579TIP3    H147228   0.778   0.876  15.461  0.9199  0.2159  1.2402
 8579TIP3    H247229   0.734   1.021  15.474 -0.0537 -0.0481  0.9375
 8580TIP3   OH247230   5.700   1.722  10.588  0.1275  0.2369  0.0962
 8580TIP3    H147231   5.789   1.710  10.554 -0.4304  1.0413 -1.8108
 8580TIP3    H247232   5.673   1.635  10.617  1.3048 -0.1324  0.1363
 8581TIP3   OH247233   3.506   0.935  13.287  0.1179  0.1433  0.0218
 8581TIP3    H147234   3.459   0.914  13.207  0.0047 -1.6250  0.5073
 8581TIP3    H247235   3.554   0.854  13.309  2.5090  1.5025  0.1534
 8582TIP3   OH247236   2.507   4.852   1.823  0.2233  0.6649  0.1298
 8582TIP3    H147237   2.495   4.871   1.730 -1.8688 -0.1246  0.1753
 8582TIP3    H247238   2.525   4.758   1.826 -3.3345 -0.1552  0.6149
 8583TIP3   OH247239   0.776   2.902  14.065 -0.0210  0.4993 -0.0903
 8583TIP3    H147240   0.725   2.959  14.008  0.1338 -1.1461 -2.0114
 8583TIP3    H247241   0.793   2.824  14.011  1.2350 -0.6155  1.8054
 8584TIP3   OH247242   3.140   0.149   3.183  0.2541 -0.2772 -0.2488
 8584TIP3    H147243   3.179   0.078   3.235 -1.0655 -0.7553  0.1160
 8584TIP3    H247244   3.107   0.211   3.247  2.8228  1.5658 -0.5433
 8585TIP3   OH247245   0.877   5.484   6.171 -0.3577  0.7608  0.0094
 8585TIP3    H147246   0.831   5.566   6.155 -2.9396 -0.0222  2.5870
 8585TIP3    H247247   0.911   5.492   6.260 -0.1928 -0.7353  0.1093
 8586TIP3   OH247248   3.139   3.043   0.879 -0.5139 -0.0386 -0.1958
 8586TIP3    H147249   3.166   2.968   0.932  0.1551  0.0023 -0.4608
 8586TIP3    H247250   3.129   3.007   0.790 -1.8183 -0.1485 -0.0259
 8587TIP3   OH247251   5.477   1.542   3.574  0.0636  0.2970 -0.1886
 8587TIP3    H147252   5.544   1.578   3.633 -0.5678  0.4370  0.4523
 8587TIP3    H247253   5.526   1.516   3.496  0.9314  0.0080  0.4345
 8588TIP3   OH247254   1.811   1.729  14.958 -0.3911  0.1162 -0.0511
 8588TIP3    H147255   1.805   1.697  14.868 -3.0763  3.3757 -1.2647
 8588TIP3    H247256   1.903   1.719  14.982  0.0756 -2.4420 -2.4863
 8589TIP3   OH247257   2.276   5.558   0.719  0.1091  0.5084 -0.3407
 8589TIP3    H147258   2.274   5.651   0.697 -1.1134  0.4695 -0.4902
 8589TIP3    H247259   2.190   5.525   0.692  0.4347 -0.6156 -0.0758
 8590TIP3   OH247260   5.171   2.239  12.428 -0.0357 -0.0605  0.7036
 8590TIP3    H147261   5.133   2.151  12.426 -0.3869  0.0776  1.0154
 8590TIP3    H247262   5.154   2.269  12.518  0.4511  0.1622  0.7200
 8591TIP3   OH247263   3.032   6.100   5.370 -0.1131  0.0192 -0.1813
 8591TIP3    H147264   3.090   6.135   5.302  1.1302 -0.9718  0.3300
 8591TIP3    H247265   3.064   6.139   5.451  0.2926 -1.0714  0.1959
 8592TIP3   OH247266   3.296   4.721  15.203 -0.7493  0.3615  0.0231
 8592TIP3    H147267   3.321   4.793  15.261 -0.7811 -0.2854  0.8494
 8592TIP3    H247268   3.204   4.738  15.182 -0.5903  0.8831 -0.2815
 8593TIP3   OH247269   0.119   2.892  14.292 -0.3582 -0.3204  0.1029
 8593TIP3    H147270   0.178   2.955  14.334 -0.4838 -0.5071  0.5729
 8593TIP3    H247271   0.115   2.819  14.354 -1.7614  0.0663  0.4894
 8594TIP3   OH247272   5.041   6.645  13.214  0.1168  0.4697  0.4833
 8594TIP3    H147273   5.039   6.694  13.297  1.8327  0.8170  0.3585
 8594TIP3    H247274   5.059   6.712  13.148 -0.2105  0.0353 -0.0522
 8595TIP3   OH247275   6.617   3.022   6.079 -0.0418  0.2153  0.0126
 8595TIP3    H147276   6.533   3.037   6.121  0.1344 -2.5932  1.6026
 8595TIP3    H247277   6.680   3.071   6.131 -0.3328  0.0207  0.5477
 8596TIP3   OH247278   5.309   6.484   3.134 -0.1654  0.0553 -0.0478
 8596TIP3    H147279   5.224   6.465   3.094  0.3894 -1.3284 -0.6181
 8596TIP3    H247280   5.319   6.418   3.203  1.7037 -1.7498 -1.9234
 8597TIP3   OH247281   0.213   5.991   4.397 -0.6966 -0.2868  0.2191
 8597TIP3    H147282   0.231   6.033   4.313 -0.4201 -0.4817  0.1816
 8597TIP3    H247283   0.264   6.040   4.461 -5.0643  3.6370  1.2886
 8598TIP3   OH247284   3.504   5.702   5.024 -0.4851  0.1047  0.1117
 8598TIP3    H147285   3.503   5.699   5.120  0.3233 -0.2782  0.1167
 8598TIP3    H247286   3.464   5.786   5.003  0.9176  1.0101  0.8653
 8599TIP3   OH247287   1.782   1.724   4.991 -0.2009  0.0525 -0.1431
 8599TIP3    H147288   1.841   1.695   5.061  0.6790  1.4419 -0.2698
 8599TIP3    H247289   1.838   1.775   4.933 -1.0545 -0.5423 -1.5436
 8600TIP3   OH247290   2.254   0.945  12.436  0.2814  0.6369  0.1360
 8600TIP3    H147291   2.293   1.031  12.449  0.3251  0.7141 -0.4869
 8600TIP3    H247292   2.160   0.962  12.427  0.3792  0.7091 -0.7997
 8601TIP3   OH247293   1.094   2.482   4.204  0.1942 -0.0415 -0.4221
 8601TIP3    H147294   1.056   2.542   4.139  1.6331 -0.6579 -1.8830
 8601TIP3    H247295   1.026   2.416   4.218 -0.6688  0.8548 -0.2133
 8602TIP3   OH247296   4.276   5.149   2.991  0.1821  0.3382  0.6825
 8602TIP3    H147297   4.247   5.175   2.904  0.0727  0.7420  0.8396
 8602TIP3    H247298   4.195   5.144   3.043  0.3784  1.3884  1.1019
 8603TIP3   OH247299   5.832   6.695  12.497 -0.4481 -0.2183  0.2863
 8603TIP3    H147300   5.875   6.764  12.546  0.0570  0.3359 -0.8948
 8603TIP3    H247301   5.872   6.614  12.529  0.4391  0.1885  0.2350
 8604TIP3   OH247302   4.869   4.502   1.044 -0.3022  0.3094 -0.1101
 8604TIP3    H147303   4.884   4.591   1.078 -0.0983 -0.3812  1.7184
 8604TIP3    H247304   4.927   4.447   1.095 -2.0669 -1.1797  0.4174
 8605TIP3   OH247305   2.228   3.218  11.098 -0.2702  0.9131 -0.4348
 8605TIP3    H147306   2.314   3.185  11.070 -1.1151 -0.9131 -1.0603
 8605TIP3    H247307   2.169   3.194  11.027 -1.5721  0.7252  0.6666
 8606TIP3   OH247308   1.108   3.966   0.659 -0.0711  0.1942 -0.1137
 8606TIP3    H147309   1.052   3.981   0.582 -0.9170  0.6663  0.5661
 8606TIP3    H247310   1.079   3.882   0.694 -0.1513  0.2932  0.0617
 8607TIP3   OH247311   1.190   5.832  16.697 -0.1729  0.0497 -0.1071
 8607TIP3    H147312   1.252   5.891  16.655 -0.3300 -0.5220 -1.1702
 8607TIP3    H247313   1.177   5.761  16.634 -1.7821  0.0823  0.1434
 8608TIP3   OH247314   3.742   1.049  16.937  0.7539  0.0385 -0.5060
 8608TIP3    H147315   3.742   1.068  16.843  0.5032 -0.0553 -0.5245
 8608TIP3    H247316   3.652   1.067  16.965  0.9753  0.6633 -0.1641
 8609TIP3   OH247317   5.789   2.813   3.944 -0.0280  0.7347  0.1877
 8609TIP3    H147318   5.751   2.790   4.029  0.4161 -0.7834  0.0082
 8609TIP3    H247319   5.865   2.867   3.965  1.2021 -1.1905  0.8943
 8610TIP3   OH247320   1.014   0.152  13.563  0.3933  0.3259 -0.0651
 8610TIP3    H147321   1.049   0.226  13.612  0.3658  0.1449  0.2273
 8610TIP3    H247322   1.071   0.146  13.485  0.4713  0.5751 -0.0281
 8611TIP3   OH247323   4.953   3.139   0.047  0.5300  0.5904  0.3111
 8611TIP3    H147324   4.937   3.058  -0.001  0.9239 -0.7966  2.3838
 8611TIP3    H247325   4.936   3.116   0.139  3.3986  2.0249  1.3215
 8612TIP3   OH247326   2.632   3.954  12.058  0.5384 -0.0647 -0.1991
 8612TIP3    H147327   2.660   4.026  12.114  0.3192 -0.3679  0.3042
 8612TIP3    H247328   2.686   3.963  11.979  1.2825  0.0067  0.3040
 8613TIP3   OH247329   2.310   1.485  15.667  0.0989  0.3386  0.5159
 8613TIP3    H147330   2.270   1.416  15.615 -0.2925  1.5214 -0.8093
 8613TIP3    H247331   2.400   1.491  15.635  0.0194  0.6974  0.3535
 8614TIP3   OH247332   6.253   4.293  17.129 -0.1537 -0.0220 -0.2192
 8614TIP3    H147333   6.261   4.198  17.136 -0.6668 -0.2201 -1.9119
 8614TIP3    H247334   6.204   4.319  17.207  1.2763 -0.9417  1.0358
 8615TIP3   OH247335   3.004   6.538   0.720 -0.0151  0.3334 -0.7375
 8615TIP3    H147336   3.039   6.468   0.776 -0.9763  0.8691  0.6056
 8615TIP3    H247337   2.979   6.607   0.782 -0.9076  1.0604 -1.8647
 8616TIP3   OH247338   4.147   5.406   3.481  0.4820 -0.2278  0.1513
 8616TIP3    H147339   4.076   5.348   3.509  0.4771  0.1501  0.9635
 8616TIP3    H247340   4.221   5.348   3.463 -0.0128 -0.6162 -0.6343
 8617TIP3   OH247341   4.977   4.740   5.420  0.1110 -0.1742 -0.0967
 8617TIP3    H147342   5.005   4.687   5.346  0.0002 -1.1383  0.5350
 8617TIP3    H247343   4.983   4.830   5.389  0.1508 -0.5597 -1.2429
 8618TIP3   OH247344   0.338   6.070   1.223  0.6930  0.9674 -0.2752
 8618TIP3    H147345   0.308   6.042   1.137 -1.0972  0.4915  0.4437
 8618TIP3    H247346   0.313   6.162   1.229  1.0627  1.0749 -0.3558
 8619TIP3   OH247347   3.495   0.258   5.778 -0.5483 -0.0175  0.0725
 8619TIP3    H147348   3.587   0.230   5.781 -1.0763 -1.8650  1.8953
 8619TIP3    H247349   3.477   0.287   5.867 -1.3752  1.7319 -0.6347
 8620TIP3   OH247350   0.715   4.261  17.299 -0.0925  0.7626 -0.6604
 8620TIP3    H147351   0.710   4.242  17.205  1.8504 -0.7568 -0.5141
 8620TIP3    H247352   0.627   4.244  17.331  0.0713 -2.4872 -1.6046
 8621TIP3   OH247353   1.511   3.385  13.882  0.4778  0.8431 -0.2012
 8621TIP3    H147354   1.428   3.341  13.901 -1.0096  1.9446 -3.3321
 8621TIP3    H247355   1.570   3.357  13.951 -1.6850 -2.2678  0.5794
 8622TIP3   OH247356   1.690   2.610   3.299  0.1160  0.1739  0.0044
 8622TIP3    H147357   1.699   2.554   3.221 -0.2157  0.4921 -0.2665
 8622TIP3    H247358   1.770   2.594   3.349 -1.9445 -4.3413  2.4905
 8623TIP3   OH247359   0.397   3.777  12.736 -0.4771 -0.3814  0.4522
 8623TIP3    H147360   0.491   3.763  12.729 -0.0870  2.0144 -0.0033
 8623TIP3    H247361   0.377   3.758  12.828  0.5255 -0.5254  0.6482
 8624TIP3   OH247362   3.120   4.117   5.116  0.2357 -0.1379 -0.1887
 8624TIP3    H147363   3.049   4.054   5.130  0.4379 -0.2714  0.2494
 8624TIP3    H247364   3.156   4.133   5.203 -0.3807  1.2691 -0.1627
 8625TIP3   OH247365   5.593   4.176   4.834 -0.1549 -0.1926  0.0829
 8625TIP3    H147366   5.547   4.092   4.828 -0.1554 -0.1114 -1.2721
 8625TIP3    H247367   5.685   4.152   4.845 -0.2292 -0.3624  0.3480
 8626TIP3   OH247368   0.220   0.034  17.321  0.2406 -0.1704 -0.1036
 8626TIP3    H147369   0.202   0.125  17.344  0.5276  0.2750 -1.5786
 8626TIP3    H247370   0.137  -0.012  17.336  0.5762 -0.1037  2.5038
 8627TIP3   OH247371   4.409   1.773  15.322  0.6188 -0.1408 -0.2303
 8627TIP3    H147372   4.485   1.718  15.338  1.2622  0.8720  0.3435
 8627TIP3    H247373   4.396   1.820  15.405 -1.0129 -0.7344 -0.1019
 8628TIP3   OH247374   3.500   2.136   1.079  1.0673 -0.1615 -0.1256
 8628TIP3    H147375   3.554   2.135   1.000  1.8367  1.9109  0.2963
 8628TIP3    H247376   3.544   2.199   1.137 -1.2579  0.8939  0.6278
 8629TIP3   OH247377   4.306   6.654  12.263 -0.1208  0.1027  0.2373
 8629TIP3    H147378   4.393   6.661  12.301  0.4433  2.5556 -1.2302
 8629TIP3    H247379   4.247   6.679  12.334  0.7596  2.6318  0.1912
 8630TIP3   OH247380   0.348   3.697  14.111  0.0662  0.1208  0.4062
 8630TIP3    H147381   0.368   3.693  14.017 -0.2750  1.3484  0.2642
 8630TIP3    H247382   0.272   3.640  14.122  0.1712 -0.1107 -0.0368
 8631TIP3   OH247383   4.313   5.139   6.629  0.3551 -0.1700  0.2727
 8631TIP3    H147384   4.222   5.144   6.658  0.3274  2.1184 -0.0065
 8631TIP3    H247385   4.350   5.224   6.653  1.9021 -0.3595 -1.2643
 8632TIP3   OH247386   6.237   0.326   2.387 -0.5048 -0.6711  0.3012
 8632TIP3    H147387   6.320   0.344   2.430 -1.0827  3.7801  0.0306
 8632TIP3    H247388   6.171   0.366   2.443 -2.1239 -1.1843 -1.1299
 8633TIP3   OH247389   2.470   2.866  17.265 -0.5447 -0.1588  0.5663
 8633TIP3    H147390   2.418   2.917  17.328 -1.0317  0.2720 -0.1688
 8633TIP3    H247391   2.451   2.906  17.180  0.7587 -0.2020  0.2354
 8634TIP3   OH247392   0.307   4.060  10.850  0.6415 -0.1302  0.0552
 8634TIP3    H147393   0.286   4.066  10.757  0.3178 -0.4376  0.1033
 8634TIP3    H247394   0.281   3.971  10.874  1.0875 -0.1868  0.3514
 8635TIP3   OH247395   4.389   4.515   5.142 -0.7159 -0.2294  0.0690
 8635TIP3    H147396   4.411   4.526   5.235 -0.1163 -0.9328  0.0106
 8635TIP3    H247397   4.297   4.488   5.143 -0.6752 -0.3663  0.4603
 8636TIP3   OH247398   6.720   3.868   1.971  0.6981  0.0047 -0.1649
 8636TIP3    H147399   6.652   3.804   1.947 -0.1292  1.1298 -0.9000
 8636TIP3    H247400   6.802   3.820   1.960  0.1177 -0.8304 -1.0528
 8637TIP3   OH247401   2.823   2.413  14.549  0.5489  0.2001  0.1588
 8637TIP3    H147402   2.831   2.376  14.461  2.9514 -0.5724  0.6171
 8637TIP3    H247403   2.888   2.483  14.552 -2.2336  3.0152  0.1264
 8638TIP3   OH247404   5.361   3.928   0.777  0.1278  0.7782 -0.4989
 8638TIP3    H147405   5.347   3.841   0.739 -1.1378  0.5939  0.3090
 8638TIP3    H247406   5.309   3.927   0.858  1.7780  1.5517  0.6318
 8639TIP3   OH247407   1.654   1.297   3.263 -0.4560  0.3700  0.1438
 8639TIP3    H147408   1.682   1.222   3.213 -0.6200  0.4843 -0.1239
 8639TIP3    H247409   1.567   1.318   3.228 -1.1111 -0.2899  1.2861
 8640TIP3   OH247410   6.343   4.979   5.436  0.0995  0.6249 -0.0863
 8640TIP3    H147411   6.325   4.891   5.469 -2.5612  1.5408  1.2431
 8640TIP3    H247412   6.437   4.979   5.419  0.4530 -2.0264  1.2303
 8641TIP3   OH247413   0.032   6.180   6.006  0.8539 -0.3644 -0.2495
 8641TIP3    H147414   0.062   6.179   6.097 -1.2526 -0.1972  0.5086
 8641TIP3    H247415   0.019   6.088   5.984  1.7037 -0.4248 -0.5091
 8642TIP3   OH247416   5.957   6.559  17.165  0.5012 -0.5285  0.2547
 8642TIP3    H147417   5.873   6.604  17.161  1.1925  0.7591 -0.1498
 8642TIP3    H247418   5.956   6.497  17.092  0.3937  0.3658 -0.5122
 8643TIP3   OH247419   3.444   6.237   4.542  0.0019  0.0103 -0.2256
 8643TIP3    H147420   3.354   6.227   4.574  0.6206 -0.9241  1.3382
 8643TIP3    H247421   3.436   6.230   4.447 -1.4786 -1.0840 -0.0684
 8644TIP3   OH247422   1.404   5.781  11.672  0.4455  0.1020  0.5407
 8644TIP3    H147423   1.339   5.823  11.728 -0.4222 -1.3701  0.6765
 8644TIP3    H247424   1.387   5.817  11.585  1.0163  1.4851  0.9618
 8645TIP3   OH247425   5.091   0.934  14.254  0.5740  0.3893 -0.3647
 8645TIP3    H147426   5.089   0.978  14.169  0.8929 -0.7823 -0.9961
 8645TIP3    H247427   5.007   0.955  14.294  0.4961  1.0998 -0.8842
 8646TIP3   OH247428   4.266   0.070   0.992 -0.6274  0.2086 -0.1311
 8646TIP3    H147429   4.276   0.161   0.962  0.2740 -0.1238 -0.8674
 8646TIP3    H247430   4.326   0.020   0.937  1.3374 -0.4100  2.3997
 8647TIP3   OH247431   1.718   5.597  16.356 -0.6133 -0.2109 -0.1046
 8647TIP3    H147432   1.679   5.612  16.270  0.6697  0.6199 -0.5635
 8647TIP3    H247433   1.719   5.683  16.398  2.5714  0.2695 -0.9288
 8648TIP3   OH247434   6.125   3.169  16.285  0.0673  0.0954  0.1940
 8648TIP3    H147435   6.101   3.189  16.375  1.9969  0.1111  0.7409
 8648TIP3    H247436   6.179   3.090  16.291 -1.0949 -0.8495 -1.1408
 8649TIP3   OH247437   3.186   0.159   3.510  0.3467  0.8030 -0.5924
 8649TIP3    H147438   3.267   0.209   3.500  0.2794  1.2532  0.8546
 8649TIP3    H247439   3.214   0.072   3.537  0.3421  1.0225  0.1230
 8650TIP3   OH247440   2.804   0.096  14.036  0.1368  0.3133 -0.5467
 8650TIP3    H147441   2.750   0.168  14.070 -1.0448 -0.8567  0.1120
 8650TIP3    H247442   2.829   0.047  14.114 -1.7587 -1.8329 -1.2005
 8651TIP3   OH247443   0.577   0.395  16.260  0.3206  0.6687  0.3924
 8651TIP3    H147444   0.532   0.475  16.233  0.3562  1.0741  1.4815
 8651TIP3    H247445   0.561   0.333  16.189 -0.1872  1.4625 -0.2032
 8652TIP3   OH247446   1.101   3.193   2.370  0.2842  0.0507  0.2138
 8652TIP3    H147447   1.070   3.274   2.409 -1.2012 -0.4298  0.1046
 8652TIP3    H247448   1.151   3.150   2.440  1.8548  1.4297 -0.0113
 8653TIP3   OH247449   5.227   2.389   3.701 -0.3104  0.0142 -0.0409
 8653TIP3    H147450   5.193   2.386   3.611  1.6079  0.9472 -0.8505
 8653TIP3    H247451   5.245   2.298   3.723  1.3454 -0.0655 -1.5106
 8654TIP3   OH247452   4.462   0.275   5.509 -0.0621  0.5713 -0.0074
 8654TIP3    H147453   4.532   0.236   5.456 -0.0825  0.2644  0.1891
 8654TIP3    H247454   4.415   0.200   5.546  0.7601  0.7764  1.5251
 8655TIP3   OH247455   0.138   0.075   2.020 -0.0053 -0.1705 -0.9924
 8655TIP3    H147456   0.047   0.082   1.991 -0.1974 -0.2759 -0.4257
 8655TIP3    H247457   0.155   0.157   2.068  0.6191  0.4486 -2.2181
 8656TIP3   OH247458   4.614   1.644  13.967  0.0107  0.1971  0.1058
 8656TIP3    H147459   4.634   1.641  14.061 -0.1602  0.8876  0.1700
 8656TIP3    H247460   4.620   1.737  13.944  1.2080 -0.0828 -0.8207
 8657TIP3   OH247461   2.410   6.409   1.330  0.0976 -0.0452  0.5502
 8657TIP3    H147462   2.392   6.356   1.407  0.3384 -2.2806 -0.8346
 8657TIP3    H247463   2.431   6.345   1.261  0.9873  1.8898 -1.0851
 8658TIP3   OH247464   4.411   0.955   4.141  0.1528  0.1082  0.2800
 8658TIP3    H147465   4.367   0.871   4.154  2.8448 -1.6279 -0.8512
 8658TIP3    H247466   4.384   0.983   4.054  1.1257 -0.9474 -0.4061
 8659TIP3   OH247467   3.301   3.476  11.964 -0.6572 -0.7800  0.0535
 8659TIP3    H147468   3.311   3.476  12.060  0.3019 -1.9307 -0.0268
 8659TIP3    H247469   3.385   3.506  11.931 -1.2131  0.3260 -0.4523
 8660TIP3   OH247470   6.292   5.827  13.812 -0.4431 -0.7025 -0.5919
 8660TIP3    H147471   6.275   5.866  13.726  0.0809  1.4882  0.2301
 8660TIP3    H247472   6.328   5.899  13.864  0.0528 -2.1907  1.2245
 8661TIP3   OH247473   0.418   6.221  15.603  0.0697 -0.4170 -0.2777
 8661TIP3    H147474   0.466   6.147  15.565  2.1248  0.1195  1.0507
 8661TIP3    H247475   0.434   6.294  15.543  1.3016 -0.1524  0.3383
 8662TIP3   OH247476   0.218   2.853   3.756 -0.8048 -0.2875 -0.2362
 8662TIP3    H147477   0.251   2.943   3.757 -0.3319 -0.4595 -0.0138
 8662TIP3    H247478   0.137   2.857   3.807 -1.1021  0.1274 -0.7401
 8663TIP3   OH247479   6.467   0.724  12.399  0.7517  0.0513 -0.1014
 8663TIP3    H147480   6.559   0.701  12.381  0.1280 -2.0683 -0.8928
 8663TIP3    H247481   6.432   0.749  12.314  0.4453  0.2706  0.0910
 8664TIP3   OH247482   1.691   6.584  15.981 -0.0370  0.1266 -0.6746
 8664TIP3    H147483   1.603   6.617  16.000  1.0518  2.6582  0.5080
 8664TIP3    H247484   1.698   6.504  16.033 -1.7452 -0.3065 -1.0711
 8665TIP3   OH247485   0.783   1.269  15.450 -0.4230  0.2874  0.4283
 8665TIP3    H147486   0.841   1.344  15.448  0.2421 -0.2311  0.1089
 8665TIP3    H247487   0.757   1.255  15.359 -1.1855  0.6132  0.5860
 8666TIP3   OH247488   1.802   5.136  13.337 -0.0579  0.2065 -0.0090
 8666TIP3    H147489   1.777   5.114  13.248  0.1578 -0.1783  0.0213
 8666TIP3    H247490   1.819   5.230  13.335 -0.8981  0.3611 -0.1684
 8667TIP3   OH247491   2.820   0.294  12.692  0.3050 -0.0129  0.9493
 8667TIP3    H147492   2.757   0.222  12.700  0.3820 -0.0866  0.8947
 8667TIP3    H247493   2.802   0.333  12.607  1.0125 -0.6831  0.4825
 8668TIP3   OH247494   4.143   0.278   0.634  0.0519 -0.2498 -0.0478
 8668TIP3    H147495   4.194   0.244   0.560  2.2888  1.4843  0.5805
 8668TIP3    H247496   4.186   0.361   0.656 -2.2440  0.6372  1.4689
 8669TIP3   OH247497   2.502   4.378   5.433  0.1155  0.2962 -0.4301
 8669TIP3    H147498   2.502   4.284   5.414 -0.2327  0.1372  0.3446
 8669TIP3    H247499   2.589   4.407   5.405  0.1303 -0.1994 -0.9317
 8670TIP3   OH247500   2.211   2.970   4.333  0.4283 -0.2420 -1.0003
 8670TIP3    H147501   2.124   2.932   4.342  0.9147 -0.9882  1.4342
 8670TIP3    H247502   2.269   2.895   4.319  0.8433  0.1242 -1.2976
 8671TIP3   OH247503   5.283   6.497   6.661  0.2800  0.3016  0.0926
 8671TIP3    H147504   5.253   6.519   6.749 -0.5982  2.1439 -0.6339
 8671TIP3    H247505   5.204   6.472   6.614  0.7876 -0.9937 -0.1235
 8672TIP3   OH247506   1.527   1.793  11.390  0.3084  0.5159  0.1694
 8672TIP3    H147507   1.453   1.842  11.354  0.9678  1.4476  0.0441
 8672TIP3    H247508   1.528   1.711  11.339 -1.3879 -0.0911  1.0263
 8673TIP3   OH247509   1.727   0.630   4.629 -0.3069  0.5402  0.0093
 8673TIP3    H147510   1.719   0.536   4.645  0.6867  0.0237 -2.0712
 8673TIP3    H247511   1.651   0.669   4.671 -1.7442 -1.4249 -0.6387
 8674TIP3   OH247512   5.535   5.318   6.197  0.0641 -0.4476 -0.1768
 8674TIP3    H147513   5.526   5.242   6.255  0.0064  0.3145  0.8351
 8674TIP3    H247514   5.628   5.340   6.200  0.2983 -1.1523 -1.3812
 8675TIP3   OH247515   2.258   6.107  16.454  0.2859 -0.0238  0.5794
 8675TIP3    H147516   2.272   6.045  16.382  1.2787  0.2906  0.4884
 8675TIP3    H247517   2.263   6.193  16.413 -0.0260  0.1393  0.8787
 8676TIP3   OH247518   0.006   3.372   5.971 -0.2729  0.0684  0.0067
 8676TIP3    H147519   0.077   3.423   6.010  0.3701 -0.9171  0.1362
 8676TIP3    H247520   0.000   3.294   6.024 -1.4718  0.1354 -0.0007
 8677TIP3   OH247521   0.118   5.604  11.311 -0.5994 -0.2777 -0.2954
 8677TIP3    H147522   0.140   5.513  11.290  0.8378 -0.0670  0.2329
 8677TIP3    H247523   0.090   5.642  11.227  1.4508 -0.4629 -1.1086
 8678TIP3   OH247524   0.589   4.970  13.241 -0.3361 -0.1125 -0.0449
 8678TIP3    H147525   0.560   4.892  13.195 -0.6820  0.6527 -1.1673
 8678TIP3    H247526   0.612   4.939  13.329  0.9341 -1.7015 -0.9008
 8679TIP3   OH247527   4.196   2.685  14.882 -0.5010 -0.1189  0.4759
 8679TIP3    H147528   4.107   2.679  14.848 -0.1651  0.2380 -0.4938
 8679TIP3    H247529   4.236   2.602  14.859 -0.0070  0.4453 -0.8428
 8680TIP3   OH247530   3.755   0.597  10.416  0.5942 -0.0655 -0.3845
 8680TIP3    H147531   3.747   0.522  10.476  1.3113 -0.1699 -0.4115
 8680TIP3    H247532   3.683   0.585  10.354 -0.5066  0.3465  0.7668
 8681TIP3   OH247533   4.883   0.369  16.284 -0.3185  0.3397 -0.0117
 8681TIP3    H147534   4.906   0.321  16.205 -1.0188 -1.1878  0.6643
 8681TIP3    H247535   4.797   0.336  16.308 -0.8123  1.9282  0.5295
 8682TIP3   OH247536   4.055   3.248  12.182 -0.3787  0.3040  0.5194
 8682TIP3    H147537   4.015   3.167  12.215 -2.4502  1.2527  0.4801
 8682TIP3    H247538   4.065   3.233  12.088 -0.3168 -0.0680  0.5825
 8683TIP3   OH247539   0.965   1.706   1.632  0.3842  0.0977 -0.1536
 8683TIP3    H147540   1.049   1.666   1.655  0.4956  0.2612 -0.2749
 8683TIP3    H247541   0.984   1.759   1.555  0.2123  0.2981 -0.0593
 8684TIP3   OH247542   1.315   5.307  17.214  0.4701 -0.1849  0.0940
 8684TIP3    H147543   1.307   5.401  17.199 -0.8500 -0.4633 -1.1357
 8684TIP3    H247544   1.361   5.273  17.137  0.1042 -0.6611  0.0754
 8685TIP3   OH247545   3.416   1.405  15.243 -0.6811  0.0801  0.3705
 8685TIP3    H147546   3.415   1.482  15.187 -1.9771 -0.5743 -0.5623
 8685TIP3    H247547   3.327   1.401  15.280 -0.7125 -1.0840  0.2046
 8686TIP3   OH247548   0.199   4.575   4.514 -0.0052  0.4620 -0.0259
 8686TIP3    H147549   0.134   4.528   4.566  1.3840 -0.2468  1.1531
 8686TIP3    H247550   0.164   4.663   4.506 -1.3994 -0.0594  0.0213
 8687TIP3   OH247551   0.059   4.816   4.476 -0.0136 -0.5107  0.4377
 8687TIP3    H147552   0.082   4.902   4.510  0.0720  0.2148 -1.3156
 8687TIP3    H247553   0.090   4.818   4.385 -3.2871 -0.9526 -0.8283
 8688TIP3   OH247554   3.474   5.059  12.619 -0.0357  0.2258 -0.1304
 8688TIP3    H147555   3.555   5.016  12.647 -1.1579 -1.6509  0.4822
 8688TIP3    H247556   3.406   4.994  12.638 -1.6817  1.7388 -0.6326
 8689TIP3   OH247557   2.250   1.667   3.070 -0.0615 -0.0206  0.2986
 8689TIP3    H147558   2.336   1.697   3.097 -0.5773  1.3368  0.4772
 8689TIP3    H247559   2.199   1.664   3.151 -0.6750  0.9076 -0.0383
 8690TIP3   OH247560   5.441   4.883   4.125 -0.2696  0.5609 -0.0027
 8690TIP3    H147561   5.365   4.827   4.141 -1.3491  1.2387 -2.3696
 8690TIP3    H247562   5.509   4.823   4.096 -0.7373  0.2371 -0.4450
 8691TIP3   OH247563   5.378   6.586  16.242 -0.4325  0.2594  0.3935
 8691TIP3    H147564   5.352   6.561  16.331 -0.5069  0.0921  0.3243
 8691TIP3    H247565   5.303   6.563  16.188  0.2684 -1.2357  0.0286
 8692TIP3   OH247566   1.240   1.432   3.284  0.3581  0.0866  0.3306
 8692TIP3    H147567   1.174   1.466   3.223 -0.8772 -0.5069  1.3102
 8692TIP3    H247568   1.242   1.496   3.355  1.4415  0.5158 -0.0566
 8693TIP3   OH247569   4.133   6.347  15.776  0.3441  0.0281 -0.0628
 8693TIP3    H147570   4.211   6.402  15.771  1.5264 -1.4080  1.3709
 8693TIP3    H247571   4.069   6.401  15.822  0.8588  0.8465 -0.2934
 8694TIP3   OH247572   0.895   6.743  11.288 -0.2974  0.2867 -0.2921
 8694TIP3    H147573   0.929   6.697  11.211 -1.8576 -0.3498 -0.6495
 8694TIP3    H247574   0.868   6.673  11.348  0.4960  0.7768  0.6553
 8695TIP3   OH247575   1.031   0.477  14.643 -0.9448 -0.3053 -0.4483
 8695TIP3    H147576   1.078   0.402  14.678 -0.1344  0.5331  0.2918
 8695TIP3    H247577   1.011   0.531  14.719 -0.7345  0.6722 -1.0658
 8696TIP3   OH247578   4.034   5.101  15.452 -0.0507 -0.1875 -0.1124
 8696TIP3    H147579   4.019   5.128  15.361  1.4635 -0.9073 -0.6126
 8696TIP3    H247580   4.099   5.164  15.484  1.9982 -1.9156 -0.6540
 8697TIP3   OH247581   3.094   1.913  17.041 -0.0584 -0.5008  0.1611
 8697TIP3    H147582   3.185   1.886  17.051 -0.1653 -0.1035  2.8477
 8697TIP3    H247583   3.090   2.000  17.081 -1.3785  0.0689 -1.0848
 8698TIP3   OH247584   6.477   0.032  11.434 -0.3689  0.4131  0.4454
 8698TIP3    H147585   6.560  -0.014  11.430  0.5181  1.9972 -0.2924
 8698TIP3    H247586   6.426  -0.004  11.362  1.0731  1.8823 -1.4297
 8699TIP3   OH247587   6.128   4.022   0.433  0.3849  0.3090  0.4101
 8699TIP3    H147588   6.087   3.997   0.515 -1.1158  0.2664 -0.3103
 8699TIP3    H247589   6.055   4.051   0.377  1.0024 -1.9099 -1.7264
 8700TIP3   OH247590   3.369   6.540   0.884  0.2221 -0.1584 -0.6931
 8700TIP3    H147591   3.383   6.453   0.922  0.4355  0.7389  1.4785
 8700TIP3    H247592   3.276   6.558   0.899  0.4370  0.4463  0.0278
 8701TIP3   OH247593   5.704   3.314  12.081  0.4148  0.5713  0.1638
 8701TIP3    H147594   5.725   3.241  12.138 -1.2528  0.0504  0.1580
 8701TIP3    H247595   5.639   3.279  12.020  1.4082  1.3888 -1.4339
 8702TIP3   OH247596   5.217   2.102  16.382  0.3773 -0.0250 -0.2325
 8702TIP3    H147597   5.146   2.040  16.398  1.3580 -1.1760 -0.1117
 8702TIP3    H247598   5.185   2.158  16.312 -0.6216 -0.5598 -0.2250
 8703TIP3   OH247599   2.055   5.733   0.258 -0.5996 -0.6720  0.5899
 8703TIP3    H147600   2.143   5.764   0.238 -0.6622 -1.6532 -1.4057
 8703TIP3    H247601   2.000   5.811   0.251 -0.6334 -0.8925 -3.5288
 8704TIP3   OH247602   2.184   1.872  16.852 -0.0025 -0.6994 -0.4188
 8704TIP3    H147603   2.233   1.914  16.923  0.2704 -1.1282 -0.3524
 8704TIP3    H247604   2.098   1.914  16.855 -0.0790 -0.8877  0.3348
 8705TIP3   OH247605   6.604   0.910   3.154  0.0104 -0.2529  0.3863
 8705TIP3    H147606   6.531   0.972   3.149  0.5900  0.4500  0.4769
 8705TIP3    H247607   6.562   0.824   3.157 -0.7706  0.0104 -1.5706
 8706TIP3   OH247608   3.592   0.401  16.050 -0.7698 -0.2890 -0.2071
 8706TIP3    H147609   3.665   0.359  16.095 -0.2253  0.6251 -0.2148
 8706TIP3    H247610   3.522   0.402  16.115 -0.0008  0.9813  0.6464
 8707TIP3   OH247611   0.705   1.739   5.841  0.0236 -0.6811  0.9051
 8707TIP3    H147612   0.614   1.743   5.810 -0.3173 -0.9651  1.8504
 8707TIP3    H247613   0.715   1.651   5.877  1.7672 -2.0222 -2.3599
 8708TIP3   OH247614   0.650   1.409   1.370 -0.1213  0.2047 -0.0900
 8708TIP3    H147615   0.612   1.327   1.340  1.2695  0.3348 -2.4407
 8708TIP3    H247616   0.738   1.386   1.399 -0.3152  0.6342  0.9003
 8709TIP3   OH247617   0.109   2.919   2.036  0.8999  0.4081 -0.1571
 8709TIP3    H147618   0.147   2.832   2.047 -0.5039 -0.0813  1.1619
 8709TIP3    H247619   0.037   2.906   1.974  1.1617  0.7963 -0.5502
 8710TIP3   OH247620   2.067   3.276   2.640  0.4200  0.0211 -0.6509
 8710TIP3    H147621   2.135   3.343   2.645 -0.3347  0.7168  1.9218
 8710TIP3    H247622   2.087   3.217   2.713 -0.3916 -1.1205 -1.3241
 8711TIP3   OH247623   6.540   5.969   3.907 -0.2397 -0.0423  0.0322
 8711TIP3    H147624   6.482   6.014   3.845  0.8350  0.1988 -0.8131
 8711TIP3    H247625   6.628   5.981   3.872  0.2706 -1.0535  0.9007
 8712TIP3   OH247626   4.760   5.761  14.760 -0.1312 -0.4049  0.4396
 8712TIP3    H147627   4.855   5.771  14.759 -0.2492  0.8376  0.4315
 8712TIP3    H247628   4.743   5.688  14.700  0.8910 -1.5326  1.4736
 8713TIP3   OH247629   6.666   1.136  11.462  0.8124  0.3287 -0.6106
 8713TIP3    H147630   6.614   1.216  11.466  2.6509  1.6963 -1.9586
 8713TIP3    H247631   6.728   1.145  11.534  0.7720 -0.0605 -0.5284
 8714TIP3   OH247632   1.994   2.459  15.257  0.3392 -0.0168 -0.1180
 8714TIP3    H147633   1.968   2.367  15.258  0.7187 -0.3362 -3.9921
 8714TIP3    H247634   1.915   2.507  15.281 -0.6017 -1.2985 -0.5479
 8715TIP3   OH247635   0.053   6.597  11.109 -0.1208 -0.6048 -0.1467
 8715TIP3    H147636   0.013   6.574  11.025 -0.4404  2.2690 -0.8905
 8715TIP3    H247637   0.144   6.614  11.088 -0.2536  0.3503  0.0190
 8716TIP3   OH247638   4.428   5.623  17.172  0.1722 -0.1290 -0.1907
 8716TIP3    H147639   4.416   5.714  17.147  2.1153 -0.0980 -1.1920
 8716TIP3    H247640   4.360   5.576  17.123  0.7287  0.5178 -1.6527
 8717TIP3   OH247641   5.827   5.253  12.492 -0.2413 -0.2159 -0.4897
 8717TIP3    H147642   5.916   5.241  12.459  0.0813 -0.2438  0.3574
 8717TIP3    H247643   5.771   5.222  12.422  0.3108  2.3544 -2.1998
 8718TIP3   OH247644   0.809   1.134  13.401 -0.4152 -0.6619 -0.2806
 8718TIP3    H147645   0.816   1.186  13.481 -2.4503  0.5459 -0.8291
 8718TIP3    H247646   0.855   1.052  13.422  2.1686  0.9449  0.8924
 8719TIP3   OH247647   2.309   6.406   5.893 -0.0739 -0.5759 -0.1651
 8719TIP3    H147648   2.233   6.413   5.951 -0.7557 -1.2970 -0.9414
 8719TIP3    H247649   2.275   6.430   5.807  1.2131  1.7558 -0.1053
 8720TIP3   OH247650   3.506   5.362  15.513 -0.1262 -0.0410 -0.1567
 8720TIP3    H147651   3.432   5.308  15.541 -0.0024 -0.2979 -0.3268
 8720TIP3    H247652   3.466   5.444  15.485 -0.3173 -0.0566  0.0660
 8721TIP3   OH247653   2.999   4.577   2.326  0.3112 -0.7715 -0.4329
 8721TIP3    H147654   3.080   4.624   2.347 -0.1506  0.5239 -1.4079
 8721TIP3    H247655   3.025   4.511   2.263  0.5957 -0.2034 -0.9256
 8722TIP3   OH247656   0.841   0.483   1.655  0.1001 -0.0738 -0.2176
 8722TIP3    H147657   0.914   0.461   1.598 -0.1237 -0.2502 -0.4395
 8722TIP3    H247658   0.772   0.421   1.631  0.3046 -0.7540  0.8602
 8723TIP3   OH247659   4.952   1.739  12.261  0.4185 -1.1819  0.3290
 8723TIP3    H147660   5.016   1.740  12.189 -0.4363 -0.5970 -0.4461
 8723TIP3    H247661   4.888   1.673  12.235 -2.0577  1.6453 -1.4769
 8724TIP3   OH247662   1.690   0.899   5.476 -0.4802  0.0251 -0.5205
 8724TIP3    H147663   1.627   0.955   5.431 -0.0127  1.8077  0.9445
 8724TIP3    H247664   1.718   0.950   5.552 -0.2367 -2.3008  1.0617
 8725TIP3   OH247665   1.009   5.724   0.232  0.2720 -0.0025  0.0584
 8725TIP3    H147666   1.014   5.691   0.142  0.3352 -1.6251  0.6295
 8725TIP3    H247667   1.089   5.775   0.243  1.4735 -1.7668 -0.0742
 8726TIP3   OH247668   5.716   2.824  15.979 -0.3774 -0.5060  0.0360
 8726TIP3    H147669   5.707   2.890  15.910 -1.2981 -0.8632 -0.2062
 8726TIP3    H247670   5.808   2.828  16.004 -0.5206  1.2083  0.3802
 8727TIP3   OH247671   1.751   4.488   5.861  0.4315  0.5651 -0.6565
 8727TIP3    H147672   1.711   4.572   5.838 -1.0381 -0.0030 -0.3043
 8727TIP3    H247673   1.695   4.422   5.820  0.8705 -0.2793  0.0457
 8728TIP3   OH247674   2.914   0.090   6.121  0.5555 -0.3656  0.6145
 8728TIP3    H147675   2.880   0.002   6.141  0.9351 -0.2774  1.7356
 8728TIP3    H247676   2.963   0.114   6.200  1.2964  0.4412 -0.0850
 8729TIP3   OH247677   6.274   3.384  16.124 -0.4156  0.1058 -0.5876
 8729TIP3    H147678   6.235   3.305  16.160 -0.4737  0.1944 -0.4547
 8729TIP3    H247679   6.362   3.357  16.097  0.5461  0.5448  1.7641
 8730TIP3   OH247680   1.519   2.684  16.294  0.1408 -0.3088 -0.4048
 8730TIP3    H147681   1.494   2.611  16.351 -0.5811 -0.2660 -0.6667
 8730TIP3    H247682   1.532   2.757  16.353 -0.9077 -0.1847 -0.3142
 8731TIP3   OH247683   6.428   2.492   3.595  0.2455 -0.3506  0.0894
 8731TIP3    H147684   6.333   2.492   3.587  0.0403 -2.0953  1.6229
 8731TIP3    H247685   6.446   2.562   3.658 -0.1970 -0.9639  0.9249
 8732TIP3   OH247686   2.573   0.632  11.184  0.0435  0.1707 -0.4209
 8732TIP3    H147687   2.546   0.723  11.199  0.7177  0.1165  1.2777
 8732TIP3    H247688   2.492   0.588  11.157 -0.5770  0.9835  0.0643
 8733TIP3   OH247689   4.654   4.089   1.864 -0.7828 -0.1801  0.7587
 8733TIP3    H147690   4.615   4.176   1.854  2.1673  1.3367  1.1177
 8733TIP3    H247691   4.718   4.083   1.793 -1.0622 -2.1751  0.6216
 8734TIP3   OH247692   4.033   0.817  10.698 -0.0545  0.3252  0.7523
 8734TIP3    H147693   4.002   0.744  10.751 -1.1593  1.1492  1.3113
 8734TIP3    H247694   4.122   0.833  10.728  0.4607 -1.2045  0.1300
 8735TIP3   OH247695   1.413   6.654   1.215  0.1242 -0.1614 -0.0691
 8735TIP3    H147696   1.444   6.737   1.177 -0.0820 -0.4154 -0.8097
 8735TIP3    H247697   1.401   6.674   1.308  2.7208 -0.1089  0.3306
 8736TIP3   OH247698   5.029   1.843  13.433 -0.0289  0.6602  0.0326
 8736TIP3    H147699   4.941   1.809  13.444 -0.5585  1.3802 -1.5746
 8736TIP3    H247700   5.056   1.871  13.520 -1.7446  1.2185  0.4181
 8737TIP3   OH247701   6.453   6.373  14.505  0.8807  0.7067 -0.9040
 8737TIP3    H147702   6.421   6.301  14.560 -1.0329  0.2193 -2.5310
 8737TIP3    H247703   6.542   6.347  14.481  0.9422 -0.1304  0.1565
 8738TIP3   OH247704   0.126   6.633   1.631 -0.2485 -0.0630 -0.1302
 8738TIP3    H147705   0.100   6.578   1.705 -1.6863 -0.4672 -0.9018
 8738TIP3    H247706   0.063   6.705   1.630 -0.1740  0.0040 -0.8781
 8739TIP3   OH247707   5.268   3.345   0.521 -0.0404 -0.1918  0.3222
 8739TIP3    H147708   5.243   3.423   0.473  1.4578  0.0651 -0.1116
 8739TIP3    H247709   5.322   3.295   0.459  0.5504 -0.6512  1.1812
 8740TIP3   OH247710   4.799   1.828   1.884  0.6994  0.5197  0.4304
 8740TIP3    H147711   4.830   1.815   1.795 -1.2547  0.9749 -0.3613
 8740TIP3    H247712   4.865   1.885   1.925  1.5603  0.3909 -0.7438
 8741TIP3   OH247713   4.019   4.437   0.961 -0.8936 -0.0609  0.5698
 8741TIP3    H147714   3.933   4.421   1.001 -0.7039  1.1340  1.5412
 8741TIP3    H247715   4.082   4.419   1.031 -0.3806 -0.5286 -0.0092
 8742TIP3   OH247716   1.855   5.620  14.100 -0.2594  0.2615  0.1544
 8742TIP3    H147717   1.862   5.535  14.056  2.3251  0.3690  0.1700
 8742TIP3    H247718   1.864   5.684  14.029  1.4827  0.4455  0.4902
 8743TIP3   OH247719   3.042   1.971  12.984 -0.2427  0.1728  0.2853
 8743TIP3    H147720   3.032   2.029  12.908  2.9781 -0.5395 -0.8638
 8743TIP3    H247721   3.052   1.884  12.946  0.6707 -0.3081  1.5475
 8744TIP3   OH247722   5.038   6.028  11.262 -0.1630 -0.1341  0.4587
 8744TIP3    H147723   5.020   5.938  11.235  0.7268 -0.6195  1.3761
 8744TIP3    H247724   4.988   6.083  11.201 -1.7527 -1.2744  0.6647
 8745TIP3   OH247725   5.102   2.090  16.768 -0.4195 -0.1386  0.1557
 8745TIP3    H147726   5.193   2.064  16.774 -0.4328 -0.2477 -0.0965
 8745TIP3    H247727   5.053   2.009  16.778 -0.4740 -0.1528 -0.2134
 8746TIP3   OH247728   6.351   6.361  13.515 -0.0913 -0.6780 -0.4407
 8746TIP3    H147729   6.334   6.453  13.495 -1.8400 -1.1173 -1.1258
 8746TIP3    H247730   6.339   6.315  13.432  1.4475 -1.4663 -0.2575
 8747TIP3   OH247731   3.883   5.105  12.617  0.1662 -0.1346 -0.1339
 8747TIP3    H147732   3.971   5.068  12.628  0.3229  0.6338  1.7321
 8747TIP3    H247733   3.892   5.165  12.544  1.1933 -0.1272 -0.0285
 8748TIP3   OH247734   1.225   0.952  15.220 -0.5473  0.0531  0.0179
 8748TIP3    H147735   1.152   0.897  15.247  0.1528 -0.5754  0.6538
 8748TIP3    H247736   1.286   0.892  15.177 -0.7689  0.7123 -1.2637
 8749TIP3   OH247737   4.999   3.195  16.359 -0.2703 -0.0389  0.1084
 8749TIP3    H147738   4.938   3.123  16.340 -1.1585  0.6006  0.5160
 8749TIP3    H247739   4.980   3.220  16.449 -0.6200  1.3275 -0.3225
 8750TIP3   OH247740   1.560   6.414  12.963 -0.6520 -0.0028  0.5014
 8750TIP3    H147741   1.536   6.331  13.006 -3.4454  0.2327 -0.4568
 8750TIP3    H247742   1.492   6.428  12.898  0.2707  2.6224  0.0003
 8751TIP3   OH247743   2.083   6.731   4.058  0.1297 -0.5738 -0.2429
 8751TIP3    H147744   2.047   6.649   4.092 -0.3620  0.2677  1.3555
 8751TIP3    H247745   2.007   6.789   4.050  0.4757 -0.2402 -1.3484
 8752TIP3   OH247746   3.311   4.662  13.872 -0.0320 -0.4887  0.0017
 8752TIP3    H147747   3.257   4.591  13.906  0.9692 -0.9794  0.6184
 8752TIP3    H247748   3.258   4.702  13.803 -0.8578 -1.4428  0.0631
 8753TIP3   OH247749   3.033   3.840  17.179  0.3224 -0.4656  0.0349
 8753TIP3    H147750   2.992   3.833  17.092  0.6806 -1.7186 -0.0580
 8753TIP3    H247751   2.973   3.894  17.230 -0.2996 -0.3934 -0.7595
 8754TIP3   OH247752   2.256   3.206   5.170 -0.4627  0.1082 -0.0637
 8754TIP3    H147753   2.281   3.228   5.081 -3.6628 -0.0629 -1.1357
 8754TIP3    H247754   2.278   3.113   5.179  2.1550  0.6876  0.2979
 8755TIP3   OH247755   3.266   6.720   3.241  0.0053  0.3298  0.0891
 8755TIP3    H147756   3.255   6.632   3.277 -2.3102  1.2510  1.8644
 8755TIP3    H247757   3.355   6.745   3.267  0.1748 -0.9378  0.8432
 8756TIP3   OH247758   5.910   2.307   1.117 -0.0895 -0.1438  0.6217
 8756TIP3    H147759   6.003   2.318   1.096  0.4068 -0.2292  2.5463
 8756TIP3    H247760   5.864   2.357   1.050  1.1762 -2.0503 -1.8252
 8757TIP3   OH247761   3.989   0.500  12.287  0.6094 -0.9192 -0.0512
 8757TIP3    H147762   3.918   0.486  12.349  2.1443 -0.1210  2.0477
 8757TIP3    H247763   4.008   0.594  12.293  4.7872 -1.6510  3.1863
 8758TIP3   OH247764   6.694   0.050  15.005 -0.2729 -0.2440  0.2829
 8758TIP3    H147765   6.657  -0.038  15.008 -1.6708  0.3368  0.8452
 8758TIP3    H247766   6.664   0.091  15.086 -0.3257  1.0186 -0.3517
 8759TIP3   OH247767   2.967   5.252  10.846  0.2868 -0.3003 -0.1158
 8759TIP3    H147768   2.910   5.284  10.776 -0.3301  0.0129  0.5205
 8759TIP3    H247769   2.943   5.160  10.856 -0.3807 -0.0838  0.3903
 8760TIP3   OH247770   2.317   2.984   3.347 -0.4122 -0.0308 -0.1067
 8760TIP3    H147771   2.308   2.920   3.417  0.0828 -0.4685 -0.4354
 8760TIP3    H247772   2.363   2.937   3.278  1.9692  1.3171  0.4812
 8761TIP3   OH247773   6.310   6.118  14.585  0.1311  0.3170  0.0063
 8761TIP3    H147774   6.334   6.052  14.650  0.1891 -1.3027 -1.5835
 8761TIP3    H247775   6.247   6.174  14.631 -0.5764 -1.3383  1.1837
 8762TIP3   OH247776   2.672   4.054  12.777  0.3944  0.0398  0.3051
 8762TIP3    H147777   2.756   4.061  12.822  0.2299  0.6066  0.5398
 8762TIP3    H247778   2.688   4.090  12.690  0.5714 -0.5328  0.0944
 8763TIP3   OH247779   6.673   4.470  11.389 -0.9515  0.0800  0.2204
 8763TIP3    H147780   6.611   4.435  11.325  0.0322 -0.0560 -0.6769
 8763TIP3    H247781   6.720   4.393  11.422  1.2314  0.4685 -1.7736
 8764TIP3   OH247782   0.799   4.059   2.474  0.1750  0.0086  0.1207
 8764TIP3    H147783   0.738   3.994   2.511  1.0700 -1.4236 -0.8137
 8764TIP3    H247784   0.752   4.097   2.400 -0.8747  1.4629  1.4747
 8765TIP3   OH247785   6.528   2.103  17.291 -0.4782 -0.0256 -0.4267
 8765TIP3    H147786   6.514   2.134  17.381  1.4652  1.7261 -0.6619
 8765TIP3    H247787   6.572   2.019  17.301  0.2820  0.4430  0.2812
 8766TIP3   OH247788   6.683   1.497   6.012 -0.0764  0.3679 -0.2878
 8766TIP3    H147789   6.663   1.523   6.102 -0.8078  0.2948 -0.4230
 8766TIP3    H247790   6.641   1.564   5.957 -0.1086  0.1112 -0.5845
 8767TIP3   OH247791   2.181   2.774   6.480  0.1332 -0.3120 -0.0345
 8767TIP3    H147792   2.107   2.715   6.492 -0.4592  0.2175 -0.9606
 8767TIP3    H247793   2.142   2.862   6.481  0.6762 -0.0512 -1.0176
 8768TIP3   OH247794   1.415   6.638   3.842 -0.3905 -0.0080 -0.1910
 8768TIP3    H147795   1.429   6.650   3.936  1.2219  1.5796 -0.5903
 8768TIP3    H247796   1.323   6.610   3.836 -0.2725 -1.0783  1.8924
 8769TIP3   OH247797   5.986   1.905   1.099 -0.3503 -0.3865  0.3588
 8769TIP3    H147798   5.987   1.911   1.195 -0.4686 -0.2600  0.3537
 8769TIP3    H247799   6.038   1.828   1.079 -1.1440 -1.0010  0.5781
 8770TIP3   OH247800   1.885   2.351   4.513  0.1176 -0.0221 -0.0333
 8770TIP3    H147801   1.840   2.294   4.451  0.8952 -1.0938  0.3576
 8770TIP3    H247802   1.954   2.392   4.462  0.4243 -0.4993 -0.0114
 8771TIP3   OH247803   5.146   6.076   5.773 -0.5623  0.1024  0.0458
 8771TIP3    H147804   5.198   6.122   5.839  1.3016  0.0852 -1.3354
 8771TIP3    H247805   5.081   6.028   5.824  0.5498  0.3942  1.8610
 8772TIP3   OH247806   3.217   6.505  13.302  0.2053  0.2650  0.1444
 8772TIP3    H147807   3.301   6.550  13.294  0.5954 -0.5616 -0.7273
 8772TIP3    H247808   3.220   6.464  13.389  0.6320  0.3946  0.1938
 8773TIP3   OH247809   6.044   5.349  13.265 -0.2504  0.4120 -0.0928
 8773TIP3    H147810   5.951   5.368  13.253 -0.2764 -0.3168 -1.1864
 8773TIP3    H247811   6.069   5.397  13.344 -2.1091 -1.1975  1.5933
 8774TIP3   OH247812   4.967   5.492   2.067 -0.8503  0.3650 -0.1584
 8774TIP3    H147813   5.012   5.410   2.091  1.4711  1.4478 -0.5141
 8774TIP3    H247814   4.986   5.503   1.974 -1.8973  0.8875 -0.3240
 8775TIP3   OH247815   0.942   5.524   6.440 -0.8515 -0.6864  0.1116
 8775TIP3    H147816   0.853   5.556   6.460 -0.6034  0.3997 -0.4676
 8775TIP3    H247817   0.996   5.602   6.441  0.0994 -1.3382  0.3848
 8776TIP3   OH247818   4.866   6.247  12.571  0.0676 -0.2183  0.2798
 8776TIP3    H147819   4.932   6.281  12.633 -0.7830  1.6570  0.2331
 8776TIP3    H247820   4.785   6.290  12.597 -1.1015 -2.2099  0.0942
 8777TIP3   OH247821   2.136   2.732   4.560 -0.1310 -0.1220  0.1839
 8777TIP3    H147822   2.080   2.792   4.510  0.7820  0.9140  0.3501
 8777TIP3    H247823   2.215   2.784   4.579 -0.7225 -0.1767  3.3492
 8778TIP3   OH247824   5.273   5.387   5.475 -0.0375 -0.5278 -0.0161
 8778TIP3    H147825   5.301   5.431   5.556 -0.1949 -0.6346  0.0964
 8778TIP3    H247826   5.241   5.302   5.504 -2.9220  0.5346  0.1803
 8779TIP3   OH247827   4.473   0.878   0.554 -0.2941  0.4138  0.6017
 8779TIP3    H147828   4.408   0.822   0.597 -0.3875  0.2633  0.2708
 8779TIP3    H247829   4.431   0.904   0.472  0.3333 -0.2769  0.0459
 8780TIP3   OH247830   5.987   6.073   1.552  0.0043  0.2489  0.3745
 8780TIP3    H147831   6.018   6.126   1.626  0.5701  0.6651 -0.1500
 8780TIP3    H247832   5.909   6.028   1.585  0.8714 -0.4394  1.5863
 8781TIP3   OH247833   4.525   4.325  11.973 -0.1598 -0.2369  0.6382
 8781TIP3    H147834   4.490   4.258  12.031  2.8296 -0.9887  1.7342
 8781TIP3    H247835   4.591   4.370  12.024 -1.4230  3.0747 -0.3647
 8782TIP3   OH247836   1.074   0.249   0.429  0.2864 -0.2443  0.1914
 8782TIP3    H147837   1.163   0.221   0.452  0.0559 -1.1512  0.0214
 8782TIP3    H247838   1.085   0.337   0.392  1.0317 -0.0859  0.7646
 8783TIP3   OH247839   4.266   5.838   0.479 -0.3469 -0.3888 -0.3495
 8783TIP3    H147840   4.279   5.932   0.489  0.1288 -0.6080  1.5617
 8783TIP3    H247841   4.171   5.828   0.467 -0.6839  0.2334  1.4878
 8784TIP3   OH247842   4.564   1.917   5.368 -0.0265 -1.1095 -0.4154
 8784TIP3    H147843   4.576   1.972   5.291 -1.5252 -1.3510 -0.8619
 8784TIP3    H247844   4.652   1.902   5.402  0.5316  0.1705 -1.2586
 8785TIP3   OH247845   5.741   5.436  11.933  0.1937  0.3446  0.0187
 8785TIP3    H147846   5.692   5.504  11.888 -0.4169 -0.6368 -0.8405
 8785TIP3    H247847   5.776   5.381  11.863  0.2477 -0.5197  0.7071
 8786TIP3   OH247848   3.388   5.416   6.554  0.2601 -0.3246 -0.1485
 8786TIP3    H147849   3.481   5.392   6.550  0.5637  0.3013  1.8680
 8786TIP3    H247850   3.342   5.333   6.557  0.7888 -0.6420 -0.5942
 8787TIP3   OH247851   0.090   4.070   2.447  0.6245  0.1940 -0.5717
 8787TIP3    H147852   0.107   4.054   2.354 -0.1003 -2.0003 -0.3696
 8787TIP3    H247853  -0.004   4.082   2.454  0.8421  2.2263 -0.3095
 8788TIP3   OH247854   5.156   3.995  13.827  0.5356  0.1188  0.2284
 8788TIP3    H147855   5.168   4.027  13.738 -0.0641  1.6396  0.6656
 8788TIP3    H247856   5.245   3.987  13.862  0.7252  0.8911 -0.0588
 8789TIP3   OH247857   0.786   2.801  13.571 -0.4218 -0.2216 -0.6643
 8789TIP3    H147858   0.878   2.784  13.593 -0.4501  0.6737  0.2430
 8789TIP3    H247859   0.747   2.714  13.562  0.4016 -0.6119 -0.5599
 8790TIP3   OH247860   1.044   2.448   3.148  0.1281 -0.6221 -0.2754
 8790TIP3    H147861   1.039   2.540   3.173 -1.1906 -1.3916  2.7354
 8790TIP3    H247862   1.072   2.403   3.227 -1.1493 -3.0179 -1.0789
 8791TIP3   OH247863   3.976   2.453   0.076  0.4941 -0.2001  0.1948
 8791TIP3    H147864   3.949   2.408   0.157  0.4448  1.5621  1.1913
 8791TIP3    H247865   4.058   2.496   0.098 -0.7441  2.3619  0.1231
 8792TIP3   OH247866   6.317   4.400  10.856  0.2613 -0.2080  0.2982
 8792TIP3    H147867   6.311   4.313  10.817 -0.6495  0.1756 -0.4428
 8792TIP3    H247868   6.376   4.448  10.799 -0.0916 -0.0204  0.0861
 8793TIP3   OH247869   3.900   2.042   2.048  0.2808  0.3065  0.2752
 8793TIP3    H147870   3.899   1.947   2.049  0.3352  0.3031 -0.0720
 8793TIP3    H247871   3.847   2.067   2.124 -1.4113  0.0024 -0.7554
 8794TIP3   OH247872   3.429   3.224   3.186 -0.2121  0.3682 -0.0048
 8794TIP3    H147873   3.417   3.138   3.227 -0.6482  0.7734  0.7355
 8794TIP3    H247874   3.367   3.281   3.231 -0.1428  1.0100 -0.7013
 8795TIP3   OH247875   2.000   0.928   3.746  0.5154  0.4558  0.3547
 8795TIP3    H147876   2.054   0.949   3.669  1.6074 -1.1987  0.5987
 8795TIP3    H247877   1.980   0.835   3.736 -0.4763  0.5351  1.4008
 8796TIP3   OH247878   3.705   4.691   0.292  0.0799  0.0065  0.1331
 8796TIP3    H147879   3.696   4.677   0.198  0.0473 -0.0478  0.1442
 8796TIP3    H247880   3.774   4.757   0.300  1.5077 -1.4217  0.1465
 8797TIP3   OH247881   2.904   4.670  14.996  0.3411 -0.0972  0.3684
 8797TIP3    H147882   2.921   4.696  15.086  0.4412  0.2263  0.2587
 8797TIP3    H247883   2.855   4.744  14.959  0.8462  0.0485 -0.0170
 8798TIP3   OH247884   1.873   0.588   4.186 -0.0672 -0.5529 -0.2714
 8798TIP3    H147885   1.847   0.673   4.222  1.0917 -0.7146  1.0656
 8798TIP3    H247886   1.848   0.592   4.094  1.4181  1.9195 -0.6743
 8799TIP3   OH247887   6.540   0.367  13.924 -0.5881 -0.2569  0.2981
 8799TIP3    H147888   6.477   0.327  13.864 -0.7693 -1.4450  1.2334
 8799TIP3    H247889   6.610   0.302  13.932 -0.8778 -0.4207  1.8594
 8800TIP3   OH247890   1.941   4.142  14.815  1.2418 -0.1352  0.4017
 8800TIP3    H147891   1.949   4.139  14.719 -0.7383 -0.1340  0.2011
 8800TIP3    H247892   2.003   4.076  14.845 -0.1139 -2.2083 -1.0579
 8801TIP3   OH247893   3.767   6.165   4.489  0.2424 -0.6898  0.0414
 8801TIP3    H147894   3.692   6.105   4.497  0.0031 -0.3932  0.0524
 8801TIP3    H247895   3.838   6.121   4.535 -0.7713  0.4471  2.8983
 8802TIP3   OH247896   3.651   0.329  16.458 -0.8400 -0.0798  0.0602
 8802TIP3    H147897   3.560   0.304  16.472 -0.9142  0.3642  0.3972
 8802TIP3    H247898   3.688   0.259  16.405 -1.1945 -0.6157  0.5149
 8803TIP3   OH247899   1.869   6.725  15.827  0.1310 -0.6247 -0.5250
 8803TIP3    H147900   1.794   6.685  15.870 -0.6759 -0.6937 -1.9461
 8803TIP3    H247901   1.919   6.764  15.898 -0.7792 -1.3337  0.5416
 8804TIP3   OH247902   3.867   2.959   4.831 -0.8748 -0.1243 -0.5717
 8804TIP3    H147903   3.815   2.879   4.840 -1.3854  0.1765 -0.8205
 8804TIP3    H247904   3.816   3.026   4.878  0.0106 -0.1414  0.4673
 8805TIP3   OH247905   6.477   3.157  14.933  0.5171  0.0674 -0.1523
 8805TIP3    H147906   6.526   3.126  14.857  1.4782  1.0357  0.0383
 8805TIP3    H247907   6.391   3.182  14.897  1.4710  1.9785 -1.2588
 8806TIP3   OH247908   3.856   1.266  17.374 -0.2808  0.1442  0.3041
 8806TIP3    H147909   3.907   1.321  17.314  0.1145 -0.2539  0.2728
 8806TIP3    H247910   3.912   1.256  17.451 -0.1383 -0.6202  0.1106
 8807TIP3   OH247911   2.577   5.015  13.598 -0.0766  0.5558 -0.5082
 8807TIP3    H147912   2.556   4.970  13.679  0.9817 -0.9510 -1.0080
 8807TIP3    H247913   2.546   4.956  13.529  1.4188  0.5225 -1.1909
 8808TIP3   OH247914   5.055   1.389   4.261 -0.3718 -0.6065  0.1039
 8808TIP3    H147915   5.083   1.298   4.269  0.5250 -0.5559 -1.9670
 8808TIP3    H247916   5.036   1.400   4.168  0.0283  1.4682  0.2276
 8809TIP3   OH247917   1.269   6.228  14.337 -0.4922 -0.0308 -0.0156
 8809TIP3    H147918   1.265   6.140  14.299  2.8661 -0.3241  0.0206
 8809TIP3    H247919   1.298   6.284  14.265 -0.2977  0.5902  0.5395
 8810TIP3   OH247920   3.041   1.699   2.999 -0.6352  0.4889 -0.6754
 8810TIP3    H147921   3.068   1.790   2.988  2.0097 -0.3217 -1.5903
 8810TIP3    H247922   3.083   1.671   3.080 -0.6967 -0.1526 -0.8589
 8811TIP3   OH247923   5.513   0.609   6.025 -0.6473 -0.7057  0.2075
 8811TIP3    H147924   5.579   0.582   5.961  0.0251 -1.5739  1.2244
 8811TIP3    H247925   5.451   0.536   6.029 -0.8327 -0.5425  0.3471
 8812TIP3   OH247926   2.058   1.825  13.201  0.3001  0.2943  0.3213
 8812TIP3    H147927   2.041   1.906  13.153  0.4081 -1.4198 -2.8296
 8812TIP3    H247928   1.973   1.801  13.238 -0.5988  0.0103 -1.8092
 8813TIP3   OH247929   5.849   4.245   2.151 -0.1946 -0.1888 -0.4416
 8813TIP3    H147930   5.764   4.201   2.145  0.3868 -1.1761 -3.1428
 8813TIP3    H247931   5.911   4.175   2.167  0.2199  0.4328  0.7613
 8814TIP3   OH247932   5.394   5.512   3.962 -0.1628  0.4577 -0.1365
 8814TIP3    H147933   5.362   5.561   4.038 -0.2289 -0.0454  0.1672
 8814TIP3    H247934   5.473   5.468   3.993 -0.3140  0.0708 -0.2907
 8815TIP3   OH247935   5.645   2.568   5.146 -0.0090 -0.6724  0.4503
 8815TIP3    H147936   5.607   2.562   5.058  0.4534 -0.0507  0.2000
 8815TIP3    H247937   5.610   2.649   5.182  2.1281  0.6773 -0.3234
 8816TIP3   OH247938   3.085   5.564   0.914 -0.1551  0.2499  0.3005
 8816TIP3    H147939   3.108   5.538   1.003  2.3241 -1.5411 -0.7142
 8816TIP3    H247940   3.147   5.633   0.892 -0.7721  0.7110 -0.0225
 8817TIP3   OH247941   1.856   2.562  12.058  0.5714 -0.4394 -0.4510
 8817TIP3    H147942   1.920   2.630  12.036  1.0578 -0.4144  0.9058
 8817TIP3    H247943   1.780   2.610  12.089  0.4147 -0.4897 -0.7603
 8818TIP3   OH247944   3.003   3.773   3.470  0.0120  0.2773 -0.1994
 8818TIP3    H147945   3.081   3.783   3.415 -1.7695  3.0944 -2.5279
 8818TIP3    H247946   3.031   3.804   3.556  1.5750  0.8366 -0.8594
 8819TIP3   OH247947   4.172   3.279  15.033 -0.1911  0.0826  0.7084
 8819TIP3    H147948   4.199   3.347  14.972 -0.1714 -0.3037  0.2837
 8819TIP3    H247949   4.114   3.324  15.095  1.4329  0.9491  1.6763
 8820TIP3   OH247950   2.953   0.688   5.064 -0.3207 -0.1168  0.7693
 8820TIP3    H147951   2.891   0.660   5.131 -0.9550 -0.0327  0.2305
 8820TIP3    H247952   2.918   0.651   4.983  0.3568 -0.1000  0.4645
 8821TIP3   OH247953   2.476   1.797   3.141 -0.1094  0.0594 -0.1643
 8821TIP3    H147954   2.501   1.889   3.150 -2.7166  0.7912  0.4896
 8821TIP3    H247955   2.525   1.752   3.210  0.1091  1.2108  0.4596
 8822TIP3   OH247956   2.513   0.213  12.601  0.2666  0.0647  0.1568
 8822TIP3    H147957   2.442   0.168  12.555  0.7389  0.3109 -0.8513
 8822TIP3    H247958   2.577   0.145  12.618  1.1471  0.3585 -1.6970
 8823TIP3   OH247959   5.483   5.668   6.044 -0.0630  0.2991 -0.4442
 8823TIP3    H147960   5.525   5.596   5.997 -1.8862 -0.7390 -0.5706
 8823TIP3    H247961   5.532   5.675   6.127  2.2055  1.1465 -1.7516
 8824TIP3   OH247962   6.131   3.714  14.388  0.1286  0.2144  0.4706
 8824TIP3    H147963   6.040   3.690  14.371  1.0911 -2.6035 -1.3160
 8824TIP3    H247964   6.160   3.757  14.307  1.1766 -1.7965 -0.3145
 8825TIP3   OH247965   4.374   1.540   1.456 -0.3408 -0.0303 -0.2249
 8825TIP3    H147966   4.310   1.609   1.440  0.4176  0.8659  0.4785
 8825TIP3    H247967   4.400   1.554   1.547 -0.3153 -1.3773 -0.0079
 8826TIP3   OH247968   6.791   2.420   1.768  0.2120  0.3414 -0.6398
 8826TIP3    H147969   6.756   2.468   1.844  0.9313 -1.9195  1.2369
 8826TIP3    H247970   6.811   2.488   1.704 -3.3620  2.1350 -0.1223
 8827TIP3   OH247971   6.380   5.280   1.337  0.1427  0.3662 -0.1409
 8827TIP3    H147972   6.374   5.185   1.346  0.8207  0.4809  2.1559
 8827TIP3    H247973   6.461   5.295   1.288  0.6757 -0.2181  0.5545
 8828TIP3   OH247974   6.114   2.105  17.336 -0.0805  0.7218  0.8547
 8828TIP3    H147975   6.064   2.036  17.379  0.3699 -0.6261 -0.7224
 8828TIP3    H247976   6.063   2.127  17.258  0.5357  1.0897  0.5465
 8829TIP3   OH247977   4.262   4.886   0.362  0.1174  0.4297  0.0028
 8829TIP3    H147978   4.210   4.909   0.439 -0.8598  0.3315 -0.6102
 8829TIP3    H247979   4.240   4.795   0.344 -1.1225  0.9712 -1.4717
 8830TIP3   OH247980   3.245   3.943  16.904 -0.1407 -0.0334 -0.5149
 8830TIP3    H147981   3.296   3.996  16.966  1.8616 -0.1628 -1.9746
 8830TIP3    H247982   3.269   3.853  16.924 -0.2449 -0.1325 -0.8297
 8831TIP3   OH247983   6.583   6.189  12.994  0.1772 -0.0366 -0.0732
 8831TIP3    H147984   6.618   6.100  13.008  1.6260  0.7063  1.3272
 8831TIP3    H247985   6.660   6.240  12.969 -0.3751  1.1318  0.5770
 8832TIP3   OH247986   1.764   0.074  11.407  0.3995 -0.3800 -0.3646
 8832TIP3    H147987   1.717  -0.007  11.426 -0.7895 -0.0194 -1.5132
 8832TIP3    H247988   1.813   0.055  11.327  0.4018 -0.0962 -0.4318
 8833TIP3   OH247989   6.086   0.882   1.971  0.5244  0.4520  0.1803
 8833TIP3    H147990   6.019   0.858   2.035 -0.2199  0.6209 -0.5285
 8833TIP3    H247991   6.081   0.813   1.905  1.8312 -0.1628  0.6686
 8834TIP3   OH247992   2.208   4.794   1.586 -0.6021 -0.2964 -0.1287
 8834TIP3    H147993   2.152   4.868   1.608 -1.2031 -0.8606  0.2679
 8834TIP3    H247994   2.297   4.830   1.586 -0.8105  0.2463  0.8412
 8835TIP3   OH247995   1.064   0.395   1.489 -0.3217 -0.3481  0.2305
 8835TIP3    H147996   1.042   0.306   1.460 -0.1005 -0.2521 -0.2456
 8835TIP3    H247997   1.139   0.420   1.435  0.0521 -0.1302  0.8446
 8836TIP3   OH247998   6.105   1.739   5.773 -0.1695 -0.1279  0.4597
 8836TIP3    H147999   6.084   1.698   5.857  1.4825 -0.1607  0.9008
 8836TIP3    H248000   6.036   1.804   5.760 -0.3575  0.0060  1.9504
 8837TIP3   OH248001   5.133   6.353  15.222  0.1994 -0.3377  0.5396
 8837TIP3    H148002   5.115   6.292  15.294 -0.7680  1.7699  2.2059
 8837TIP3    H248003   5.161   6.433  15.266 -1.1346  1.2696 -1.4131
 8838TIP3   OH248004   1.242   6.487  11.139 -0.3466 -0.2776  0.0978
 8838TIP3    H148005   1.234   6.531  11.224 -1.2581  0.2920 -0.2621
 8838TIP3    H248006   1.253   6.395  11.160 -1.4621 -0.2652  0.8375
 8839TIP3   OH248007   0.424   4.982   1.400  0.2500  0.5826 -0.6602
 8839TIP3    H148008   0.453   5.001   1.489  2.2973  2.3525 -1.6144
 8839TIP3    H248009   0.338   5.024   1.393  0.6113  1.4741  0.1211
 8840TIP3   OH248010   1.813   0.334   4.423  0.3641  0.0850 -0.2915
 8840TIP3    H148011   1.901   0.302   4.442  0.4202  0.7619  0.6074
 8840TIP3    H248012   1.826   0.408   4.364  0.3241 -0.4716 -1.0187
 8841TIP3   OH248013   4.368   0.744  11.169  0.4033  0.0348  0.4804
 8841TIP3    H148014   4.425   0.795  11.110  0.5397  1.1499  1.5346
 8841TIP3    H248015   4.404   0.656  11.167  0.3836  0.0362 -1.1258
 8842TIP3   OH248016   1.936   2.922   4.708  0.3564 -0.2624 -0.4626
 8842TIP3    H148017   1.940   2.855   4.640 -2.9255 -0.7942 -0.2970
 8842TIP3    H248018   1.960   3.003   4.662  1.4622 -1.0853 -1.3914
 8843TIP3   OH248019   3.679   3.123   2.794  0.4255 -0.0222  0.3145
 8843TIP3    H148020   3.604   3.152   2.845  0.3993 -0.3764  0.4721
 8843TIP3    H248021   3.641   3.086   2.714  0.4769  0.8570 -0.1388
 8844TIP3   OH248022   1.903   1.618  10.952  0.5255 -0.5914 -0.0204
 8844TIP3    H148023   1.881   1.690  11.010 -2.3355 -0.3620 -1.2472
 8844TIP3    H248024   1.899   1.540  11.007  0.3973 -0.1427  0.6132
 8845TIP3   OH248025   2.082   3.905  12.900  0.1945  0.0945 -0.6032
 8845TIP3    H148026   2.153   3.841  12.902 -0.1321 -0.6018  5.2255
 8845TIP3    H248027   2.118   3.982  12.944 -1.5583  1.2450 -1.0762
 8846TIP3   OH248028   4.914   4.941   4.466 -0.1690 -0.5284  0.4953
 8846TIP3    H148029   5.002   4.967   4.493  0.2548  1.5516 -2.3916
 8846TIP3    H248030   4.928   4.862   4.414  0.6124  1.4113 -2.5433
 8847TIP3   OH248031   4.249   6.776  11.468  0.0865 -0.5239 -0.2553
 8847TIP3    H148032   4.341   6.804  11.462 -0.1435 -0.1354 -2.8646
 8847TIP3    H248033   4.206   6.816  11.393 -2.4213 -0.1872  1.2437
 8848TIP3   OH248034   3.458   3.753   3.574  0.5745 -0.3265  0.6688
 8848TIP3    H148035   3.459   3.824   3.638  1.4972 -0.6940  1.0794
 8848TIP3    H248036   3.395   3.781   3.507  1.9595  1.5431  0.0649
 8849TIP3   OH248037   0.780   5.567   0.528  0.1604  0.2051  0.1993
 8849TIP3    H148038   0.691   5.573   0.563  0.2124 -0.5403  0.4603
 8849TIP3    H248039   0.837   5.591   0.601  0.1760  0.7602  0.0098
 8850TIP3   OH248040   2.496   3.608  15.911 -0.2738 -0.0517 -0.1784
 8850TIP3    H148041   2.477   3.655  15.830  0.8600  1.4665  0.3617
 8850TIP3    H248042   2.592   3.614  15.919 -0.4560  0.9898  1.8842
 8851TIP3   OH248043   4.815   1.429   1.768  0.3759 -0.5111 -0.0132
 8851TIP3    H148044   4.896   1.471   1.798  0.3109  0.2278 -0.8239
 8851TIP3    H248045   4.788   1.374   1.841  0.6037  0.6981  1.0209
 8852TIP3   OH248046   4.205   5.271  14.397  0.9442 -0.2902  0.0238
 8852TIP3    H148047   4.225   5.266  14.304  0.7641  1.9723 -0.2100
 8852TIP3    H248048   4.121   5.226  14.406  0.8979 -0.4164 -0.9360
 8853TIP3   OH248049   0.543   0.904   0.863 -0.4158 -0.4882  0.1643
 8853TIP3    H148050   0.597   0.939   0.792 -0.2865  0.1072  0.5429
 8853TIP3    H248051   0.463   0.873   0.820 -0.0309 -0.8166 -0.3244
 8854TIP3   OH248052   0.023   3.255   5.364 -0.2972 -0.2724  0.1356
 8854TIP3    H148053   0.112   3.286   5.379 -0.7874  1.4130 -0.2315
 8854TIP3    H248054   0.020   3.233   5.271 -0.1803 -0.6179  0.2138
 8855TIP3   OH248055   3.989   0.960   3.848  0.1493  0.9585 -0.4031
 8855TIP3    H148056   4.081   0.987   3.849  0.4132  0.1700  1.2094
 8855TIP3    H248057   3.989   0.875   3.803  0.2856  0.7768 -0.0668
 8856TIP3   OH248058   5.936   4.519   3.192  0.1964 -0.1635  0.3498
 8856TIP3    H148059   5.934   4.503   3.287  1.1643 -1.3988  0.1865
 8856TIP3    H248060   5.848   4.552   3.172 -0.5030 -1.2384  1.4715
 8857TIP3   OH248061   4.046   4.766   6.238 -0.5817  0.3957 -0.1222
 8857TIP3    H148062   4.071   4.674   6.235  1.6272  0.8408  1.4379
 8857TIP3    H248063   4.106   4.809   6.178 -0.2020  1.0285  0.6836
 8858TIP3   OH248064   4.595   5.765   1.679 -0.1634 -0.0816  0.0540
 8858TIP3    H148065   4.610   5.859   1.693  0.8915 -0.4850  1.9901
 8858TIP3    H248066   4.614   5.725   1.764 -0.9691 -2.0237 -0.6254
 8859TIP3   OH248067   3.180   3.654   3.001  0.7883  0.1601 -0.0404
 8859TIP3    H148068   3.156   3.562   2.996  3.3572 -0.8278  2.6848
 8859TIP3    H248069   3.105   3.697   3.042  0.0832 -0.9604 -0.1344
 8860TIP3   OH248070   3.443   6.776  14.444 -0.1840  0.0003 -0.2970
 8860TIP3    H148071   3.444   6.725  14.525  1.1195  0.8708  0.2669
 8860TIP3    H248072   3.450   6.710  14.375  2.6265 -0.6260  0.4457
 8861TIP3   OH248073   6.494   2.330  13.483 -0.1625 -0.4578  0.1009
 8861TIP3    H148074   6.538   2.378  13.413 -0.3444 -0.3713  0.0461
 8861TIP3    H248075   6.520   2.376  13.563 -2.4624  1.4507 -0.1213
 8862TIP3   OH248076   3.007   0.269  11.621 -0.0552  0.2370  0.2436
 8862TIP3    H148077   2.996   0.301  11.531  0.9342  0.8494  0.3146
 8862TIP3    H248078   3.102   0.258  11.630 -0.2392 -0.9297  0.8473
 8863TIP3   OH248079   2.468   5.630   3.465 -0.2100  0.0315  0.2295
 8863TIP3    H148080   2.539   5.585   3.511 -0.1172 -0.0969 -0.0330
 8863TIP3    H248081   2.505   5.714   3.439  0.0244 -0.2553 -0.3819
 8864TIP3   OH248082   2.813   2.116   3.402 -0.0498 -0.3275  0.3364
 8864TIP3    H148083   2.892   2.092   3.449 -0.3301  0.9953  1.5319
 8864TIP3    H248084   2.841   2.179   3.336  0.4310 -2.5550 -1.7731
 8865TIP3   OH248085   2.142   6.699  14.202  0.1643 -0.0295  0.0849
 8865TIP3    H148086   2.203   6.742  14.263 -2.1096  1.5320  1.4052
 8865TIP3    H248087   2.147   6.606  14.225  0.3647  0.3632  1.7594
 8866TIP3   OH248088   5.386   1.678   3.256  0.0749  0.2456  0.3349
 8866TIP3    H148089   5.407   1.670   3.163 -0.9057 -3.9936  0.2469
 8866TIP3    H248090   5.293   1.656   3.262  0.3722 -0.7649  2.3375
 8867TIP3   OH248091   5.826   1.755   1.462 -0.3203  0.2886  0.1495
 8867TIP3    H148092   5.771   1.798   1.528  0.0849 -1.9419  2.0665
 8867TIP3    H248093   5.764   1.730   1.392 -0.8776  2.0480 -0.0281
 8868TIP3   OH248094   0.213   1.106   1.556 -0.0915  0.4520 -0.0498
 8868TIP3    H148095   0.246   1.019   1.536  0.4459  0.7369 -0.4632
 8868TIP3    H248096   0.218   1.153   1.472  1.0164  1.3071  0.4601
 8869TIP3   OH248097   4.936   3.511  13.184 -0.4202 -0.2118 -0.0028
 8869TIP3    H148098   4.909   3.450  13.252 -1.4308  2.1983  1.8716
 8869TIP3    H248099   5.027   3.531  13.205 -0.3255 -0.4598 -0.1663
 8870TIP3   OH248100   4.103   6.765  17.095  0.2523  0.0426  0.1218
 8870TIP3    H148101   4.055   6.796  17.019  1.2924 -0.3504 -0.7120
 8870TIP3    H248102   4.101   6.669  17.088  1.7218  0.0234 -0.3117
 8871TIP3   OH248103   0.668   3.331   0.563  0.2074 -0.3821  0.4713
 8871TIP3    H148104   0.597   3.317   0.500  0.8816 -0.4944 -0.2896
 8871TIP3    H248105   0.638   3.404   0.617 -0.1928  0.0265 -0.2840
 8872TIP3   OH248106   2.816   2.285   2.640  0.0838 -0.1301 -0.4056
 8872TIP3    H148107   2.800   2.349   2.709 -0.7108  0.9330 -1.5354
 8872TIP3    H248108   2.756   2.213   2.659  0.9788 -0.5777  0.8693
 8873TIP3   OH248109   4.884   6.787  10.810  0.3564 -0.4696  0.4744
 8873TIP3    H148110   4.927   6.866  10.779 -1.4826  0.4731  0.2099
 8873TIP3    H248111   4.877   6.732  10.731  1.2571 -0.7519  0.5739
 8874TIP3   OH248112   2.908   3.147  15.560  0.2457  0.1739  0.1053
 8874TIP3    H148113   2.890   3.130  15.467  0.2732 -2.1325  0.4812
 8874TIP3    H248114   3.002   3.168  15.562  0.3143 -0.0695 -0.3433
 8875TIP3   OH248115   2.749   0.898  17.342 -0.3860  0.3689  0.2963
 8875TIP3    H148116   2.800   0.975  17.316 -1.5553  1.0188 -0.1536
 8875TIP3    H248117   2.658   0.924  17.328 -0.7916 -1.3393 -0.5413
 8876TIP3   OH248118   5.614   5.741   3.104  0.7635 -0.4205 -0.1830
 8876TIP3    H148119   5.602   5.756   3.198  0.3012 -0.3059 -0.2553
 8876TIP3    H248120   5.708   5.735   3.092  0.7825 -1.8458  0.5146
 8877TIP3   OH248121   1.743   3.717  13.184  0.2869 -0.0624 -0.5963
 8877TIP3    H148122   1.769   3.803  13.150  0.1790  0.1755 -0.0908
 8877TIP3    H248123   1.809   3.696  13.250  0.1811 -0.2618 -0.5548
 8878TIP3   OH248124   0.390   2.521  11.430  0.2576  0.4330  0.1724
 8878TIP3    H148125   0.446   2.597  11.413  0.1301  0.9629  1.8925
 8878TIP3    H248126   0.324   2.554  11.492 -0.2023 -0.9064  0.4201
 8879TIP3   OH248127   4.682   0.128   4.909 -0.1296  0.2553  0.0402
 8879TIP3    H148128   4.769   0.128   4.869 -0.6574  1.3668 -1.1894
 8879TIP3    H248129   4.623   0.111   4.836 -0.9939  0.2291  0.7330
 8880TIP3   OH248130   3.001   2.429   2.174 -0.4368 -0.0956  0.0476
 8880TIP3    H148131   3.011   2.519   2.144  0.5008 -0.7301 -1.6920
 8880TIP3    H248132   2.907   2.417   2.182 -0.5640  1.1059  0.5658
 8881TIP3   OH248133   2.654   3.751   4.940 -0.2943  0.1835 -0.0709
 8881TIP3    H148134   2.730   3.791   4.897  0.5510 -0.5260  0.7218
 8881TIP3    H248135   2.590   3.823   4.947  1.0613  1.3431  1.0261
 8882TIP3   OH248136   5.278   4.642  11.886  0.1000 -0.4449 -0.0090
 8882TIP3    H148137   5.198   4.662  11.935  0.0667  0.9841 -0.6092
 8882TIP3    H248138   5.266   4.550  11.859 -1.9386  0.0888 -1.1402
 8883TIP3   OH248139   2.683   4.241   3.853 -0.6259 -0.2742  0.2547
 8883TIP3    H148140   2.688   4.249   3.948 -0.4252  0.6570  0.1685
 8883TIP3    H248141   2.688   4.146   3.837  1.6042 -0.3450  1.0330
 8884TIP3   OH248142   0.313   3.142   2.856 -0.2241  0.0346 -0.7503
 8884TIP3    H148143   0.301   3.118   2.764 -2.1948 -1.2031 -0.2296
 8884TIP3    H248144   0.298   3.237   2.858  1.3973  0.3589 -1.9000
 8885TIP3   OH248145   2.155   2.353  13.277 -0.2474  0.2587 -0.6000
 8885TIP3    H148146   2.250   2.361  13.272 -0.1550 -0.9966 -1.3603
 8885TIP3    H248147   2.136   2.356  13.371  0.7395 -1.2535 -0.3143
 8886TIP3   OH248148   4.686   0.306   5.681  0.0464  0.3447 -0.5032
 8886TIP3    H148149   4.606   0.318   5.629 -1.3774  1.8779  1.8503
 8886TIP3    H248150   4.740   0.382   5.660  1.2083 -0.9301 -2.4558
 8887TIP3   OH248151   2.364   0.048  15.010  0.0906  0.2045  0.7264
 8887TIP3    H148152   2.388  -0.044  15.015 -0.7116 -0.0545  0.0807
 8887TIP3    H248153   2.411   0.089  15.082  1.1042 -0.5586  0.5137
 8888TIP3   OH248154   3.909   2.402  12.163  0.4117  0.4870  0.4858
 8888TIP3    H148155   3.824   2.448  12.168  0.6243  0.8904  0.4490
 8888TIP3    H248156   3.887   2.310  12.177  0.0162  0.6396  0.9262
 8889TIP3   OH248157   5.290   4.041   0.315 -0.0050 -0.0193  0.3958
 8889TIP3    H148158   5.319   4.097   0.242  0.3752 -1.1699 -0.3547
 8889TIP3    H248159   5.272   4.103   0.386  1.4272  0.9962 -0.0686
 8890TIP3   OH248160   3.271   4.577   4.551  0.1841  0.0108  0.6170
 8890TIP3    H148161   3.296   4.488   4.525 -0.0486  0.5676 -1.7187
 8890TIP3    H248162   3.183   4.589   4.514 -0.5165  0.6573  2.3737
 8891TIP3   OH248163   1.671   5.621  12.903 -0.1553  0.0749  0.6620
 8891TIP3    H148164   1.675   5.580  12.816 -0.0214  0.1341  0.6408
 8891TIP3    H248165   1.728   5.697  12.897 -0.5700  0.3903  0.6375
 8892TIP3   OH248166   4.317   2.252  14.933  0.1281  0.0849  0.0597
 8892TIP3    H148167   4.356   2.306  15.002  1.2820 -0.8343  0.1597
 8892TIP3    H248168   4.271   2.314  14.877 -2.0433  0.7491  2.3741
 8893TIP3   OH248169   4.219   1.338   6.731 -0.4767 -0.3188  0.2790
 8893TIP3    H148170   4.251   1.428   6.738 -0.8428  0.0015 -1.6133
 8893TIP3    H248171   4.251   1.308   6.646 -2.0234 -1.2722 -0.0137
 8894TIP3   OH248172   1.256   5.855  15.360 -0.3587 -0.9703  0.1664
 8894TIP3    H148173   1.173   5.852  15.312 -1.1108 -0.6997  1.4044
 8894TIP3    H248174   1.302   5.931  15.322 -2.1496  1.0079  1.6996
 8895TIP3   OH248175   5.151   3.016  15.175  0.4065 -0.2892 -0.1433
 8895TIP3    H148176   5.151   3.027  15.271 -1.5319 -0.9342 -0.0380
 8895TIP3    H248177   5.177   2.925  15.161  1.4013  0.0025 -0.2933
 8896TIP3   OH248178   5.437   4.085  12.141 -0.2798 -0.0225 -0.4037
 8896TIP3    H148179   5.472   4.075  12.229  0.2259  1.2771 -0.4245
 8896TIP3    H248180   5.396   4.172  12.141  1.1975  0.7462 -1.8926
 8897TIP3   OH248181   6.533   2.106   2.351 -0.5906 -0.5075  0.0429
 8897TIP3    H148182   6.534   2.200   2.368 -0.6701 -0.6420  0.8245
 8897TIP3    H248183   6.471   2.095   2.278 -0.1513  0.0975 -0.4252
 8898TIP3   OH248184   1.326   2.768   3.398 -0.1502  0.2829 -0.5005
 8898TIP3    H148185   1.235   2.796   3.404  0.3551  1.7543  0.6339
 8898TIP3    H248186   1.345   2.771   3.304 -1.2345 -0.0063 -0.7527
 8899TIP3   OH248187   6.158   3.352   3.335  0.1079  0.3012 -0.1124
 8899TIP3    H148188   6.139   3.353   3.241 -0.7094 -0.7170  0.0151
 8899TIP3    H248189   6.236   3.297   3.343 -0.4064 -0.4522 -0.1250
 8900TIP3   OH248190   0.014   6.124  12.250 -0.1908  0.0666 -0.1351
 8900TIP3    H148191  -0.032   6.075  12.182 -0.7368  0.4118 -0.0231
 8900TIP3    H248192  -0.037   6.109  12.329 -0.6417  1.1782 -0.1901
 8901TIP3   OH248193   4.492   4.435  14.651 -0.1048 -0.1980  0.0412
 8901TIP3    H148194   4.447   4.466  14.730  0.2387  0.6386 -0.0805
 8901TIP3    H248195   4.510   4.343  14.668 -0.6807 -0.2117  0.6378
 8902TIP3   OH248196   1.777   3.037   2.955  0.2745 -0.0810 -0.1857
 8902TIP3    H148197   1.767   3.019   3.049 -0.5130 -1.2691 -0.4815
 8902TIP3    H248198   1.827   2.963   2.922  1.0945  0.6461 -0.6131
 8903TIP3   OH248199   4.169   3.556  16.156 -0.1364  0.0544 -0.1016
 8903TIP3    H148200   4.120   3.533  16.077 -0.3131  2.3107 -0.7370
 8903TIP3    H248201   4.122   3.632  16.191  0.6236 -0.1974  1.5448
 8904TIP3   OH248202   1.877   1.465   3.231  0.0870  0.4016  0.5917
 8904TIP3    H148203   1.817   1.421   3.292  0.9512  0.0291  1.1866
 8904TIP3    H248204   1.819   1.503   3.164 -0.7347 -1.1834  0.3400
 8905TIP3   OH248205   1.995   1.192   0.160  0.2340  0.6430  0.1643
 8905TIP3    H148206   2.067   1.235   0.205  1.4939 -1.2090  0.0388
 8905TIP3    H248207   2.014   1.098   0.168 -0.8587  0.1649 -1.9728
 8906TIP3   OH248208   6.392   4.947  16.395 -0.1292 -0.1356  0.0846
 8906TIP3    H148209   6.315   4.963  16.449 -1.3439  1.0351 -1.8623
 8906TIP3    H248210   6.409   4.853  16.404 -0.6684 -0.0876  1.9236
 8907TIP3   OH248211   5.977   3.416  15.937 -0.0667 -1.0129 -0.8384
 8907TIP3    H148212   6.057   3.464  15.958 -0.3021 -1.3555  0.9707
 8907TIP3    H248213   5.907   3.465  15.980 -0.5455 -1.9180 -0.5583
 8908TIP3   OH248214   1.406   1.335   1.634 -0.4476 -0.3222  0.4062
 8908TIP3    H148215   1.335   1.377   1.585 -0.3917 -0.7605 -0.0621
 8908TIP3    H248216   1.381   1.344   1.726 -0.4323  0.7355  0.3210
 8909TIP3   OH248217   3.691   6.232   0.036 -0.4369  0.1732  0.5896
 8909TIP3    H148218   3.692   6.320  -0.002  0.3539  0.4984  1.3333
 8909TIP3    H248219   3.654   6.245   0.123 -0.8445 -0.3311  0.4957
 8910TIP3   OH248220   1.378   1.922   2.568  0.0027 -0.1167 -0.3651
 8910TIP3    H148221   1.435   1.998   2.577 -0.3107  0.2248 -1.1870
 8910TIP3    H248222   1.290   1.958   2.574 -0.1397 -0.5013 -0.1414
 8911TIP3   OH248223   2.823   0.393   3.719 -0.1164  0.2210  0.2761
 8911TIP3    H148224   2.909   0.368   3.751  1.4725  4.0001 -0.5508
 8911TIP3    H248225   2.835   0.408   3.625 -2.7259 -2.8023 -0.7299
 8912TIP3   OH248226   3.321   0.310  14.810  0.4470 -0.2552 -0.3927
 8912TIP3    H148227   3.380   0.380  14.837 -0.7600  0.3358  0.8475
 8912TIP3    H248228   3.342   0.295  14.718  1.5800  0.8663 -0.3431
 8913TIP3   OH248229   1.799   1.393  14.638 -0.1986 -0.2161  0.5692
 8913TIP3    H148230   1.802   1.381  14.733 -0.8334 -0.2354  0.5938
 8913TIP3    H248231   1.777   1.307  14.603 -0.1428 -0.1689  0.4155
 8914TIP3   OH248232   5.129   4.239  13.131  0.3296 -0.2556 -0.8180
 8914TIP3    H148233   5.037   4.217  13.149  0.2814  0.7963  0.4399
 8914TIP3    H248234   5.176   4.157  13.145 -0.2962 -0.5454 -0.3355
 8915TIP3   OH248235   5.210   4.777   3.674 -0.4453 -0.6414  0.4858
 8915TIP3    H148236   5.141   4.838   3.702  0.8210  1.0364  0.1300
 8915TIP3    H248237   5.220   4.717   3.748 -0.9242  0.3253  1.3637
 8916TIP3   OH248238   5.404   1.122  15.053 -0.3334 -0.2749  0.1892
 8916TIP3    H148239   5.435   1.058  15.117  0.4817  1.2613  1.3877
 8916TIP3    H248240   5.478   1.133  14.993  0.4272  1.2564  1.3660
 8917TIP3   OH248241   6.132   3.606  16.589 -0.4224 -0.4043 -0.2644
 8917TIP3    H148242   6.200   3.545  16.560  0.6534 -0.3486  1.9633
 8917TIP3    H248243   6.180   3.680  16.625 -1.5203 -1.0879  2.9268
 8918TIP3   OH248244   4.708   5.014  16.725 -0.3313  0.0731 -0.1453
 8918TIP3    H148245   4.720   4.920  16.738 -2.2255 -0.5893 -2.4690
 8918TIP3    H248246   4.630   5.036  16.777  0.0849  0.3693  0.3625
 8919TIP3   OH248247   4.681   5.076   3.357  0.2174 -0.6737  0.3404
 8919TIP3    H148248   4.636   5.153   3.323 -0.1550 -1.1471 -0.2558
 8919TIP3    H248249   4.749   5.112   3.414  0.0651  0.0967  0.0530
 8920TIP3   OH248250   6.423   1.101   4.649  0.1066  1.0714  0.2787
 8920TIP3    H148251   6.436   1.097   4.555 -3.5538  4.3942 -0.6133
 8920TIP3    H248252   6.429   1.010   4.678  1.3282 -0.0709 -3.1000
 8921TIP3   OH248253   0.742   5.940  14.859  0.2745 -0.2278  0.0406
 8921TIP3    H148254   0.826   5.979  14.837  0.2208 -0.2791 -0.2637
 8921TIP3    H248255   0.684   5.966  14.787  0.4204 -1.4603 -0.5473
 8922TIP3   OH248256   3.873   0.400  15.856 -0.1154  0.2555 -0.0170
 8922TIP3    H148257   3.934   0.451  15.908 -1.5691  0.9500  1.0894
 8922TIP3    H248258   3.795   0.455  15.849 -0.6938 -0.6568 -1.2418
 8923TIP3   OH248259   2.135   2.882  13.201 -0.1081 -0.5329 -0.5959
 8923TIP3    H148260   2.162   2.880  13.293 -0.7789  0.5763 -0.3538
 8923TIP3    H248261   2.040   2.891  13.204  0.0397  2.5059 -1.3067
 8924TIP3   OH248262   4.245   3.853  13.070 -0.2585  0.6075  0.2211
 8924TIP3    H148263   4.173   3.823  13.125  0.0334 -0.4155  0.0533
 8924TIP3    H248264   4.316   3.791  13.087  0.3340  1.1605 -0.1857
 8925TIP3   OH248265   5.277   5.865   0.456 -0.1770  0.6036  0.3493
 8925TIP3    H148266   5.324   5.783   0.439  0.5688  1.0669  0.1667
 8925TIP3    H248267   5.289   5.881   0.550 -1.5146 -0.2140  0.7013
 8926TIP3   OH248268   1.762   0.945  15.335 -0.1048 -0.5130  0.0714
 8926TIP3    H148269   1.700   1.017  15.343  2.0026  1.2570  1.3717
 8926TIP3    H248270   1.737   0.884  15.404  0.0299  0.5379  1.0629
 8927TIP3   OH248271   0.175   2.143   4.344  0.3221  0.3844  0.3212
 8927TIP3    H148272   0.262   2.163   4.378 -0.6229  2.4328  1.7554
 8927TIP3    H248273   0.164   2.202   4.270  0.2929 -0.1747 -0.1274
 8928TIP3   OH248274   0.018   4.062  15.362  0.1247 -0.0365 -0.3158
 8928TIP3    H148275   0.092   4.123  15.371  0.1793 -0.3893  2.3321
 8928TIP3    H248276   0.049   3.982  15.404 -1.8201 -0.1112  1.0790
 8929TIP3   OH248277   5.319   2.944  12.818  0.1574 -0.0179  0.5708
 8929TIP3    H148278   5.235   2.951  12.864 -1.1327 -2.6911 -1.0722
 8929TIP3    H248279   5.312   3.006  12.745 -1.3465 -1.5692 -0.7051
 8930TIP3   OH248280   6.001   4.682  12.765  0.6788  0.1481 -0.0143
 8930TIP3    H148281   5.962   4.599  12.790  0.0463  0.1837 -0.8147
 8930TIP3    H248282   5.992   4.738  12.842 -1.2395  0.2783 -0.2814
 8931TIP3   OH248283   3.326   6.634   4.732  0.1023  0.6061 -0.4123
 8931TIP3    H148284   3.402   6.596   4.687  0.5314  0.2077  0.6176
 8931TIP3    H248285   3.305   6.571   4.801  0.5147  1.9597  1.0274
 8932TIP3   OH248286   3.467   5.116   1.104  0.2355  0.1132 -0.0959
 8932TIP3    H148287   3.420   5.172   1.042 -1.3709 -1.5325 -0.4636
 8932TIP3    H248288   3.469   5.167   1.186 -0.6356  0.9408 -0.5679
 8933TIP3   OH248289   2.533   5.296  16.387  0.3589 -0.0977 -0.0820
 8933TIP3    H148290   2.443   5.283  16.415  0.0135  0.3745 -0.9520
 8933TIP3    H248291   2.547   5.230  16.319  0.9008 -0.6336  0.5358
 8934TIP3   OH248292   5.932   3.439  16.445  0.2600  0.7303  0.5465
 8934TIP3    H148293   5.912   3.438  16.538 -2.2169  0.6564  0.0877
 8934TIP3    H248294   6.018   3.480  16.439  0.5109  0.6464  2.8541
 8935TIP3   OH248295   2.017   1.739  15.887  0.1296  0.3501 -0.1464
 8935TIP3    H148296   1.925   1.743  15.913 -0.3917  0.8228 -1.9021
 8935TIP3    H248297   2.033   1.822  15.841  0.9154 -0.4559 -1.4112
 8936TIP3   OH248298   2.879   1.846   4.987  0.3421 -0.2757 -0.1356
 8936TIP3    H148299   2.807   1.817   5.043 -1.0480  0.5686 -1.4094
 8936TIP3    H248300   2.836   1.896   4.918  2.1885  0.3607 -0.8641
 8937TIP3   OH248301   2.621   4.915  15.525 -0.0657 -0.1438  0.3816
 8937TIP3    H148302   2.538   4.961  15.519 -0.6842 -1.0423  1.4454
 8937TIP3    H248303   2.622   4.857  15.449  0.2898  0.9413 -0.4496
 8938TIP3   OH248304   2.574   6.592   0.187 -0.1894  0.2500 -0.0997
 8938TIP3    H148305   2.552   6.650   0.260 -0.3546 -0.7691  0.6803
 8938TIP3    H248306   2.492   6.545   0.169 -0.0441  0.2234 -0.6899
 8939TIP3   OH248307   1.232   0.999   5.799  0.3521  0.2684  0.6134
 8939TIP3    H148308   1.247   0.982   5.892 -1.3528  0.4481  0.9542
 8939TIP3    H248309   1.316   0.979   5.757  0.8095 -0.9648  2.0294
 8940TIP3   OH248310   0.143   0.452   5.761  0.2033  0.2416 -0.1983
 8940TIP3    H148311   0.219   0.442   5.703 -0.1156  0.8482 -0.7337
 8940TIP3    H248312   0.180   0.491   5.841  0.7909 -1.4195  0.3833
 8941TIP3   OH248313   3.901   6.184   1.114 -0.1146 -0.5015  0.0672
 8941TIP3    H148314   3.966   6.252   1.133  0.1278 -0.8453  0.4588
 8941TIP3    H248315   3.931   6.145   1.032 -1.6767  1.6298 -1.6791
 8942TIP3   OH248316   4.562   4.320   5.029  0.0203  0.1601 -0.4200
 8942TIP3    H148317   4.654   4.341   5.039  0.1425  0.0593 -1.2853
 8942TIP3    H248318   4.517   4.378   5.092  0.5744  1.0055 -0.7844
 8943TIP3   OH248319   2.249   5.571  16.016  0.2147 -0.0424  0.7109
 8943TIP3    H148320   2.166   5.609  16.045 -0.0431  0.7433 -0.9714
 8943TIP3    H248321   2.235   5.477  16.018 -0.5929  0.0760  0.7968
 8944TIP3   OH248322   4.008   1.491  12.796  0.1762 -0.6983 -0.0099
 8944TIP3    H148323   4.089   1.536  12.776  1.8358 -3.2480  0.4304
 8944TIP3    H248324   4.014   1.472  12.890 -1.7054  0.4142  0.3899
 8945TIP3   OH248325   3.127   6.626  13.027 -0.1485  0.6677 -0.2383
 8945TIP3    H148326   3.084   6.574  12.960  2.7716 -1.5987 -0.5712
 8945TIP3    H248327   3.097   6.588  13.110  0.1913 -0.0242 -0.4268
 8946TIP3   OH248328   5.607   4.346  13.817 -0.0822 -0.0020  0.2171
 8946TIP3    H148329   5.539   4.405  13.850  0.2559 -0.9073  2.8467
 8946TIP3    H248330   5.636   4.299  13.895  1.4837 -1.7717 -1.3440
 8947TIP3   OH248331   4.513   2.757  14.618 -0.5436  0.3267  0.2946
 8947TIP3    H148332   4.446   2.701  14.578  1.5400 -1.2350 -1.2021
 8947TIP3    H248333   4.586   2.755  14.556  2.1459 -0.6778  3.2619
 8948TIP3   OH248334   0.031   5.571   1.083  0.5849  0.2037  0.1102
 8948TIP3    H148335   0.091   5.644   1.067 -1.8701  2.1399 -0.9612
 8948TIP3    H248336  -0.022   5.600   1.157  0.1152 -0.8679  0.2090
 8949TIP3   OH248337   2.478   2.354  11.185 -0.2002  0.4713 -0.5504
 8949TIP3    H148338   2.542   2.321  11.122  0.4460  1.6203 -0.5276
 8949TIP3    H248339   2.394   2.350  11.138  0.3120  1.6249 -1.6432
 8950TIP3   OH248340   2.663   0.506   4.936  0.1582 -0.1029 -0.1943
 8950TIP3    H148341   2.637   0.531   5.024  0.2674  0.9272 -0.4401
 8950TIP3    H248342   2.589   0.456   4.903 -0.4542  0.6369  0.0196
 8951TIP3   OH248343   6.770   1.946   4.593  0.4676  0.2236 -0.4642
 8951TIP3    H148344   6.848   1.900   4.621  1.3291  1.4056 -0.8217
 8951TIP3    H248345   6.772   1.942   4.498 -2.0285 -3.0993 -0.5840
 8952TIP3   OH248346   4.750   2.386  15.269 -0.3659 -0.4331  0.1238
 8952TIP3    H148347   4.804   2.402  15.347 -2.4212  0.9954  1.3239
 8952TIP3    H248348   4.742   2.471  15.227 -0.4823 -0.9243 -0.8722
 8953TIP3   OH248349   6.244   0.040   0.542  0.1763 -0.0207  0.0250
 8953TIP3    H148350   6.172  -0.023   0.547  0.1640  0.0927  2.5904
 8953TIP3    H248351   6.224   0.105   0.609  1.9294  0.8332 -0.2221
 8954TIP3   OH248352   6.026   1.065   3.798  0.0300  0.5726  0.0671
 8954TIP3    H148353   5.964   1.081   3.728 -0.5362  0.1170  0.4498
 8954TIP3    H248354   6.110   1.095   3.764 -0.5139  1.8451 -0.1991
 8955TIP3   OH248355   6.344   4.267  11.612  0.2065  0.1682 -0.3140
 8955TIP3    H148356   6.291   4.286  11.534  0.7501 -1.0586 -1.0075
 8955TIP3    H248357   6.349   4.171  11.614 -0.4049  0.1359  1.6534
 8956TIP3   OH248358   5.425   2.922   2.838  0.0659 -0.5167  0.3561
 8956TIP3    H148359   5.336   2.955   2.828  0.7083  0.7307 -2.0027
 8956TIP3    H248360   5.424   2.875   2.921 -2.7175 -0.3757  0.4874
 8957TIP3   OH248361   6.682   1.107  13.651  0.5344  0.2702 -0.3494
 8957TIP3    H148362   6.770   1.092  13.617  0.4624 -0.3344 -0.2707
 8957TIP3    H248363   6.625   1.052  13.597  0.1620  0.8638 -0.5822
 8958TIP3   OH248364   4.277   2.611   1.367 -0.7997  0.1563  0.0910
 8958TIP3    H148365   4.365   2.641   1.343  0.0770  0.0875  2.8344
 8958TIP3    H248366   4.218   2.678   1.332  0.6387  1.9978  0.9930
 8959TIP3   OH248367   3.415   4.083  11.189  0.1325  0.5220  0.0683
 8959TIP3    H148368   3.457   4.046  11.112 -2.4051 -1.5360 -0.4572
 8959TIP3    H248369   3.345   4.138  11.155 -1.1693 -0.5937  0.8551
 8960TIP3   OH248370   4.433   1.669   4.252  0.8111 -0.0032  0.5764
 8960TIP3    H148371   4.339   1.685   4.241  1.1766  1.6935 -0.4522
 8960TIP3    H248372   4.438   1.586   4.301 -1.1636 -1.4611 -1.4903
 8961TIP3   OH248373   5.556   4.554  11.444  0.2477 -0.4797  0.0518
 8961TIP3    H148374   5.561   4.645  11.476 -1.0811 -0.4605  0.2703
 8961TIP3    H248375   5.636   4.542  11.393  0.1603  1.0137 -0.4798
 8962TIP3   OH248376   1.895   3.123  13.358  0.3398  0.2798 -0.1314
 8962TIP3    H148377   1.915   3.122  13.452  2.7848 -0.1211 -0.6034
 8962TIP3    H248378   1.940   3.200  13.324 -1.0177  0.7666 -0.9179
 8963TIP3   OH248379   1.660   6.031  14.004 -0.1931  0.0773 -0.1901
 8963TIP3    H148380   1.734   5.973  14.025 -1.5629 -1.0151  1.9430
 8963TIP3    H248381   1.607   5.980  13.943 -0.0648  0.1652 -0.3760
 8964TIP3   OH248382   1.400   6.795  10.855 -0.2662  0.3285  0.2897
 8964TIP3    H148383   1.386   6.736  10.781  0.8682 -1.7426  1.6339
 8964TIP3    H248384   1.442   6.741  10.921  0.5323  2.6025  1.7529
 8965TIP3   OH248385   0.980   3.274  14.822 -0.6019 -0.4002  0.5136
 8965TIP3    H148386   0.897   3.297  14.779 -0.3528 -1.0108 -0.3169
 8965TIP3    H248387   1.024   3.358  14.834 -1.7632  0.0470  1.8955
 8966TIP3   OH248388   3.027   3.852  16.584 -0.0816  0.4593  0.0031
 8966TIP3    H148389   3.049   3.760  16.573  0.6622  0.2139  2.8127
 8966TIP3    H248390   3.103   3.900  16.552 -0.1062  0.0648 -0.6465
 8967TIP3   OH248391   0.721   3.175   4.724 -0.2409 -0.4515  0.0037
 8967TIP3    H148392   0.713   3.233   4.648 -0.4475  0.6758  0.8634
 8967TIP3    H248393   0.633   3.139   4.737 -0.4844  0.2754  0.4118
 8968TIP3   OH248394   6.012   3.074   1.423  0.1243  0.5732  0.2865
 8968TIP3    H148395   6.050   3.113   1.345  2.2691  0.6258  1.2904
 8968TIP3    H248396   5.992   2.984   1.398 -1.1180  1.1363 -0.8745
 8969TIP3   OH248397   2.515   5.937   6.673  0.4930  0.7377 -0.3307
 8969TIP3    H148398   2.603   5.955   6.705  0.6540  0.5668 -0.6624
 8969TIP3    H248399   2.529   5.882   6.596  0.1469  1.4821 -0.9436
 8970TIP3   OH248400   6.196   5.357  16.818 -0.0942 -0.7726  0.4942
 8970TIP3    H148401   6.212   5.386  16.907 -0.8568 -0.3735  0.5047
 8970TIP3    H248402   6.207   5.262  16.821 -0.0930 -0.7564  1.0030
 8971TIP3   OH248403   0.081   6.391  14.578 -0.4231 -0.3542 -0.2165
 8971TIP3    H148404   0.155   6.412  14.520 -0.2372 -0.1302  0.0998
 8971TIP3    H248405   0.013   6.359  14.519  0.0931 -1.0311 -0.4696
 8972TIP3   OH248406   2.624   2.830  13.387 -0.0072 -0.0247  0.3007
 8972TIP3    H148407   2.536   2.811  13.419  0.1919 -0.1719  0.7645
 8972TIP3    H248408   2.667   2.744  13.382 -0.0536 -0.0170 -0.4320
 8973TIP3   OH248409   1.589   4.507   6.096  0.5125  0.2004  0.1720
 8973TIP3    H148410   1.657   4.441   6.104  2.9200  2.4735 -0.1644
 8973TIP3    H248411   1.589   4.531   6.003 -0.5680  0.4695  0.2196
 8974TIP3   OH248412   1.437   3.499   0.534  0.8069  0.0179  0.2277
 8974TIP3    H148413   1.344   3.520   0.528  0.3588 -1.8631  0.0962
 8974TIP3    H248414   1.482   3.576   0.499 -0.7549  0.2693 -1.3273
 8975TIP3   OH248415   1.072   5.249   2.414 -0.3141  0.3972 -0.5204
 8975TIP3    H148416   1.039   5.284   2.332  1.9853  2.0060 -0.8540
 8975TIP3    H248417   1.103   5.326   2.463 -1.0888 -0.5693  1.6311
 8976TIP3   OH248418   4.235   3.697  11.649 -0.2623  0.1803 -0.4870
 8976TIP3    H148419   4.198   3.772  11.603  0.5155  0.0265 -1.3892
 8976TIP3    H248420   4.218   3.622  11.591  0.6100 -0.0348 -0.4752
 8977TIP3   OH248421   2.561   5.595   2.181  0.4211 -0.4077 -0.3332
 8977TIP3    H148422   2.589   5.582   2.272  0.0676  1.4654  0.0708
 8977TIP3    H248423   2.616   5.666   2.149 -0.3540 -0.1683 -1.1584
 8978TIP3   OH248424   4.068   4.576   3.423 -0.1079 -0.1092 -0.4366
 8978TIP3    H148425   4.118   4.521   3.482  0.4599  0.4180 -0.4172
 8978TIP3    H248426   3.990   4.600   3.473 -1.3524 -2.4650 -1.1287
 8979TIP3   OH248427   1.861   1.686   2.728  0.1913  0.2291  0.4863
 8979TIP3    H148428   1.809   1.665   2.806  0.8804 -2.8233  0.2613
 8979TIP3    H248429   1.812   1.648   2.655  0.7748  0.8724 -0.2656
 8980TIP3   OH248430   5.871   1.529   4.823  0.6705 -0.1579  0.1904
 8980TIP3    H148431   5.912   1.453   4.783 -1.1457 -0.7431 -0.6769
 8980TIP3    H248432   5.941   1.570   4.873  1.8159 -2.1351  0.3247
 8981TIP3   OH248433   2.374   5.178   2.926  0.0714 -0.6854 -0.0984
 8981TIP3    H148434   2.400   5.226   3.005 -0.2212 -0.6509 -0.0200
 8981TIP3    H248435   2.280   5.196   2.917 -0.1764 -1.7201  0.2669
 8982TIP3   OH248436   5.060   1.804  16.791 -0.2386  0.2011 -0.3091
 8982TIP3    H148437   5.059   1.727  16.848 -0.4602 -0.0226 -0.6086
 8982TIP3    H248438   5.089   1.770  16.706  0.2524  0.5619 -0.2890
 8983TIP3   OH248439   1.608   6.439  14.746  0.5700 -0.4886  0.0730
 8983TIP3    H148440   1.663   6.361  14.751  0.7662 -0.4377 -1.0422
 8983TIP3    H248441   1.661   6.508  14.787 -0.1305 -1.1854  2.2556
 8984TIP3   OH248442   5.768   3.554  16.234 -0.0326 -0.0899 -0.5274
 8984TIP3    H148443   5.831   3.521  16.299  0.7597 -1.0337 -1.7303
 8984TIP3    H248444   5.685   3.513  16.259 -0.5321  2.0896  1.7892
 8985TIP3   OH248445   4.183   3.668  13.925  0.3395  0.6346  0.3411
 8985TIP3    H148446   4.146   3.606  13.987 -0.1898 -0.0442 -0.6239
 8985TIP3    H248447   4.262   3.624  13.892 -0.3456  0.1836 -0.7708
 8986TIP3   OH248448   3.800   2.364   5.416  0.0022  0.6467  0.1044
 8986TIP3    H148449   3.765   2.408   5.338  0.4174  0.2734 -0.3005
 8986TIP3    H248450   3.892   2.391   5.419 -0.2007  1.2785  0.9163
 8987TIP3   OH248451   4.995   4.055  15.864 -0.3562  0.6252 -0.0350
 8987TIP3    H148452   5.031   4.096  15.785 -2.1760 -1.1086 -1.8981
 8987TIP3    H248453   5.071   4.020  15.910  0.7231  1.1612 -1.3379
 8988TIP3   OH248454   1.516   3.334   6.494  0.0429  0.2282 -0.1013
 8988TIP3    H148455   1.569   3.274   6.546 -1.9760  0.2187  2.0798
 8988TIP3    H248456   1.458   3.276   6.443  0.5085  0.2917 -0.7178
 8989TIP3   OH248457   3.572   3.746   1.296  0.1852 -0.2272 -0.0088
 8989TIP3    H148458   3.571   3.670   1.238  1.0579 -0.7884  0.6870
 8989TIP3    H248459   3.537   3.817   1.242 -2.1893 -1.4229 -0.2098
 8990TIP3   OH248460   3.078   0.470  13.797  0.2151  0.1822  0.1165
 8990TIP3    H148461   3.151   0.409  13.789  0.6165  0.7473 -0.6005
 8990TIP3    H248462   3.098   0.521  13.876  0.5253  0.2494 -0.0061
 8991TIP3   OH248463   5.361   0.033  17.190  0.2418 -0.2624 -0.2888
 8991TIP3    H148464   5.384  -0.026  17.262  0.6854  1.0932  0.7124
 8991TIP3    H248465   5.403   0.116  17.212 -2.3681  1.1963 -0.3458
 8992TIP3   OH248466   6.380   6.682  17.073  0.0116 -0.2656  0.0476
 8992TIP3    H148467   6.453   6.712  17.018 -0.2769 -1.3860 -0.9975
 8992TIP3    H248468   6.342   6.762  17.109  1.3260  0.3788  0.0620
 8993TIP3   OH248469   3.449   3.364   4.651 -0.3488  0.5073 -0.2479
 8993TIP3    H148470   3.410   3.437   4.603  1.0123  0.1416 -2.0296
 8993TIP3    H248471   3.377   3.303   4.666 -0.8825  0.7897 -1.5852
 8994TIP3   OH248472   5.395   5.940   4.399  0.0360  0.0252  0.4118
 8994TIP3    H148473   5.309   5.978   4.415 -0.4122 -0.8579  0.1767
 8994TIP3    H248474   5.392   5.855   4.443 -0.1463 -1.1431 -1.7218
 8995TIP3   OH248475   4.222   3.870  13.713 -0.1236  0.5955  0.5481
 8995TIP3    H148476   4.188   3.957  13.733 -1.8844  0.3295 -0.9901
 8995TIP3    H248477   4.199   3.817  13.789 -0.9685  1.0134  0.5981
 8996TIP3   OH248478   0.246   6.611  15.947  0.1169 -0.0106  0.0478
 8996TIP3    H148479   0.325   6.560  15.927 -0.3664 -0.3465 -1.0908
 8996TIP3    H248480   0.234   6.600  16.041 -0.5355 -2.8653 -0.2868
 8997TIP3   OH248481   4.407   4.466   2.437  0.4431 -0.7274  0.6444
 8997TIP3    H148482   4.484   4.411   2.428  0.6541 -0.2507 -0.5992
 8997TIP3    H248483   4.418   4.508   2.523  2.1259  0.1521  0.0324
 8998TIP3   OH248484   3.455   3.916   2.808 -0.3341 -0.7288 -0.5290
 8998TIP3    H148485   3.430   3.828   2.780 -1.2801 -0.2174 -1.3480
 8998TIP3    H248486   3.375   3.954   2.843 -0.2124  0.1834 -1.1955
 8999TIP3   OH248487   6.177   5.598   0.321 -0.0848  0.5130 -0.2693
 8999TIP3    H148488   6.245   5.626   0.260 -1.2086  1.5194 -1.1207
 8999TIP3    H248489   6.105   5.660   0.307 -2.6073 -2.4859 -2.0203
 9000TIP3   OH248490   0.067   6.595   2.284  0.0888  0.7834  0.2613
 9000TIP3    H148491   0.152   6.635   2.270  0.4319 -0.5533 -1.9433
 9000TIP3    H248492   0.080   6.502   2.265 -1.9919  0.6661 -1.0138
 9001TIP3   OH248493   3.834   6.654  14.295 -0.4480 -0.1026 -0.8379
 9001TIP3    H148494   3.759   6.705  14.266  0.2063 -0.1650 -2.7499
 9001TIP3    H248495   3.897   6.658  14.223  0.6158 -1.6218 -0.0777
 9002TIP3   OH248496   3.562   1.872   6.392  0.5034 -0.1438 -0.5289
 9002TIP3    H148497   3.544   1.842   6.481  1.0499 -2.1997 -1.0595
 9002TIP3    H248498   3.624   1.944   6.403 -1.7769  1.7748  0.8722
 9003TIP3   OH248499   0.004   3.220  17.381  0.5817 -0.2947 -0.1077
 9003TIP3    H148500   0.073   3.163  17.348  1.4582  0.5481  0.2270
 9003TIP3    H248501   0.043   3.308  17.382 -1.5132  0.8311 -2.9934
 9004TIP3   OH248502   2.366   2.973  14.097 -0.7093  0.4323 -0.0287
 9004TIP3    H148503   2.351   2.991  14.190 -0.1851  0.2641  0.0867
 9004TIP3    H248504   2.444   3.024  14.075 -0.5428  0.0756 -0.2585
 9005TIP3   OH248505   6.450   4.647  14.542  0.0224  0.2270 -0.0056
 9005TIP3    H148506   6.446   4.722  14.601  2.1398  0.1628  0.3034
 9005TIP3    H248507   6.544   4.635  14.525 -0.3395 -1.6529 -0.9428
 9006TIP3   OH248508   6.325   6.109  14.301 -0.5701  0.1662 -0.1571
 9006TIP3    H148509   6.312   6.118  14.396  1.9963  2.0182  0.1330
 9006TIP3    H248510   6.286   6.188  14.264 -0.7442 -0.0959 -0.5265
 9007TIP3   OH248511   3.455   0.682  15.275 -0.1575 -0.1022  0.2553
 9007TIP3    H148512   3.526   0.619  15.279  0.2103  0.3186  0.4509
 9007TIP3    H248513   3.490   0.760  15.317 -0.3814  0.4490 -0.5473
 9008TIP3   OH248514   5.193   4.200   5.036  0.5261  0.6196  0.7853
 9008TIP3    H148515   5.129   4.141   5.076  0.5656  1.2524  1.8301
 9008TIP3    H248516   5.255   4.142   4.992 -0.9156  0.0073 -0.5204
 9009TIP3   OH248517   6.724   2.884   4.437  0.3305  0.3893 -0.4830
 9009TIP3    H148518   6.688   2.797   4.454  1.0832  0.2649  0.5765
 9009TIP3    H248519   6.659   2.945   4.471  0.9173  0.1736  1.0869
 9010TIP3   OH248520   6.726   0.726  17.143  0.0827 -0.6849  0.3204
 9010TIP3    H148521   6.737   0.634  17.168  0.1105 -0.6911  0.2848
 9010TIP3    H248522   6.764   0.732  17.056 -2.3523 -1.2683 -0.8645
 9011TIP3   OH248523   3.196   3.087   2.930  0.9034 -0.0324  0.1305
 9011TIP3    H148524   3.112   3.084   2.884  0.9765  1.0335 -0.0833
 9011TIP3    H248525   3.184   3.029   3.005  0.6626 -1.5196 -1.0059
 9012TIP3   OH248526   5.160   5.613  13.465 -0.1933 -0.0288  0.0938
 9012TIP3    H148527   5.160   5.677  13.394 -0.9147 -0.4197 -0.2611
 9012TIP3    H248528   5.071   5.579  13.467 -0.4982  0.7553  1.8951
 9013TIP3   OH248529   3.411   4.117   0.580 -0.1627  0.4678  0.1854
 9013TIP3    H148530   3.323   4.154   0.584 -0.0277  0.6775  1.5734
 9013TIP3    H248531   3.434   4.122   0.487 -0.8903  2.1378  0.0538
 9014TIP3   OH248532   2.217   4.996   1.263  0.1027  0.7004  0.1608
 9014TIP3    H148533   2.153   5.052   1.306 -1.6884 -2.0597  1.4117
 9014TIP3    H248534   2.281   5.056   1.225 -1.0238  3.4814  2.3483
 9015TIP3   OH248535   1.220   5.116  11.211 -0.2065 -0.0810  0.7414
 9015TIP3    H148536   1.173   5.189  11.251 -1.4570 -0.3241 -0.2426
 9015TIP3    H248537   1.308   5.150  11.194 -0.5073  0.9007  1.1288
 9016TIP3   OH248538   5.647   0.904  17.043  0.6937  0.3104 -0.0246
 9016TIP3    H148539   5.700   0.961  17.097  0.5422  1.1475 -0.7362
 9016TIP3    H248540   5.571   0.957  17.019 -0.1145 -0.6311  0.3898
 9017TIP3   OH248541   3.940   4.244   0.771  0.0847 -0.1954 -0.7053
 9017TIP3    H148542   3.923   4.191   0.849 -1.7498  1.1326 -0.1374
 9017TIP3    H248543   3.981   4.324   0.804 -1.4644  0.7427 -0.9376
 9018TIP3   OH248544   3.489   4.119   5.651 -0.2539 -0.7413  0.8797
 9018TIP3    H148545   3.565   4.106   5.707  0.9594  1.2641 -0.1733
 9018TIP3    H248546   3.422   4.153   5.710 -0.5893 -3.0163  1.9190
 9019TIP3   OH248547   6.762   1.347  11.866 -0.7521 -0.2278  0.0891
 9019TIP3    H148548   6.737   1.417  11.806 -1.0370  0.1389  0.6305
 9019TIP3    H248549   6.856   1.361  11.881 -0.9210  0.3648  0.6156
 9020TIP3   OH248550   2.998   5.881  11.199  0.0877  0.0408 -0.6724
 9020TIP3    H148551   3.029   5.942  11.266 -1.0836  0.2986 -0.3328
 9020TIP3    H248552   2.976   5.802  11.248 -0.9252  0.2864 -0.7012
 9021TIP3   OH248553   4.633   5.810  16.390 -0.6687  0.7256  0.0290
 9021TIP3    H148554   4.607   5.722  16.415 -0.0233  0.5405  0.0725
 9021TIP3    H248555   4.728   5.804  16.375 -0.8363  1.0937 -1.3472
 9022TIP3   OH248556   6.566   5.734   2.258  0.1572 -0.4208 -0.0053
 9022TIP3    H148557   6.557   5.641   2.239  0.7785 -0.2072 -1.4461
 9022TIP3    H248558   6.512   5.748   2.336 -0.4527 -1.8511 -0.1462
 9023TIP3   OH248559   3.243   0.867   3.738 -0.5264  0.2479 -0.3186
 9023TIP3    H148560   3.217   0.776   3.729 -0.1355  0.0688  0.2947
 9023TIP3    H248561   3.176   0.916   3.690 -0.6371 -0.3674 -0.8043
 9024TIP3   OH248562   3.140   1.259  16.010  0.3070  0.2415  0.1803
 9024TIP3    H148563   3.095   1.174  16.007  1.6136 -0.4558 -0.9025
 9024TIP3    H248564   3.203   1.255  15.938  1.3767  1.5866  0.9945
 9025TIP3   OH248565   5.958   5.715   1.942 -0.4887 -0.3610 -0.2336
 9025TIP3    H148566   6.010   5.703   1.862 -1.1782 -0.1302 -0.7228
 9025TIP3    H248567   5.877   5.667   1.925 -0.6450 -0.2947  0.3255
 9026TIP3   OH248568   6.305   3.313   6.318 -0.0302 -0.2354 -0.3677
 9026TIP3    H148569   6.283   3.275   6.403 -0.3774 -1.1176 -0.8311
 9026TIP3    H248570   6.287   3.243   6.256  2.9002 -0.6175 -0.9351
 9027TIP3   OH248571   2.690   2.966   5.715 -0.4771  0.6533 -0.0804
 9027TIP3    H148572   2.623   2.957   5.783 -1.7498  1.5585 -1.1503
 9027TIP3    H248573   2.746   3.037   5.746  0.0406 -0.1397  0.8519
 9028TIP3   OH248574   3.831   1.548  12.325  0.5019  0.0583 -0.2451
 9028TIP3    H148575   3.884   1.471  12.306 -1.8680 -2.2257  1.5623
 9028TIP3    H248576   3.836   1.558  12.420 -0.9635  0.7311 -0.2065
 9029TIP3   OH248577   3.165   3.186   3.785 -0.2065 -0.1072 -0.1016
 9029TIP3    H148578   3.257   3.158   3.789 -0.6081 -1.4009  1.3625
 9029TIP3    H248579   3.144   3.210   3.876 -1.6650 -1.0904 -0.1506
 9030TIP3   OH248580   4.722   3.417  15.682 -0.4356 -0.5973  0.1159
 9030TIP3    H148581   4.710   3.506  15.717  0.6047  0.0026 -0.9783
 9030TIP3    H248582   4.665   3.363  15.736  0.5978  0.3707  2.3323
 9031TIP3   OH248583   3.692   1.766  14.681 -0.5461  0.0803 -0.7337
 9031TIP3    H148584   3.665   1.760  14.772  1.0723  1.5691 -0.1097
 9031TIP3    H248585   3.636   1.834  14.643 -1.0532 -0.3684 -0.7933
 9032TIP3   OH248586   6.724   5.680   1.319 -0.0896  0.4590  0.5869
 9032TIP3    H148587   6.640   5.661   1.359  0.6716 -4.2144  0.5092
 9032TIP3    H248588   6.781   5.705   1.392 -0.4889 -0.8553  1.3835
 9033TIP3   OH248589   6.075   2.812  15.137  0.6212  0.6374 -0.1914
 9033TIP3    H148590   6.125   2.849  15.210  0.5059  1.9058 -0.7429
 9033TIP3    H248591   6.044   2.728  15.170  0.8965  1.0209  1.0884
 9034TIP3   OH248592   1.935   1.607   2.269  0.4397 -0.4894 -0.2113
 9034TIP3    H148593   1.878   1.537   2.238 -0.3892 -1.2351  2.7380
 9034TIP3    H248594   1.881   1.686   2.265  0.5301 -0.4576 -1.0795
 9035TIP3   OH248595   1.084   2.035  17.208 -0.0545 -0.3673 -0.0843
 9035TIP3    H148596   1.025   2.097  17.252  0.0212 -0.6682  0.4442
 9035TIP3    H248597   1.064   2.046  17.115 -1.1065 -0.6138  0.0937
 9036TIP3   OH248598   1.707   5.438   3.285 -0.5526  0.0216  0.1904
 9036TIP3    H148599   1.620   5.475   3.294 -0.2343  0.9046 -0.2231
 9036TIP3    H248600   1.712   5.369   3.351 -1.1942  0.6539  0.9007
 9037TIP3   OH248601   5.208   0.078   0.274  0.4778 -0.2353 -0.2653
 9037TIP3    H148602   5.274   0.140   0.241  0.1656  0.2629  0.0363
 9037TIP3    H248603   5.180   0.116   0.358  0.0674 -0.6351 -0.2224
 9038TIP3   OH248604   0.629   5.798   2.856  0.6722 -0.3471  0.3975
 9038TIP3    H148605   0.558   5.773   2.797  0.3851  0.2204  0.4934
 9038TIP3    H248606   0.707   5.757   2.818  0.4610 -0.1569 -0.2714
 9039TIP3   OH248607   5.380   0.353   6.019 -0.2040  0.0712  0.1933
 9039TIP3    H148608   5.299   0.312   6.048 -0.2218 -0.9823 -1.2170
 9039TIP3    H248609   5.394   0.319   5.930  0.9606  1.4479 -0.1908
 9040TIP3   OH248610   6.182   0.296  11.710  0.5330 -0.2218 -0.8990
 9040TIP3    H148611   6.265   0.258  11.681  1.4105  0.5540  0.4781
 9040TIP3    H248612   6.201   0.332  11.797 -1.3390 -0.3057 -0.4100
 9041TIP3   OH248613   2.227   5.917  16.659 -0.4186  0.0624 -0.5073
 9041TIP3    H148614   2.235   5.998  16.608  0.1088  1.2947  1.4102
 9041TIP3    H248615   2.228   5.947  16.750  1.9547 -2.2264  0.3443
 9042TIP3   OH248616   3.711   1.486   5.239 -0.0764 -0.1838  0.4609
 9042TIP3    H148617   3.767   1.539   5.183  1.8429 -0.4022  2.0570
 9042TIP3    H248618   3.696   1.405   5.190  0.5034  0.1358 -0.2431
 9043TIP3   OH248619   6.411   4.632   4.019  0.0936  0.4110 -0.5819
 9043TIP3    H148620   6.456   4.661   3.940 -1.0991  0.1299 -1.3918
 9043TIP3    H248621   6.471   4.652   4.090  1.8527 -0.6938 -1.6816
 9044TIP3   OH248622   3.691   5.314   2.947 -0.3281  0.6992 -0.1797
 9044TIP3    H148623   3.601   5.286   2.929 -1.4438  1.8820  2.9308
 9044TIP3    H248624   3.696   5.403   2.914  1.0280 -0.5046 -3.7233
 9045TIP3   OH248625   2.171   1.744   0.630  0.2764 -0.3116 -0.3535
 9045TIP3    H148626   2.093   1.688   0.621  0.0126 -0.0827  0.3939
 9045TIP3    H248627   2.137   1.826   0.667  0.9563 -0.4508  0.6288
 9046TIP3   OH248628   5.714   6.701  16.343  0.1194  0.3907  0.2864
 9046TIP3    H148629   5.707   6.778  16.399 -2.3838  0.5409 -0.1202
 9046TIP3    H248630   5.634   6.702  16.290  1.1615 -1.1901 -1.4304
 9047TIP3   OH248631   5.313   2.346   6.509  0.0370  0.0423  0.3607
 9047TIP3    H148632   5.351   2.431   6.531 -0.6735  0.6614 -0.7517
 9047TIP3    H248633   5.365   2.315   6.434  0.1557 -0.4171  0.6266
 9048TIP3   OH248634   3.658   6.205  15.299  0.0063  0.1643 -0.0171
 9048TIP3    H148635   3.570   6.185  15.266  0.4844 -0.4348 -0.9657
 9048TIP3    H248636   3.717   6.178  15.228  0.9149  1.3192  0.2731
 9049TIP3   OH248637   1.874   6.341   3.314  0.2557 -0.1886  1.1089
 9049TIP3    H148638   1.888   6.279   3.243 -2.7730 -1.7118  1.6777
 9049TIP3    H248639   1.883   6.427   3.274 -0.8168 -1.0080 -1.0306
 9050TIP3   OH248640   3.180   2.250  12.301  0.0864 -0.8904  0.5189
 9050TIP3    H148641   3.191   2.295  12.218  0.4449 -1.4208  0.2685
 9050TIP3    H248642   3.197   2.317  12.368  0.1179 -0.5415  0.1617
 9051TIP3   OH248643   4.906   1.864   1.623  0.4905  0.0078 -0.2795
 9051TIP3    H148644   4.994   1.897   1.606  1.1365 -0.7793  1.2897
 9051TIP3    H248645   4.891   1.799   1.554  1.7006 -0.7969  0.1694
 9052TIP3   OH248646   6.475   3.788   1.786  0.1291 -0.3546 -0.5754
 9052TIP3    H148647   6.484   3.813   1.695 -1.3097  0.1877 -0.6038
 9052TIP3    H248648   6.380   3.779   1.799  0.2406  0.4574  1.0722
 9053TIP3   OH248649   2.197   5.856  16.274 -0.4886  0.0292 -0.0278
 9053TIP3    H148650   2.261   5.805  16.324 -1.0250 -1.5682 -0.9052
 9053TIP3    H248651   2.132   5.792  16.245 -0.3838  0.9236 -2.4858
 9054TIP3   OH248652   4.306   3.701   2.072 -0.1056 -0.1763  0.1896
 9054TIP3    H148653   4.238   3.762   2.046  1.0167  2.3905  2.7232
 9054TIP3    H248654   4.259   3.626   2.109 -1.5192  0.5124 -0.1584
 9055TIP3   OH248655   4.742   0.720  10.846  0.1391  0.7440 -0.1085
 9055TIP3    H148656   4.762   0.626  10.838 -0.1239  0.7918 -1.7337
 9055TIP3    H248657   4.821   0.764  10.816 -0.2730  1.0020 -0.8613
 9056TIP3   OH248658   1.053   1.972   4.212  0.1894  0.2915 -0.2304
 9056TIP3    H148659   1.003   1.929   4.142 -0.8874  0.6845  0.2710
 9056TIP3    H248660   0.986   2.008   4.270  1.0718  0.4883  0.6878
 9057TIP3   OH248661   0.199   4.972   5.158 -0.3405  0.2851 -0.2025
 9057TIP3    H148662   0.180   5.050   5.210 -0.4178 -0.0306  0.2434
 9057TIP3    H248663   0.249   4.915   5.216  3.8173  1.8570 -1.8843
 9058TIP3   OH248664   6.314   4.963  11.193 -0.2123 -0.3326 -0.6026
 9058TIP3    H148665   6.357   5.035  11.238  3.1185 -2.5461  0.0816
 9058TIP3    H248666   6.353   4.962  11.106 -0.0246 -1.4281 -0.5203
 9059TIP3   OH248667   1.840   1.977   5.648  0.1368  0.1503  0.5286
 9059TIP3    H148668   1.812   1.893   5.683  0.5097 -0.0708  0.3011
 9059TIP3    H248669   1.771   2.003   5.588 -0.9501  0.9455  2.0426
 9060TIP3   OH248670   1.324   5.201  14.652  0.5886 -0.0842 -0.1433
 9060TIP3    H148671   1.319   5.125  14.710  2.0461 -0.5209 -0.5390
 9060TIP3    H248672   1.336   5.275  14.711 -0.1138 -0.2498  0.2130
 9061TIP3   OH248673   0.757   0.592   4.933 -0.1741  0.4574 -0.3316
 9061TIP3    H148674   0.694   0.527   4.964  0.2623 -0.2216 -0.8318
 9061TIP3    H248675   0.705   0.670   4.915 -1.0071 -0.3346 -1.5013
 9062TIP3   OH248676   2.283   2.500   4.188  0.7925 -0.3851  0.3285
 9062TIP3    H148677   2.365   2.531   4.150  0.6261 -2.6934 -2.3377
 9062TIP3    H248678   2.269   2.414   4.146 -2.5487 -0.4560  1.2973
 9063TIP3   OH248679   3.891   2.286   3.676 -0.0004  0.4542  0.0203
 9063TIP3    H148680   3.919   2.195   3.689 -1.7149 -0.0360  0.5855
 9063TIP3    H248681   3.870   2.292   3.583 -0.0396  0.2243  0.0141
 9064TIP3   OH248682   2.996   0.357  15.556 -0.4158 -0.1794  0.2323
 9064TIP3    H148683   3.018   0.385  15.467  0.3023 -1.2369  0.0471
 9064TIP3    H248684   3.049   0.278  15.569 -0.5519 -0.0695  1.5826
 9065TIP3   OH248685   0.383   5.684   6.730 -0.1026  0.1530 -0.0725
 9065TIP3    H148686   0.467   5.664   6.771  1.0988  1.1104 -1.9246
 9065TIP3    H248687   0.374   5.779   6.739 -1.6304 -0.0752  1.2086
 9066TIP3   OH248688   5.398   6.413   5.995 -0.6255  0.9404  0.3679
 9066TIP3    H148689   5.392   6.503   6.025  0.3068  1.2100 -0.2323
 9066TIP3    H248690   5.481   6.381   6.031 -0.8052  0.4132  0.3243
 9067TIP3   OH248691   3.725   2.169   3.406  0.1053 -0.6879 -0.0438
 9067TIP3    H148692   3.729   2.151   3.312 -3.7080  0.3288 -0.5712
 9067TIP3    H248693   3.726   2.083   3.447  0.0450 -1.2363 -1.1595
 9068TIP3   OH248694   3.363   6.515  13.748  0.3771  0.0393 -0.3127
 9068TIP3    H148695   3.327   6.510  13.659 -2.9881  2.8148  0.6756
 9068TIP3    H248696   3.308   6.457  13.800  0.4896  0.6014  0.4503
 9069TIP3   OH248697   6.007   3.816   4.098 -0.3547  0.1880  0.2569
 9069TIP3    H148698   6.022   3.901   4.139 -0.3917  0.3739 -0.1091
 9069TIP3    H248699   6.094   3.777   4.091 -0.1465  0.8193 -0.9044
 9070TIP3   OH248700   4.835   3.065  15.133  0.6492 -0.3648 -0.2440
 9070TIP3    H148701   4.884   3.083  15.213  0.4097  0.2679 -0.2300
 9070TIP3    H248702   4.766   3.005  15.160  1.4383 -1.3055 -0.2774
 9071TIP3   OH248703   4.400   0.414  10.484  0.4644 -0.4934 -0.1592
 9071TIP3    H148704   4.475   0.450  10.435  0.0016  0.6264 -0.0655
 9071TIP3    H248705   4.357   0.490  10.522 -0.9111 -1.0912 -0.4573
 9072TIP3   OH248706   1.380   3.931  11.385  0.2792  0.2439  0.0082
 9072TIP3    H148707   1.401   3.839  11.402 -1.2956  0.0582  1.1131
 9072TIP3    H248708   1.464   3.976  11.390  0.8218 -0.8537  1.4948
 9073TIP3   OH248709   1.899   3.391  13.058  0.4638 -0.4428 -0.6076
 9073TIP3    H148710   1.939   3.415  13.141 -1.4020  0.0744  0.1879
 9073TIP3    H248711   1.919   3.464  12.999  3.0480 -1.4733 -1.1229
 9074TIP3   OH248712   5.403   3.436  12.705 -0.1419  0.0422  0.3064
 9074TIP3    H148713   5.315   3.443  12.744  0.0932  2.9015  0.5877
 9074TIP3    H248714   5.407   3.510  12.645  2.2411  0.2476  0.6446
 9075TIP3   OH248715   6.229   2.220  15.065  0.2223  0.3163  0.1310
 9075TIP3    H148716   6.293   2.159  15.028 -1.4916 -1.8292  0.5177
 9075TIP3    H248717   6.176   2.247  14.990  0.5982  0.8902  0.0629
 9076TIP3   OH248718   6.408   0.408   3.963  0.1297 -0.5021 -0.5428
 9076TIP3    H148719   6.322   0.382   3.998  0.3252  0.6000  0.8569
 9076TIP3    H248720   6.467   0.339   3.991  0.3890  0.5977  1.9619
 9077TIP3   OH248721   0.193   4.116  11.970  0.1464  0.0702 -0.0985
 9077TIP3    H148722   0.232   4.164  11.897 -0.9281  0.0930 -0.6605
 9077TIP3    H248723   0.134   4.179  12.011  1.5937  0.4597  1.5444
 9078TIP3   OH248724   4.129   4.241  15.251  0.3065  0.1263  0.0104
 9078TIP3    H148725   4.142   4.153  15.286 -1.0281 -0.2483 -0.3566
 9078TIP3    H248726   4.137   4.299  15.326 -1.6960 -0.5887  0.8428
 9079TIP3   OH248727   5.300   2.314  12.204  0.0869  0.5477 -0.8122
 9079TIP3    H148728   5.243   2.290  12.277  0.1112  1.2187 -0.5665
 9079TIP3    H248729   5.354   2.385  12.238  2.3539 -1.2208 -0.4407
 9080TIP3   OH248730   3.802   4.723   3.375  0.0850  0.0664  0.2233
 9080TIP3    H148731   3.733   4.729   3.441 -0.8761 -0.1760 -0.7382
 9080TIP3    H248732   3.850   4.806   3.382  0.9106 -0.5163  2.1725
 9081TIP3   OH248733   3.674   6.505  17.404 -0.4720 -0.1403  0.0684
 9081TIP3    H148734   3.628   6.536  17.482 -0.2360 -0.2929  0.2704
 9081TIP3    H248735   3.652   6.569  17.336  0.2767  0.6577  0.5587
 9082TIP3   OH248736   2.575   1.720   0.693 -0.3072  0.0826 -0.6443
 9082TIP3    H148737   2.558   1.635   0.654  0.1910  0.3116 -1.3787
 9082TIP3    H248738   2.607   1.700   0.781 -3.0670 -0.3946  0.3668
 9083TIP3   OH248739   6.427   0.513  14.127  0.3286 -0.4585  0.6077
 9083TIP3    H148740   6.503   0.492  14.073  0.5674  1.2385  0.2090
 9083TIP3    H248741   6.353   0.513  14.066  0.6349  1.7048  0.1389
 9084TIP3   OH248742   0.779   3.705  12.064  0.3010 -0.5605 -0.1552
 9084TIP3    H148743   0.724   3.671  11.993  1.1515 -1.4938 -0.3868
 9084TIP3    H248744   0.857   3.650  12.062  1.0921  0.5160  0.4001
 9085TIP3   OH248745   0.466   6.653  15.063  0.5962  0.5708  0.1574
 9085TIP3    H148746   0.505   6.725  15.012  1.7715  1.1921  1.8487
 9085TIP3    H248747   0.455   6.689  15.151 -1.1600 -0.5497  0.4469
 9086TIP3   OH248748   1.779   6.485   4.276  0.4613  0.6566  0.1186
 9086TIP3    H148749   1.821   6.399   4.277 -1.3735 -0.3502 -1.7273
 9086TIP3    H248750   1.799   6.521   4.190 -0.6082  1.0933  0.0337
 9087TIP3   OH248751   1.721   5.385   4.152 -0.0365  0.8968  0.1525
 9087TIP3    H148752   1.706   5.385   4.247  2.2390  1.2787  0.5752
 9087TIP3    H248753   1.686   5.302   4.122  1.4023 -0.3684  1.7621
 9088TIP3   OH248754   1.961   2.577   5.522  0.5817  0.2720  0.4384
 9088TIP3    H148755   1.919   2.596   5.606 -0.7471  0.3036 -0.1997
 9088TIP3    H248756   1.902   2.514   5.480  2.9536 -2.5099  0.9390
 9089TIP3   OH248757   2.560   5.276  12.002  0.1742  0.0500 -0.0484
 9089TIP3    H148758   2.535   5.253  12.092  0.7568 -0.7966 -0.0949
 9089TIP3    H248759   2.645   5.319  12.011 -0.5601  1.5454 -0.0377
 9090TIP3   OH248760   3.766   4.737  14.518  0.7211 -0.3781  0.5528
 9090TIP3    H148761   3.853   4.705  14.543  0.5435 -0.7222  0.7441
 9090TIP3    H248762   3.729   4.666  14.465  1.4308  0.6887 -1.4909
 9091TIP3   OH248763   0.877   4.977   1.976 -0.9873  0.0700  0.2092
 9091TIP3    H148764   0.971   4.958   1.975 -0.6542  1.6252  0.3021
 9091TIP3    H248765   0.850   4.970   1.884 -1.3189 -2.6752  0.4225
 9092TIP3   OH248766   3.670   1.284  12.819  0.4195 -0.3831 -0.5732
 9092TIP3    H148767   3.609   1.270  12.747 -2.8183 -0.1445  1.8430
 9092TIP3    H248768   3.658   1.208  12.876  0.6622  0.7366  1.0669
 9093TIP3   OH248769   0.089   0.796  15.247  0.3780 -0.4468  0.6247
 9093TIP3    H148770   0.059   0.875  15.292  0.2104 -1.6284  2.7237
 9093TIP3    H248771   0.167   0.824  15.199  0.8727  0.8112  2.0846
 9094TIP3   OH248772   2.010   3.153  12.929  0.3332 -0.4486 -0.3284
 9094TIP3    H148773   2.105   3.155  12.944  0.5641 -0.6732 -1.5826
 9094TIP3    H248774   1.978   3.233  12.970  1.2471  0.2414 -0.8989
 9095TIP3   OH248775   2.029   0.226   2.439  0.3561  0.2796  0.1977
 9095TIP3    H148776   2.113   0.268   2.421  0.9041 -0.8265  0.0390
 9095TIP3    H248777   2.031   0.207   2.532  1.3590 -1.8840 -0.1993
 9096TIP3   OH248778   6.790   5.987  14.178 -0.2202 -0.8750 -0.2840
 9096TIP3    H148779   6.870   5.953  14.219 -0.6887 -0.4982  0.9735
 9096TIP3    H248780   6.719   5.937  14.219 -0.9417  1.5295  1.6464
 9097TIP3   OH248781   5.170   6.534   2.701  0.1562 -0.2001  0.2633
 9097TIP3    H148782   5.142   6.607   2.756 -0.1562 -0.0371 -0.1036
 9097TIP3    H248783   5.125   6.458   2.737 -0.7928  0.0622 -0.3299
 9098TIP3   OH248784   3.705   0.532   4.707  0.0307 -0.1640 -0.6971
 9098TIP3    H148785   3.616   0.497   4.701 -1.0012  1.9882  0.6993
 9098TIP3    H248786   3.697   0.622   4.675  1.3967  0.4731  0.6228
 9099TIP3   OH248787   2.045   3.539   0.688  0.2650 -0.4736  0.6047
 9099TIP3    H148788   2.117   3.506   0.634  1.1309  2.1193  0.0558
 9099TIP3    H248789   1.978   3.565   0.624 -0.2018 -0.7229  0.9908
 9100TIP3   OH248790   0.991   0.561  14.209 -0.5897 -0.0036  0.2297
 9100TIP3    H148791   1.006   0.649  14.175  2.6385  0.1338  1.6246
 9100TIP3    H248792   0.956   0.574  14.297  0.6973 -0.0226  0.7701
 9101TIP3   OH248793   1.184   6.196   3.439 -0.6022  0.0324  0.0577
 9101TIP3    H148794   1.106   6.234   3.399 -0.2624  0.9394  0.2370
 9101TIP3    H248795   1.156   6.171   3.527 -0.7538  0.1225  0.0340
 9102TIP3   OH248796   2.941   0.062  14.336 -0.2679  0.6382 -0.2570
 9102TIP3    H148797   2.851   0.030  14.337 -0.3825  0.9548 -0.5045
 9102TIP3    H248798   2.975   0.040  14.423 -0.3689 -0.0867 -0.3927
 9103TIP3   OH248799   6.771   2.204  15.399  0.0115 -0.0120 -0.4921
 9103TIP3    H148800   6.846   2.160  15.439 -0.3463 -0.2274 -0.0526
 9103TIP3    H248801   6.806   2.287  15.368  0.1073  0.5793  1.1127
 9104TIP3   OH248802   4.995   5.637  12.530  0.3234  0.0863  0.1335
 9104TIP3    H148803   5.049   5.688  12.590 -0.6826  1.7416 -0.3056
 9104TIP3    H248804   5.057   5.600  12.467  0.9818  1.8681 -0.3018
 9105TIP3   OH248805   2.544   6.538   5.921 -0.3092  0.1230 -0.5200
 9105TIP3    H148806   2.470   6.481   5.900  0.0055  0.0075 -1.3851
 9105TIP3    H248807   2.504   6.618   5.954 -0.8716  0.4028 -1.8270
 9106TIP3   OH248808   1.203   4.324  13.634  0.0768  0.7980 -0.1240
 9106TIP3    H148809   1.134   4.302  13.697  0.9685  1.4771  1.1267
 9106TIP3    H248810   1.180   4.411  13.603 -0.4251  0.4183 -0.8698
 9107TIP3   OH248811   6.157   1.781   5.173 -0.1930 -0.2445 -0.1351
 9107TIP3    H148812   6.109   1.820   5.100  0.2039  0.3551 -0.0753
 9107TIP3    H248813   6.117   1.820   5.251  1.2002  1.2210 -0.1145
 9108TIP3   OH248814   3.843   4.654  11.439  0.3395  0.1712 -0.8086
 9108TIP3    H148815   3.756   4.681  11.469  0.8102 -0.4153  1.2959
 9108TIP3    H248816   3.875   4.729  11.389  0.1028  2.0814  1.6569
 9109TIP3   OH248817   4.515   6.068   4.123  0.0395  0.2765 -0.1641
 9109TIP3    H148818   4.516   6.135   4.053 -0.9524  1.6664  1.0899
 9109TIP3    H248819   4.601   6.077   4.164 -0.8764  2.5544  1.5039
 9110TIP3   OH248820   3.522   5.224   1.648 -0.1165  0.4512 -0.2208
 9110TIP3    H148821   3.518   5.207   1.554 -1.8914 -0.0609 -0.1019
 9110TIP3    H248822   3.606   5.187   1.676  0.1200 -0.0238 -1.4909
 9111TIP3   OH248823   1.067   5.586  11.704  0.1071 -0.5458 -0.5044
 9111TIP3    H148824   0.998   5.636  11.659  0.2336 -1.3791 -1.6773
 9111TIP3    H248825   1.082   5.634  11.785 -2.0053 -0.4448 -0.1075
 9112TIP3   OH248826   5.149   3.401  13.770  0.4519  0.1811  0.1390
 9112TIP3    H148827   5.119   3.415  13.860 -0.1071 -1.7872  0.2949
 9112TIP3    H248828   5.241   3.375  13.779  1.0238  1.9804 -0.0461
 9113TIP3   OH248829   4.371   6.048  13.439 -0.1046 -0.5111 -0.0067
 9113TIP3    H148830   4.407   6.119  13.386 -0.0448  0.1907  0.9512
 9113TIP3    H248831   4.325   6.092  13.510  0.0800 -1.4353  0.7017
 9114TIP3   OH248832   6.482   3.028  11.744  0.0955 -0.0620 -0.2682
 9114TIP3    H148833   6.530   3.003  11.666  0.0249  0.5344 -0.5063
 9114TIP3    H248834   6.535   3.097  11.784 -0.4605  0.4671 -0.4328
 9115TIP3   OH248835   1.717   2.056  15.563 -0.0594 -0.0869 -0.1638
 9115TIP3    H148836   1.720   1.960  15.557 -1.2990 -0.0740 -1.5322
 9115TIP3    H248837   1.640   2.074  15.617  0.7127  0.1433  0.8839
 9116TIP3   OH248838   4.466   3.436   0.810 -0.0460 -0.3027  0.3200
 9116TIP3    H148839   4.380   3.471   0.834  0.0860  0.9291 -0.8493
 9116TIP3    H248840   4.510   3.422   0.894 -0.7448  0.7855  0.9024
 9117TIP3   OH248841   6.517   1.551   5.794 -0.5986 -0.0318 -0.1463
 9117TIP3    H148842   6.449   1.491   5.826 -1.0308  0.9722  0.9238
 9117TIP3    H248843   6.467   1.628   5.763 -0.1244 -0.5596 -2.3750
 9118TIP3   OH248844   0.220   3.530   1.277  0.2225  0.2880  0.2185
 9118TIP3    H148845   0.140   3.478   1.285  0.4019  0.0743  0.6718
 9118TIP3    H248846   0.199   3.597   1.212 -0.5420  0.6445  0.8226
 9119TIP3   OH248847   2.149   3.972  12.480 -0.0517  0.3910  0.4705
 9119TIP3    H148848   2.206   3.896  12.491 -1.0856 -0.9061 -2.2624
 9119TIP3    H248849   2.208   4.047  12.483  1.2287 -0.6080  1.5187
 9120TIP3   OH248850   2.369   0.886   3.368 -0.3571 -0.1975 -0.2951
 9120TIP3    H148851   2.294   0.944   3.357 -1.5422 -0.8083  3.3546
 9120TIP3    H248852   2.442   0.945   3.387 -0.9890  0.2696  0.8070
 9121TIP3   OH248853   4.772   1.727   4.717 -0.0367 -0.3320  0.7407
 9121TIP3    H148854   4.832   1.729   4.792  1.9605 -0.1601 -0.8103
 9121TIP3    H248855   4.827   1.742   4.641 -2.1315  0.3016 -0.7420
 9122TIP3   OH248856   6.045   5.737   6.134  0.3852  0.3392  0.4207
 9122TIP3    H148857   6.106   5.716   6.205 -0.4469  0.7533  1.2741
 9122TIP3    H248858   6.055   5.831   6.120  0.4510  0.2826  0.0683
 9123TIP3   OH248859   6.513   1.002   2.551 -0.4128 -0.3610  0.1133
 9123TIP3    H148860   6.429   1.031   2.513 -1.6414 -2.4731  1.0782
 9123TIP3    H248861   6.505   1.022   2.644 -0.5722 -2.0961  0.4963
 9124TIP3   OH248862   0.406   5.670  14.813  0.0475 -0.0400 -0.2383
 9124TIP3    H148863   0.499   5.647  14.811 -0.2670 -1.5093  0.2285
 9124TIP3    H248864   0.361   5.585  14.814 -1.2695  0.6325  0.7053
 9125TIP3   OH248865   5.643   4.027  14.226 -0.0005  0.1140  0.2192
 9125TIP3    H148866   5.592   4.047  14.304 -1.7515 -0.8720 -0.6046
 9125TIP3    H248867   5.683   4.110  14.201  0.2841  0.5236  1.9153
 9126TIP3   OH248868   2.845   1.329   0.695  0.3943 -0.1690  0.5297
 9126TIP3    H148869   2.808   1.409   0.658  0.1106 -1.1334 -1.4086
 9126TIP3    H248870   2.939   1.336   0.677  0.1668 -0.9743 -1.1768
 9127TIP3   OH248871   0.652   1.883   6.788 -1.1336  0.7521  0.4669
 9127TIP3    H148872   0.646   1.943   6.862 -2.9574  0.2555  0.7857
 9127TIP3    H248873   0.590   1.918   6.724  0.4492  1.2005 -0.8929
 9128TIP3   OH248874   0.426   2.030  13.084 -0.1541  0.7067 -0.1306
 9128TIP3    H148875   0.445   1.978  13.006  0.3826 -0.2919  0.6510
 9128TIP3    H248876   0.347   1.990  13.120  0.3457  0.3332  0.5561
 9129TIP3   OH248877   2.362   4.009  11.995  0.6930  0.1138  0.3454
 9129TIP3    H148878   2.372   3.995  11.901 -0.0169  0.1841  0.2503
 9129TIP3    H248879   2.439   3.968  12.034  0.8968 -0.0824 -0.2515
 9130TIP3   OH248880   1.433   2.589   0.126  0.2976  0.3041  0.2823
 9130TIP3    H148881   1.425   2.496   0.108  2.5189  0.1090  0.0598
 9130TIP3    H248882   1.377   2.631   0.061 -1.5628 -0.8783  1.0608
 9131TIP3   OH248883   5.806   5.513  14.824 -0.2375  0.4802  0.6062
 9131TIP3    H148884   5.817   5.603  14.792 -0.8761 -0.3422 -2.1004
 9131TIP3    H248885   5.893   5.489  14.857  0.5629  1.3015 -0.8174
 9132TIP3   OH248886   0.339   5.152  16.013 -0.4443 -0.3460 -0.1592
 9132TIP3    H148887   0.365   5.200  16.092  5.4204 -1.6726 -0.7658
 9132TIP3    H248888   0.370   5.207  15.940 -0.5844 -1.6266 -1.2333
 9133TIP3   OH248889   3.020   6.246   2.521  0.6809 -0.2147  0.1226
 9133TIP3    H148890   2.958   6.293   2.465  1.8420 -0.1839 -1.1811
 9133TIP3    H248891   3.037   6.306   2.593 -0.4658 -0.0466  0.2751
 9134TIP3   OH248892   4.893   1.714   4.979 -0.0839 -0.0379 -0.6303
 9134TIP3    H148893   4.931   1.686   5.063  0.3857  0.5948 -0.6298
 9134TIP3    H248894   4.880   1.632   4.931 -0.5711 -0.4317  0.1463
 9135TIP3   OH248895   0.091   4.367  12.404  0.4243  0.4103  0.6207
 9135TIP3    H148896   0.070   4.297  12.341  2.0100 -0.2908  0.8202
 9135TIP3    H248897   0.121   4.440  12.349  1.0511  0.0716  0.4947
 9136TIP3   OH248898   2.677   0.555   3.456  0.2202 -0.3969 -0.2217
 9136TIP3    H148899   2.635   0.500   3.523 -1.2042 -0.1345 -0.8497
 9136TIP3    H248900   2.617   0.551   3.381  1.6506 -0.4725 -1.3987
 9137TIP3   OH248901   6.000   5.153  17.401  0.5373  0.2636  0.3295
 9137TIP3    H148902   6.026   5.225  17.344  0.2887 -0.0058 -0.1281
 9137TIP3    H248903   5.956   5.195  17.475 -0.8795  0.5065 -0.6219
 9138TIP3   OH248904   2.527   1.415  15.036  0.0990  0.2312  0.3191
 9138TIP3    H148905   2.518   1.349  15.105 -3.4448  0.6360  0.4233
 9138TIP3    H248906   2.535   1.364  14.955 -0.7795 -0.3297  0.5713
 9139TIP3   OH248907   1.179   0.476   2.412 -0.2737 -0.3462 -0.5464
 9139TIP3    H148908   1.273   0.490   2.407 -0.1858 -1.0358 -0.9019
 9139TIP3    H248909   1.148   0.487   2.321 -0.6382  0.5564 -0.3261
 9140TIP3   OH248910   1.610   3.132   1.798  0.3254 -0.0985 -0.0785
 9140TIP3    H148911   1.603   3.226   1.780 -0.5689 -0.4993 -2.0814
 9140TIP3    H248912   1.558   3.119   1.877 -2.2589  0.6730 -1.5340
 9141TIP3   OH248913   3.853   6.377  17.171 -0.1332 -0.6381 -0.5932
 9141TIP3    H148914   3.895   6.327  17.241  0.1902  0.3007 -0.1050
 9141TIP3    H248915   3.760   6.353  17.178  0.0471 -1.3370 -0.5155
 9142TIP3   OH248916   2.480   5.048   5.599 -0.0581 -0.0019  0.2075
 9142TIP3    H148917   2.387   5.064   5.579  0.0081  2.5542  1.4601
 9142TIP3    H248918   2.489   4.953   5.598 -2.4442 -0.3007 -0.9494
 9143TIP3   OH248919   3.218   2.870   3.670  0.1690 -0.1850 -0.3451
 9143TIP3    H148920   3.183   2.947   3.626 -1.7258  0.2777  1.7779
 9143TIP3    H248921   3.279   2.906   3.735 -0.9752 -0.4226  0.8763
 9144TIP3   OH248922   1.130   1.983  13.153  0.0425 -0.0643 -0.9296
 9144TIP3    H148923   1.217   1.969  13.191 -0.2858 -0.6067 -0.3659
 9144TIP3    H248924   1.147   2.007  13.062  0.7805 -0.2369 -0.8402
 9145TIP3   OH248925   5.020   4.314   5.401 -0.1071  0.0271  0.0333
 9145TIP3    H148926   5.100   4.310   5.349 -0.5215 -0.9936 -0.5753
 9145TIP3    H248927   4.966   4.242   5.366 -0.7787 -0.0850  1.2540
 9146TIP3   OH248928   4.343   0.547  14.116 -0.2951  0.2390  0.0313
 9146TIP3    H148929   4.292   0.511  14.189 -1.7045  1.7564 -0.1604
 9146TIP3    H248930   4.309   0.501  14.039 -0.9794  0.8179 -0.0220
 9147TIP3   OH248931   0.265   4.984   2.145  0.4471  0.1649 -0.1890
 9147TIP3    H148932   0.283   5.005   2.054  1.4477 -1.0830 -0.3058
 9147TIP3    H248933   0.184   5.030   2.165 -1.1375 -1.4665 -2.4306
 9148TIP3   OH248934   3.351   3.966   3.164 -0.0739  0.5244  0.3001
 9148TIP3    H148935   3.314   4.006   3.085 -2.3327  0.4786  1.2367
 9148TIP3    H248936   3.385   3.882   3.135 -2.3558 -0.2360 -0.4162
 9149TIP3   OH248937   4.446   1.055  11.605 -0.1541 -0.7646  0.2103
 9149TIP3    H148938   4.484   1.007  11.679  0.4890 -1.0432 -0.2909
 9149TIP3    H248939   4.492   1.022  11.529 -0.6336 -0.2924 -0.2955
 9150TIP3   OH248940   0.385   4.432  12.411 -0.0072 -0.2135 -0.1955
 9150TIP3    H148941   0.427   4.355  12.373 -1.0374 -1.7393  1.6258
 9150TIP3    H248942   0.303   4.400  12.448 -0.6779  1.8449  0.2525
 9151TIP3   OH248943   2.651   0.392   6.604 -0.1019 -0.0427 -0.0571
 9151TIP3    H148944   2.729   0.390   6.548 -0.0153  2.0937 -0.0886
 9151TIP3    H248945   2.622   0.483   6.602 -1.3231 -0.3388  1.7315
 9152TIP3   OH248946   1.532   6.331   2.868 -0.1221  0.1335 -0.6230
 9152TIP3    H148947   1.575   6.366   2.946 -0.9918  0.0409 -0.0989
 9152TIP3    H248948   1.605   6.306   2.810  0.5394 -0.2829  0.3641
 9153TIP3   OH248949   4.437   3.562  13.935  0.2838  0.0364  0.1341
 9153TIP3    H148950   4.483   3.644  13.950  0.9620 -0.4316  0.7021
 9153TIP3    H248951   4.429   3.523  14.022 -2.0379  0.5163  0.2035
 9154TIP3   OH248952   4.316   0.238  15.614 -0.4366  0.3580  0.2639
 9154TIP3    H148953   4.243   0.186  15.648 -1.3323  0.4690 -1.3856
 9154TIP3    H248954   4.343   0.192  15.534  1.9018 -0.1656  1.2894
 9155TIP3   OH248955   0.707   5.692  16.583  0.3253 -0.2298 -0.0673
 9155TIP3    H148956   0.622   5.668  16.621  0.9488 -3.0768 -0.2171
 9155TIP3    H248957   0.687   5.712  16.492 -0.1744 -1.3523 -0.2288
 9156TIP3   OH248958   0.251   0.662   2.497  0.3810 -0.2620  0.5630
 9156TIP3    H148959   0.295   0.631   2.577  0.5749 -0.1769  0.4887
 9156TIP3    H248960   0.243   0.757   2.509 -0.2822 -0.3438  0.8246
 9157TIP3   OH248961   5.629   3.032   4.953  0.8934 -0.0166  0.1809
 9157TIP3    H148962   5.637   3.057   4.861  0.2150 -2.5367 -0.6460
 9157TIP3    H248963   5.719   3.034   4.987  0.9452  2.8764  0.1072
 9158TIP3   OH248964   0.833   5.026   4.789  0.4269 -0.2756 -0.1715
 9158TIP3    H148965   0.902   4.966   4.760  1.3102  0.3994  0.4791
 9158TIP3    H248966   0.877   5.111   4.795 -0.1307 -0.0831  1.5134
 9159TIP3   OH248967   2.687   4.181   0.959 -0.2748  0.3116  0.2932
 9159TIP3    H148968   2.683   4.263   1.007  0.0850  0.2677  0.3995
 9159TIP3    H248969   2.779   4.172   0.934 -0.2462 -0.2409  0.5966
 9160TIP3   OH248970   1.931   2.131   3.088  0.5680 -0.3521 -0.0853
 9160TIP3    H148971   1.990   2.056   3.084  1.0322  0.0063 -0.1237
 9160TIP3    H248972   1.903   2.134   3.180  4.1130  2.0439  1.1845
 9161TIP3   OH248973   1.324   1.078  16.784 -0.1510  0.0689  0.2302
 9161TIP3    H148974   1.230   1.066  16.778 -0.5660  2.7504  0.2519
 9161TIP3    H248975   1.353   1.091  16.693  0.6239 -2.8480 -0.0457
 9162TIP3   OH248976   4.619   2.971   3.820 -0.5586 -0.7038 -0.4518
 9162TIP3    H148977   4.661   2.904   3.766 -2.6526 -1.9624 -0.6138
 9162TIP3    H248978   4.532   2.981   3.782 -0.4720  1.8320 -0.1453
 9163TIP3   OH248979   3.678   0.549  10.835  0.0488  0.3807  0.1542
 9163TIP3    H148980   3.773   0.543  10.836  0.0358  0.0427  1.8495
 9163TIP3    H248981   3.658   0.602  10.758  1.5531 -0.1919 -0.6661
 9164TIP3   OH248982   3.833   1.409   5.455  0.2552 -0.3183 -0.1685
 9164TIP3    H148983   3.767   1.428   5.388  0.3602  0.0359 -0.1778
 9164TIP3    H248984   3.914   1.394   5.405  0.3118 -0.1550 -0.1268
 9165TIP3   OH248985   0.537   2.563   6.254  0.3509 -0.0253  0.3314
 9165TIP3    H148986   0.484   2.544   6.177 -0.0718  0.0732  0.5930
 9165TIP3    H248987   0.490   2.633   6.299 -1.0877 -2.1158  2.3080
 9166TIP3   OH248988   0.530   1.828   3.962  0.1363  0.1881 -0.0041
 9166TIP3    H148989   0.599   1.890   3.986 -0.7488  1.1348  0.1348
 9166TIP3    H248990   0.564   1.786   3.883  0.9412  0.5387  0.1406
 9167TIP3   OH248991   3.606   0.315  16.866 -0.0140  0.4705  0.0593
 9167TIP3    H148992   3.663   0.239  16.862  0.4775  0.6910  1.8772
 9167TIP3    H248993   3.535   0.288  16.925  0.2527  1.4611  0.8520
 9168TIP3   OH248994   2.419   5.629   6.429 -0.3467 -0.0829  0.2972
 9168TIP3    H148995   2.470   5.710   6.424  0.1721 -0.4326 -0.2435
 9168TIP3    H248996   2.348   5.641   6.366  1.3593 -1.1461 -1.9624
 9169TIP3   OH248997   4.882   0.176  17.047  0.5645  0.1620 -0.5874
 9169TIP3    H148998   4.837   0.170  17.131  1.4472 -0.5663 -0.1598
 9169TIP3    H248999   4.974   0.157  17.067  0.9872  1.0986 -1.5326
 9170TIP3   OH249000   3.739   4.339  14.132 -0.2993  0.1982 -0.3541
 9170TIP3    H149001   3.742   4.351  14.037 -1.7432  1.5796 -0.2704
 9170TIP3    H249002   3.659   4.287  14.146  0.5176 -0.9930  0.0558
 9171TIP3   OH249003   6.781   4.488  16.021 -0.6744 -0.0355 -0.5238
 9171TIP3    H149004   6.792   4.549  16.095  0.8288 -1.3058  0.3724
 9171TIP3    H249005   6.730   4.537  15.957 -0.2396  1.8643  0.5032
 9172TIP3   OH249006   5.601   1.629   0.000 -0.1113  0.5302 -0.3197
 9172TIP3    H149007   5.648   1.695   0.052  0.1804 -0.8108  1.2149
 9172TIP3    H249008   5.560   1.572   0.066 -0.4139 -0.7731 -1.5852
 9173TIP3   OH249009   0.327   1.748   1.597  0.1873 -0.0347  0.5138
 9173TIP3    H149010   0.364   1.739   1.684  0.0660 -0.3819  0.5322
 9173TIP3    H249011   0.390   1.705   1.539  0.5981  0.7834  0.3420
 9174TIP3   OH249012   4.905   5.517  16.235  0.1599  0.2300  0.2575
 9174TIP3    H149013   4.932   5.502  16.325  0.7581  2.1399  0.4327
 9174TIP3    H249014   4.844   5.445  16.216  0.0638 -0.2347  2.1520
 9175TIP3   OH249015   2.307   0.132  13.682 -0.1408  0.3956  0.6480
 9175TIP3    H149016   2.294   0.066  13.613  0.7078  2.0984 -1.2399
 9175TIP3    H249017   2.387   0.103  13.727  0.9600  0.7254 -0.9852
 9176TIP3   OH249018   4.765   6.772  16.856 -0.0926 -0.0032  0.0884
 9176TIP3    H149019   4.810   6.825  16.923  1.2848  0.2174 -0.9725
 9176TIP3    H249020   4.797   6.683  16.870  1.8379  0.3807 -1.5519
 9177TIP3   OH249021   1.849   6.750   4.330  0.1557 -0.2580 -0.5740
 9177TIP3    H149022   1.824   6.657   4.327  2.0868 -0.9992  2.4452
 9177TIP3    H249023   1.798   6.786   4.402  2.0865  0.0393  0.7058
 9178TIP3   OH249024   2.344   4.828  12.017 -0.3094  0.1458 -0.0328
 9178TIP3    H149025   2.319   4.756  11.959 -0.1977 -0.3319  0.5067
 9178TIP3    H249026   2.386   4.891  11.959 -1.0929  0.1214 -0.6357
 9179TIP3   OH249027   6.436   6.629   0.473  0.1471  0.2300  0.3369
 9179TIP3    H149028   6.405   6.639   0.384  0.2432  0.9311  0.3737
 9179TIP3    H249029   6.469   6.716   0.497  0.4643 -0.0413  0.9215
 9180TIP3   OH249030   2.449   6.212   6.611  0.1079 -0.4050  0.0976
 9180TIP3    H149031   2.535   6.252   6.617 -0.2379  0.3160  0.3550
 9180TIP3    H249032   2.461   6.123   6.645  0.0650  0.7367  3.5132
 9181TIP3   OH249033   0.935   4.720  15.849  0.4134  0.2397 -0.2013
 9181TIP3    H149034   1.029   4.735  15.835  0.7115  0.8039  2.0098
 9181TIP3    H249035   0.929   4.628  15.872  0.6758  0.5064  1.0590
 9182TIP3   OH249036   6.735   1.539  13.600 -0.0018 -0.0118  0.4504
 9182TIP3    H149037   6.717   1.621  13.646 -1.8185 -0.5062  0.7101
 9182TIP3    H249038   6.712   1.471  13.663 -0.2245 -0.7032 -0.3655
 9183TIP3   OH249039   4.451   3.598  16.747 -0.1773  0.4052  0.1619
 9183TIP3    H149040   4.468   3.691  16.763  0.7383  0.0599  1.3678
 9183TIP3    H249041   4.534   3.555  16.768 -1.0810 -0.8630  1.2558
 9184TIP3   OH249042   6.358   5.380  10.581 -0.6823  0.0630 -0.1736
 9184TIP3    H149043   6.360   5.331  10.663 -0.1658 -1.3451 -1.0003
 9184TIP3    H249044   6.336   5.470  10.607  1.1231  0.0280  1.6880
 9185TIP3   OH249045   1.191   5.278  13.896 -0.2952 -0.4496 -0.1262
 9185TIP3    H149046   1.183   5.253  13.988 -0.6995  1.5119  0.4228
 9185TIP3    H249047   1.111   5.244  13.855 -0.5781 -0.5051  0.4572
 9186TIP3   OH249048   5.839   1.306   5.904  0.1052 -0.0066 -0.3205
 9186TIP3    H149049   5.828   1.338   5.994 -0.0836  2.2051 -1.0934
 9186TIP3    H249050   5.815   1.213   5.910 -0.6923  0.2652  1.7542
 9187TIP3   OH249051   1.974   2.235   1.739  0.3361  0.0004 -0.0013
 9187TIP3    H149052   1.913   2.222   1.666  0.4898 -0.0876 -0.1170
 9187TIP3    H249053   1.954   2.323   1.771 -2.3734 -1.3173  2.3590
 9188TIP3   OH249054   2.081   0.531  14.445 -0.2294 -0.2837 -0.2290
 9188TIP3    H149055   2.048   0.563  14.362  0.1344 -0.4653 -0.4484
 9188TIP3    H249056   2.007   0.486  14.486 -0.4679 -0.0005 -0.3550
 9189TIP3   OH249057   2.065   1.064  16.367 -0.3140 -0.0968 -0.1879
 9189TIP3    H149058   2.109   0.988  16.328 -1.2285  0.1563 -1.7976
 9189TIP3    H249059   2.113   1.139  16.333 -1.2523  0.1375 -1.0160
 9190TIP3   OH249060   1.145   1.092   1.950 -0.6087  0.3628 -0.4995
 9190TIP3    H149061   1.140   1.051   1.864 -1.6521 -0.1905 -0.1850
 9190TIP3    H249062   1.064   1.143   1.957 -0.9251 -0.2575  0.4861
 9191TIP3   OH249063   2.780   6.089   6.432  0.0038  0.1757 -0.1639
 9191TIP3    H149064   2.822   6.104   6.347  0.8436 -0.7640  0.0720
 9191TIP3    H249065   2.827   6.146   6.493 -0.8282  1.1191 -0.3585
 9192TIP3   OH249066   2.228   5.269  14.339 -0.0944  0.1663 -0.0752
 9192TIP3    H149067   2.272   5.185  14.324  1.9729  1.2401 -0.2304
 9192TIP3    H249068   2.190   5.261  14.426  0.3989 -0.7801  0.0593
 9193TIP3   OH249069   1.906   5.799  14.498  0.4770 -0.0698 -0.0838
 9193TIP3    H149070   1.826   5.767  14.539  1.6685 -1.8951  0.9727
 9193TIP3    H249071   1.915   5.889  14.529 -0.9434  0.0375  0.0773
 9194TIP3   OH249072   4.813   4.470   3.375  0.4586 -0.1457  0.4470
 9194TIP3    H149073   4.892   4.451   3.324  1.6939  1.3727  1.6775
 9194TIP3    H249074   4.797   4.390   3.425  0.3217 -0.9886 -0.8854
 9195TIP3   OH249075   0.944   0.713  12.981  0.0201  0.6175  0.8237
 9195TIP3    H149076   0.954   0.804  13.009  0.4783  1.4064 -1.5955
 9195TIP3    H249077   0.863   0.684  13.023 -0.2739  2.2407  1.4701
 9196TIP3   OH249078   2.839   2.523  13.082 -0.3719  0.2299  0.1164
 9196TIP3    H149079   2.915   2.529  13.141 -1.5574  0.4752  1.6972
 9196TIP3    H249080   2.842   2.604  13.031  0.0607  0.5452  0.6291
 9197TIP3   OH249081   1.056   4.856   3.182  0.2465 -0.3203 -0.6274
 9197TIP3    H149082   1.064   4.949   3.161  1.6992 -0.0239  0.9523
 9197TIP3    H249083   1.033   4.814   3.100  0.4810  1.3268 -1.5755
 9198TIP3   OH249084   1.805   2.271   5.733 -0.3848 -0.2502  0.3502
 9198TIP3    H149085   1.809   2.179   5.708 -0.6911 -0.4521  1.0059
 9198TIP3    H249086   1.737   2.308   5.677  1.7384  0.2923 -2.0078
 9199TIP3   OH249087   6.107   4.650  16.741  0.3142  0.0193 -0.1787
 9199TIP3    H149088   6.017   4.624  16.756  0.8949 -0.9166  2.1791
 9199TIP3    H249089   6.149   4.644  16.827  3.2856 -2.2671 -1.5852
 9200TIP3   OH249090   5.845   5.423   0.367 -0.2254  0.1753 -0.3939
 9200TIP3    H149091   5.835   5.514   0.340 -1.5858 -0.6645 -2.9743
 9200TIP3    H249092   5.931   5.397   0.334  0.5381  0.6901  1.0765
 9201TIP3   OH249093   5.942   1.210   2.096  0.1121  0.1860 -0.4713
 9201TIP3    H149094   5.866   1.193   2.042 -0.9652  1.2883  0.6360
 9201TIP3    H249095   6.009   1.240   2.035 -1.3739  2.3574 -1.1513
 9202TIP3   OH249096   2.462   6.571  12.374 -0.5645  0.4517 -0.1745
 9202TIP3    H149097   2.397   6.589  12.443 -1.4380 -0.7398 -0.6522
 9202TIP3    H249098   2.418   6.597  12.293 -0.0177  0.6509 -0.4089
 9203TIP3   OH249099   0.408   1.854  16.725 -0.0017  0.0354 -0.0069
 9203TIP3    H149100   0.415   1.764  16.694  3.1056  0.5696 -1.1862
 9203TIP3    H249101   0.355   1.898  16.658  0.4941 -0.4054 -0.7006
 9204TIP3   OH249102   5.871   4.609   1.106  0.7174 -0.0101  0.4904
 9204TIP3    H149103   5.872   4.676   1.038 -0.3148  0.0093  0.4839
 9204TIP3    H249104   5.786   4.566   1.097  0.3151  0.3713  2.1272
 9205TIP3   OH249105   5.720   2.392   4.143  0.0748 -0.1208 -0.4621
 9205TIP3    H149106   5.762   2.311   4.173  0.9745 -0.6128 -2.7587
 9205TIP3    H249107   5.788   2.435   4.090 -0.9651  1.2648 -0.7054
 9206TIP3   OH249108   1.595   4.504  15.077 -0.5486 -0.2735 -0.0814
 9206TIP3    H149109   1.616   4.585  15.030 -0.5511 -0.0752  0.2551
 9206TIP3    H249110   1.590   4.531  15.169  0.2625 -0.8071  0.1341
 9207TIP3   OH249111   6.691   1.296  16.309 -0.2608 -0.2063 -0.3308
 9207TIP3    H149112   6.663   1.253  16.390  0.4818  0.4617  0.3066
 9207TIP3    H249113   6.681   1.229  16.241 -2.6448 -0.2072 -0.0381
 9208TIP3   OH249114   3.446   4.274   1.563  0.3562  0.4383  0.1008
 9208TIP3    H149115   3.373   4.221   1.531  0.2485  0.3730  0.4589
 9208TIP3    H249116   3.522   4.216   1.558 -0.0170 -0.2579  1.9167
 9209TIP3   OH249117   5.694   4.357  16.571  0.2533 -0.1916 -0.7238
 9209TIP3    H149118   5.783   4.330  16.594 -0.1371 -1.4110 -0.5730
 9209TIP3    H249119   5.703   4.399  16.486  0.9195 -0.6976 -0.9143
 9210TIP3   OH249120   0.214   3.955   1.822  0.3173  0.0991  0.0054
 9210TIP3    H149121   0.184   3.871   1.857 -1.1022  1.6462  2.7709
 9210TIP3    H249122   0.191   3.951   1.729 -0.1662 -2.3391  0.1514
 9211TIP3   OH249123   3.139   3.271   4.633 -0.3157  0.5454 -0.0361
 9211TIP3    H149124   3.188   3.201   4.676 -0.0006  1.1223  0.5575
 9211TIP3    H249125   3.098   3.319   4.704 -1.1654  0.5044 -0.4873
 9212TIP3   OH249126   4.760   1.996  11.979  0.3736 -0.5599 -0.1696
 9212TIP3    H149127   4.754   2.070  12.040  1.3843 -0.4395 -0.1868
 9212TIP3    H249128   4.780   1.921  12.035  2.5953 -0.2297 -0.4083
 9213TIP3   OH249129   3.640   3.503  13.840 -0.3456  0.1938 -0.1423
 9213TIP3    H149130   3.658   3.440  13.770 -0.8441  0.2441 -0.3204
 9213TIP3    H249131   3.641   3.450  13.920  0.8523  0.2484 -0.1139
 9214TIP3   OH249132   5.344   5.440  16.895 -0.3154  0.0250 -0.1320
 9214TIP3    H149133   5.266   5.385  16.890 -1.8811  2.1809 -0.8390
 9214TIP3    H249134   5.354   5.476  16.807  0.9702  0.4739  0.1807
 9215TIP3   OH249135   6.670   4.795   2.216  0.3479  0.4954 -0.1548
 9215TIP3    H149136   6.690   4.833   2.131  0.3515 -0.7643 -0.7288
 9215TIP3    H249137   6.574   4.792   2.218  0.3052  1.5514  0.3712
 9216TIP3   OH249138   4.938   1.876   2.315  0.0344  0.1775  0.6715
 9216TIP3    H149139   4.957   1.968   2.335  0.2914  0.5787 -1.2290
 9216TIP3    H249140   5.013   1.828   2.349  0.8096  0.8987  0.0084
 9217TIP3   OH249141   6.368   4.236   5.079  0.2154 -0.1639  0.3082
 9217TIP3    H149142   6.412   4.227   4.994  0.1892 -2.3931  0.4791
 9217TIP3    H249143   6.302   4.304   5.064  2.2165  1.7540 -0.5459
 9218TIP3   OH249144   6.550   2.714   0.317  0.9040 -0.3190 -0.0009
 9218TIP3    H149145   6.602   2.737   0.393 -0.4170  1.7954  0.3627
 9218TIP3    H249146   6.482   2.656   0.351  2.0704 -1.8548 -0.1965
 9219TIP3   OH249147   2.697   0.155   1.742  0.3565 -0.2704  0.0900
 9219TIP3    H149148   2.615   0.198   1.767 -0.0450 -0.6282 -0.5905
 9219TIP3    H249149   2.753   0.165   1.819 -0.6678 -0.8976  0.9541
 9220TIP3   OH249150   6.255   4.761   4.856 -0.0105 -0.5406 -0.5175
 9220TIP3    H149151   6.346   4.767   4.886 -0.2893  1.5714  0.1072
 9220TIP3    H249152   6.261   4.767   4.761  0.5325 -0.8915 -0.5122
 9221TIP3   OH249153   2.266   0.103   2.589 -0.1917  0.0363  0.0907
 9221TIP3    H149154   2.220   0.180   2.620 -0.5255 -0.2065  0.2046
 9221TIP3    H249155   2.355   0.112   2.625 -0.2964  0.2458  0.2974
 9222TIP3   OH249156   5.104   4.579   2.775 -0.5151  0.0119  0.2928
 9222TIP3    H149157   5.062   4.580   2.861 -0.3152 -1.8559  0.4472
 9222TIP3    H249158   5.196   4.599   2.794 -0.6146  0.3904  0.3979
 9223TIP3   OH249159   0.689   4.058  11.197 -0.4812  0.1509 -0.1190
 9223TIP3    H149160   0.698   4.026  11.286  2.0934 -2.8213 -1.2625
 9223TIP3    H249161   0.617   4.007  11.160 -0.0404 -0.2799 -0.3840
 9224TIP3   OH249162   0.132   1.021   4.242  0.0264  0.5888  0.1012
 9224TIP3    H149163   0.060   0.999   4.183 -0.6608  0.7760  0.8480
 9224TIP3    H249164   0.138   0.947   4.302  0.2048  0.7458  0.2804
 9225TIP3   OH249165   6.458   6.740   1.681 -0.4006  0.3221  0.0903
 9225TIP3    H149166   6.446   6.692   1.762 -0.7894 -1.2092 -0.8400
 9225TIP3    H249167   6.369   6.753   1.647 -0.1872  0.1171 -0.5561
 9226TIP3   OH249168   4.622   4.886  11.861 -0.4361 -0.0270  0.2757
 9226TIP3    H149169   4.579   4.894  11.776  0.0593 -0.4500 -0.0211
 9226TIP3    H249170   4.716   4.895  11.842 -0.2967 -0.4885  0.7229
 9227TIP3   OH249171   4.474   5.103   5.097  0.4279 -0.1243 -0.0247
 9227TIP3    H149172   4.543   5.122   5.034 -0.4174 -0.4876 -1.0996
 9227TIP3    H249173   4.479   5.175   5.161  0.8074  0.6830 -0.9351
 9228TIP3   OH249174   1.252   5.665   3.043  0.4303 -0.3046 -0.2412
 9228TIP3    H149175   1.162   5.677   3.076  0.4657 -1.5846  0.3676
 9228TIP3    H249176   1.286   5.754   3.036 -0.9339  0.2205 -0.6263
 9229TIP3   OH249177   0.509   0.951   5.266  0.1082 -0.6524  0.5806
 9229TIP3    H149178   0.579   0.950   5.331 -0.2653 -1.7438  0.9852
 9229TIP3    H249179   0.450   0.881   5.293  0.1313 -1.3872 -1.1378
 9230TIP3   OH249180   6.336   6.209  11.552  0.0093  0.2875 -0.1394
 9230TIP3    H149181   6.380   6.143  11.605 -0.2751 -0.0242 -0.2846
 9230TIP3    H249182   6.395   6.284  11.553  0.5060 -0.0957 -0.2681
 9231TIP3   OH249183   0.519   5.945  13.222 -0.0965  0.1349 -0.2104
 9231TIP3    H149184   0.476   5.942  13.307 -1.2076  1.3949 -0.6900
 9231TIP3    H249185   0.503   5.859  13.183  0.3577 -0.4228  0.8064
 9232TIP3   OH249186   0.995   6.350   5.670  0.2871  0.1857 -0.2009
 9232TIP3    H149187   1.031   6.431   5.634  2.8009 -0.5505  0.5110
 9232TIP3    H249188   1.055   6.281   5.642 -0.6907 -1.1694  0.8549
 9233TIP3   OH249189   1.125   6.492  16.941  0.2230  0.2914 -0.4007
 9233TIP3    H149190   1.069   6.473  16.866  0.5802  0.9296 -0.8341
 9233TIP3    H249191   1.159   6.407  16.967  0.4744  0.1221 -1.2641
 9234TIP3   OH249192   0.379   3.037  17.402 -0.2247  0.1072 -0.3048
 9234TIP3    H149193   0.453   2.983  17.376  0.2618  0.1531  0.8964
 9234TIP3    H249194   0.351   3.081  17.322 -0.0377 -1.1998 -1.1105
 9235TIP3   OH249195   5.939   2.746  16.695 -0.0696  0.5076  0.7149
 9235TIP3    H149196   5.902   2.833  16.681  1.2208  1.0424  0.4933
 9235TIP3    H249197   5.943   2.707  16.608  1.7067  1.2422  0.4144
 9236TIP3   OH249198   0.029   4.707  13.625 -0.1291 -0.0617 -0.3920
 9236TIP3    H149199   0.045   4.769  13.696  0.5251 -1.6447  0.9084
 9236TIP3    H249200  -0.017   4.758  13.558  0.5383  1.8383  0.5355
 9237TIP3   OH249201   0.395   0.826   4.347 -0.0391 -0.7048  0.0440
 9237TIP3    H149202   0.425   0.913   4.319 -0.0252 -0.6449  0.2458
 9237TIP3    H249203   0.459   0.766   4.309  0.2435 -0.5891  0.3275
 9238TIP3   OH249204   0.538   2.718   0.637 -0.6022 -0.5836 -0.5852
 9238TIP3    H149205   0.468   2.746   0.696 -0.9204  0.9190 -1.6055
 9238TIP3    H249206   0.609   2.691   0.696 -1.7276 -1.3778  0.4627
 9239TIP3   OH249207   4.615   5.188   4.866 -0.4676  0.1228  0.1594
 9239TIP3    H149208   4.641   5.098   4.848 -1.8200 -0.3112  0.2669
 9239TIP3    H249209   4.622   5.232   4.782 -0.8143 -0.3533 -0.1227
 9240TIP3   OH249210   3.641   5.128   0.548 -0.2003 -0.2080  0.2033
 9240TIP3    H149211   3.629   5.041   0.508 -2.0846  0.7305 -1.4934
 9240TIP3    H249212   3.605   5.188   0.483  1.9971  1.9772  0.8841
 9241TIP3   OH249213   2.612   2.632  17.325 -0.2966  0.9479 -0.0453
 9241TIP3    H149214   2.554   2.704  17.300 -0.4851  1.5762  1.9772
 9241TIP3    H249215   2.698   2.659  17.296 -0.9116  0.0203 -3.0727
 9242TIP3   OH249216   5.463   4.535  15.919  0.0059 -0.1736  0.1866
 9242TIP3    H149217   5.444   4.531  15.825 -0.8795  0.2842  0.3314
 9242TIP3    H249218   5.378   4.520  15.961  0.1483  0.8727  0.8866
 9243TIP3   OH249219   0.392   5.901   2.327  0.0637 -0.4551  0.3253
 9243TIP3    H149220   0.430   5.987   2.308 -0.4145 -0.3034  0.0267
 9243TIP3    H249221   0.313   5.921   2.377 -1.0051 -0.5975 -1.2281
 9244TIP3   OH249222   4.708   1.599  13.382 -0.1595  0.0991 -0.5961
 9244TIP3    H149223   4.733   1.676  13.433 -0.2970 -0.1737 -0.1102
 9244TIP3    H249224   4.623   1.622  13.344  0.9122  1.1453 -2.4970
 9245TIP3   OH249225   6.160   4.654   2.830 -0.2906  0.1070  0.0154
 9245TIP3    H149226   6.085   4.698   2.871 -1.2917 -0.9514 -0.6064
 9245TIP3    H249227   6.148   4.562   2.851  0.1430 -0.2386 -1.1505
 9246TIP3   OH249228   4.149   0.536   2.834  0.2055  0.6198  0.3055
 9246TIP3    H149229   4.063   0.537   2.875  0.4501 -1.1085  0.9442
 9246TIP3    H249230   4.206   0.581   2.896  0.2007 -0.3335  1.0316
 9247TIP3   OH249231   5.402   0.405  13.104 -0.0269  0.5104  0.4849
 9247TIP3    H149232   5.363   0.399  13.017  0.5108 -1.2690  0.3201
 9247TIP3    H249233   5.327   0.405  13.164 -0.3748  0.5730  0.0553
 9248TIP3   OH249234   0.664   3.426  13.522 -0.1309  0.5220  0.2608
 9248TIP3    H149235   0.722   3.371  13.575  1.1775  0.9117 -0.7278
 9248TIP3    H249236   0.683   3.401  13.431 -0.5981  1.5562 -0.1385
 9249TIP3   OH249237   0.020   2.973   6.728  0.5734 -0.3198  0.0322
 9249TIP3    H149238  -0.071   2.963   6.754  0.2808 -0.2008 -0.9229
 9249TIP3    H249239   0.067   2.987   6.810 -0.4279  0.7667  0.4451
 9250TIP3   OH249240   2.095   0.426   1.622  0.3312 -0.3056  0.3524
 9250TIP3    H149241   2.028   0.364   1.652  1.8217 -1.6612  1.0443
 9250TIP3    H249242   2.156   0.432   1.695  1.5942 -0.0466 -0.6925
 9251TIP3   OH249243   2.806   2.249  14.815  0.3202  0.0982  0.4857
 9251TIP3    H149244   2.753   2.177  14.781  0.5648  0.4232 -0.6157
 9251TIP3    H249245   2.823   2.304  14.739  0.4241  1.1458  1.2458
 9252TIP3   OH249246   4.417   4.500   0.232 -0.4112  0.2814  0.4945
 9252TIP3    H149247   4.372   4.520   0.313 -1.9019  1.1308 -0.4988
 9252TIP3    H249248   4.458   4.582   0.205 -0.4224  0.1546  0.0790
 9253TIP3   OH249249   4.133   0.657   5.738 -0.1525  0.1995 -0.7545
 9253TIP3    H149250   4.167   0.629   5.653  0.8231  1.8663 -0.9452
 9253TIP3    H249251   4.081   0.735   5.719 -1.5390 -0.5131 -0.0411
 9254TIP3   OH249252   6.611   2.584   1.289 -0.3990  0.0374 -0.1800
 9254TIP3    H149253   6.589   2.649   1.357  0.1450 -0.0383  0.0702
 9254TIP3    H249254   6.567   2.504   1.318 -0.7787  0.2012 -0.3028
 9255TIP3   OH249255   3.111   3.872  10.953 -0.4280  0.2710 -0.4960
 9255TIP3    H149256   3.153   3.787  10.968  0.8082  1.3352  2.9759
 9255TIP3    H249257   3.094   3.874  10.859 -0.6344 -3.8406 -0.7243
 9256TIP3   OH249258   1.347   6.412   0.607 -0.4946  0.1003 -0.4760
 9256TIP3    H149259   1.371   6.473   0.536 -0.4700 -0.1850 -0.7137
 9256TIP3    H249260   1.427   6.361   0.623 -0.6824 -0.2586 -0.6702
 9257TIP3   OH249261   2.357   3.084  13.351 -0.1251  0.1599 -0.7986
 9257TIP3    H149262   2.289   3.025  13.384 -0.1178  0.2039 -0.7034
 9257TIP3    H249263   2.374   3.143  13.425 -0.5033  0.6135 -1.0671
 9258TIP3   OH249264   2.300   3.526  16.058 -0.5167 -0.1213 -0.8765
 9258TIP3    H149265   2.267   3.613  16.079  0.9877 -0.0841  1.7957
 9258TIP3    H249266   2.381   3.542  16.010  0.2054  0.0406  0.3426
 9259TIP3   OH249267   6.271   1.758   1.426 -0.4387 -0.2063  0.1571
 9259TIP3    H149268   6.219   1.731   1.501  0.1582  0.9481  1.0281
 9259TIP3    H249269   6.354   1.788   1.465  0.7944 -1.7532 -1.1541
 9260TIP3   OH249270   2.124   1.583   4.594  0.0801  0.2186  0.3749
 9260TIP3    H149271   2.094   1.535   4.671  0.3857  0.9057  0.9348
 9260TIP3    H249272   2.126   1.675   4.621  1.2918  0.3543 -0.0833
 9261TIP3   OH249273   0.669   0.334  14.991 -0.2971  0.5494 -0.1232
 9261TIP3    H149274   0.682   0.412  14.937 -1.2898 -0.0288 -1.2618
 9261TIP3    H249275   0.586   0.349  15.036 -1.2544 -0.3989 -1.4594
 9262TIP3   OH249276   5.625   3.136   6.832 -0.0322  0.0091  0.5207
 9262TIP3    H149277   5.592   3.095   6.912  0.2916 -2.9797 -0.7426
 9262TIP3    H249278   5.720   3.125   6.836 -0.0583 -0.8043 -0.5425
 9263TIP3   OH249279   3.295   5.774  14.448  0.3325  0.2402 -0.0140
 9263TIP3    H149280   3.231   5.783  14.378 -1.1228  1.0100  1.3583
 9263TIP3    H249281   3.297   5.860  14.490 -0.8662 -0.8851  2.5504
 9264TIP3   OH249282   1.858   0.189   6.479 -0.0972 -0.0979  0.0168
 9264TIP3    H149283   1.896   0.106   6.508 -0.3643 -0.3745 -0.4252
 9264TIP3    H249284   1.790   0.165   6.417 -0.3431  0.4428  0.0644
 9265TIP3   OH249285   4.114   2.597  13.009 -0.2766 -0.1297 -0.6891
 9265TIP3    H149286   4.192   2.604  12.954 -0.5997  3.9224 -0.9431
 9265TIP3    H249287   4.144   2.620  13.097 -0.9054 -0.0070 -0.5018
 9266TIP3   OH249288   0.885   0.015  14.619 -0.5411  0.5532 -0.0163
 9266TIP3    H149289   0.815  -0.024  14.566 -0.1028  0.9139 -0.8764
 9266TIP3    H249290   0.892   0.104  14.587  2.2160 -0.2378 -1.9889
 9267TIP3   OH249291   1.839   4.490  12.542  0.3655  0.1852  0.2610
 9267TIP3    H149292   1.846   4.396  12.532 -0.1404 -0.0488  1.7956
 9267TIP3    H249293   1.929   4.521  12.554  0.4344 -0.2663  0.9393
 9268TIP3   OH249294   6.055   2.705   1.398 -0.6293 -0.3002  0.3674
 9268TIP3    H149295   6.083   2.614   1.385  1.0349 -0.0587  1.8709
 9268TIP3    H249296   6.013   2.729   1.315  1.2976 -1.5988 -1.0782
 9269TIP3   OH249297   0.917   2.121   1.922 -0.0450  0.5494  0.0692
 9269TIP3    H149298   0.836   2.170   1.939  0.9157  2.5662 -0.7985
 9269TIP3    H249299   0.914   2.103   1.828 -0.0993 -0.5706  0.2773
 9270TIP3   OH249300   1.247   1.248  15.289 -0.3081 -0.3511  0.2500
 9270TIP3    H149301   1.253   1.154  15.273  0.1083 -0.0367 -1.6458
 9270TIP3    H249302   1.213   1.254  15.379 -0.7929 -2.2910  0.2584
 9271TIP3   OH249303   2.889   5.698   2.746 -0.4116  0.1243 -0.1230
 9271TIP3    H149304   2.867   5.634   2.813 -3.9025  0.8338 -0.4483
 9271TIP3    H249305   2.892   5.781   2.792 -1.1877  0.3974 -0.5509
 9272TIP3   OH249306   1.785   0.901  11.279 -0.3788  0.0977  0.2010
 9272TIP3    H149307   1.709   0.846  11.260  0.9030 -1.1389 -1.7961
 9272TIP3    H249308   1.858   0.839  11.280  0.7291  1.3721  1.1721
 9273TIP3   OH249309   6.172   4.942  15.422 -0.1049  0.4759 -0.1530
 9273TIP3    H149310   6.137   4.963  15.508  1.6513  3.2979  0.0182
 9273TIP3    H249311   6.177   4.847  15.420 -0.4492  0.3082  2.7742
 9274TIP3   OH249312   2.669   6.583  17.138 -0.2043  0.5839  0.4216
 9274TIP3    H149313   2.746   6.574  17.081 -0.7143 -1.3592 -0.0371
 9274TIP3    H249314   2.631   6.668  17.114  1.1251  1.0481 -0.1674
 9275TIP3   OH249315   1.150   1.647   0.636  0.1420  0.1761  0.1469
 9275TIP3    H149316   1.189   1.734   0.627  0.2059  0.2629  1.1597
 9275TIP3    H249317   1.128   1.621   0.546  3.8891 -0.5247 -0.7175
 9276TIP3   OH249318   2.470   3.698  14.633  0.2074  0.4231  1.0794
 9276TIP3    H149319   2.523   3.772  14.661  0.3362  0.9129 -0.3693
 9276TIP3    H249320   2.479   3.696  14.538 -1.5519 -0.1097  0.8789
 9277TIP3   OH249321   3.277   0.999   5.856 -0.4057 -0.0843  0.2943
 9277TIP3    H149322   3.263   1.089   5.827 -0.2419 -0.2192 -0.2289
 9277TIP3    H249323   3.371   0.984   5.845 -0.2189  0.0669  1.5501
 9278TIP3   OH249324   5.068   6.136  12.955  0.0246  0.1249  0.3296
 9278TIP3    H149325   5.159   6.109  12.970  1.0798  1.0062 -3.4406
 9278TIP3    H249326   5.040   6.171  13.040  3.0558 -0.4884  1.7480
 9279TIP3   OH249327   1.621   5.945  16.978  0.0749  0.1143  0.5368
 9279TIP3    H149328   1.652   5.908  17.060  0.6184  0.6526  0.5808
 9279TIP3    H249329   1.659   5.889  16.910 -1.5428 -1.2117  0.6643
 9280TIP3   OH249330   6.794   1.797   6.648 -0.7466  0.7157  0.1956
 9280TIP3    H149331   6.700   1.792   6.628 -0.3770 -0.4596 -1.4784
 9280TIP3    H249332   6.817   1.889   6.632 -1.6168  1.0405  0.7308
 9281TIP3   OH249333   3.756   6.060  11.431 -0.1316  0.0829 -0.1223
 9281TIP3    H149334   3.750   6.148  11.467 -2.0966  0.9654 -2.3769
 9281TIP3    H249335   3.841   6.057  11.387  0.9824 -0.0225  1.9203
 9282TIP3   OH249336   2.839   5.335   5.335  0.0482  0.6399 -0.4797
 9282TIP3    H149337   2.789   5.391   5.276 -1.1815 -0.1851 -0.2552
 9282TIP3    H249338   2.857   5.256   5.285  1.2690  0.9692 -0.5977
 9283TIP3   OH249339   1.304   4.169   1.637  0.1122  0.4545  0.1998
 9283TIP3    H149340   1.216   4.150   1.607  0.9499 -0.3223 -1.9801
 9283TIP3    H249341   1.343   4.084   1.655 -0.0833  0.8445  3.0080
 9284TIP3   OH249342   2.824   2.257   3.797  0.6787 -0.5771  0.3126
 9284TIP3    H149343   2.746   2.235   3.848  0.3303  2.0043  1.0501
 9284TIP3    H249344   2.791   2.316   3.728  1.4654 -2.3422 -1.6728
 9285TIP3   OH249345   4.353   0.906  10.499  0.0932 -0.3880 -0.1578
 9285TIP3    H149346   4.342   0.968  10.571 -0.7780 -0.8105  0.0902
 9285TIP3    H249347   4.446   0.908  10.479  0.2958 -0.0361  0.7701
 9286TIP3   OH249348   3.796   2.178   0.313 -0.0256  0.2012  0.0558
 9286TIP3    H149349   3.863   2.245   0.300 -1.4046  1.5143 -0.5284
 9286TIP3    H249350   3.821   2.136   0.395  3.1985 -1.4408 -1.5522
 9287TIP3   OH249351   5.506   3.631  15.779 -0.4904 -0.3956 -0.0992
 9287TIP3    H149352   5.546   3.570  15.718  0.0139 -0.7658  0.5775
 9287TIP3    H249353   5.423   3.590  15.804 -0.2359 -0.7281  0.2173
 9288TIP3   OH249354   2.528   2.808   4.958 -0.3543 -0.3418 -0.4822
 9288TIP3    H149355   2.482   2.780   5.037 -0.1498  0.7092  0.0180
 9288TIP3    H249356   2.611   2.761   4.961 -0.6344 -0.8520 -0.4581
 9289TIP3   OH249357   6.780   5.329  17.310  0.5927 -0.1662  0.2475
 9289TIP3    H149358   6.694   5.323  17.270  0.8574 -1.0190 -0.2194
 9289TIP3    H249359   6.826   5.396  17.260 -0.4119  1.7174  1.7069
 9290TIP3   OH249360   2.486   0.675   3.263 -0.3725 -1.3229  0.1957
 9290TIP3    H149361   2.416   0.739   3.277  0.5794 -0.1574 -0.2274
 9290TIP3    H249362   2.515   0.692   3.173  2.9900  0.8629  1.5131
 9291TIP3   OH249363   3.033   4.437   2.602 -0.0861  0.0010 -0.5045
 9291TIP3    H149364   3.034   4.483   2.517 -0.6819 -0.7514 -0.9268
 9291TIP3    H249365   3.062   4.504   2.665 -2.5386  1.4992 -0.8269
 9292TIP3   OH249366   2.411   1.675   5.830 -0.3508  0.0160  0.1560
 9292TIP3    H149367   2.337   1.729   5.804  1.0641  2.1137  0.2096
 9292TIP3    H249368   2.427   1.617   5.755 -2.1319 -0.6599  0.2451
 9293TIP3   OH249369   6.611   5.036   1.278  0.0366 -0.0444 -0.4394
 9293TIP3    H149370   6.647   5.121   1.255 -0.5319  0.1517 -0.6323
 9293TIP3    H249371   6.545   5.018   1.211  0.0690 -0.5810 -0.3360
 9294TIP3   OH249372   2.237   0.047   4.559  0.1439  0.0123 -0.2618
 9294TIP3    H149373   2.318   0.044   4.608 -0.4831  0.6088  0.8422
 9294TIP3    H249374   2.264   0.056   4.468  1.3141 -0.8090 -0.0178
 9295TIP3   OH249375   5.556   6.472  15.464 -0.3312  1.0118  0.6187
 9295TIP3    H149376   5.650   6.484  15.477 -0.4518 -0.6719  4.3665
 9295TIP3    H249377   5.548   6.384  15.427 -0.4809  1.7129 -1.1412
 9296TIP3   OH249378   1.149   4.045   6.004  0.5835  0.4954  0.5738
 9296TIP3    H149379   1.134   3.951   6.015 -2.9852  1.1641  3.0640
 9296TIP3    H249380   1.128   4.062   5.912  1.2268 -1.0817  0.0982
 9297TIP3   OH249381   4.452   1.332  16.380 -0.4387  0.4043 -0.0322
 9297TIP3    H149382   4.467   1.309  16.288  0.5555  1.9084 -0.2796
 9297TIP3    H249383   4.516   1.279  16.428 -0.1090  0.5329 -0.3246
 9298TIP3   OH249384   4.366   0.469  11.502  0.5468  0.8235  0.1583
 9298TIP3    H149385   4.311   0.530  11.452  0.4027  1.0188  0.5526
 9298TIP3    H249386   4.321   0.385  11.494 -0.9660  1.3685  2.1872
 9299TIP3   OH249387   6.381   2.088  10.803 -0.8070 -0.0724 -0.3094
 9299TIP3    H149388   6.343   2.166  10.844  1.3258  0.2758  1.1564
 9299TIP3    H249389   6.418   2.120  10.721  0.1948  0.5343  0.3593
 9300TIP3   OH249390   2.259   4.440  11.141 -0.3716  0.2580 -0.0375
 9300TIP3    H149391   2.253   4.348  11.118 -0.1653  0.1711  0.2432
 9300TIP3    H249392   2.352   4.453  11.162 -0.5389  0.3348  0.7026
 9301TIP3   OH249393   6.715   4.373   0.247  0.5473 -0.5018 -0.4367
 9301TIP3    H149394   6.797   4.359   0.295 -1.3412 -1.3579  2.8515
 9301TIP3    H249395   6.668   4.290   0.256 -1.5846  0.6539 -0.2536
 9302TIP3   OH249396   3.071   2.965  15.221 -0.8697 -0.0963  0.1401
 9302TIP3    H149397   3.150   2.932  15.179  0.2582 -0.3430  2.3326
 9302TIP3    H249398   3.004   2.899  15.201 -0.0725 -0.8068 -0.2545
 9303TIP3   OH249399   0.186   5.832  15.934 -0.4649  0.0723 -0.4041
 9303TIP3    H149400   0.139   5.892  15.992 -1.2721 -0.0245 -0.9404
 9303TIP3    H249401   0.139   5.838  15.851  0.0256 -0.5956 -0.7348
 9304TIP3   OH249402   1.474   4.086   0.309  0.4321 -0.1147 -0.3300
 9304TIP3    H149403   1.506   4.176   0.310  1.4349 -0.4632  0.6295
 9304TIP3    H249404   1.485   4.057   0.218  0.1008  0.7198 -0.6462
 9305TIP3   OH249405   3.671   4.955   5.252  0.1259  0.4195 -0.4478
 9305TIP3    H149406   3.763   4.984   5.251 -0.1405  1.3774 -2.3256
 9305TIP3    H249407   3.677   4.859   5.256  1.2301  0.4446 -0.8812
 9306TIP3   OH249408   6.088   1.209  10.557  0.1490  0.4059  0.2381
 9306TIP3    H149409   6.166   1.213  10.502  0.9715  1.0984  1.3934
 9306TIP3    H249410   6.109   1.267  10.631 -0.9756 -0.3606  1.1830
 9307TIP3   OH249411   3.054   3.918  15.346  0.7800 -0.2152  0.3627
 9307TIP3    H149412   3.037   3.902  15.439 -0.6739 -1.5733 -0.1043
 9307TIP3    H249413   3.001   3.995  15.325  1.1099  0.0931  0.6377
 9308TIP3   OH249414   2.775   2.750  12.196  0.2012  0.3481 -0.2930
 9308TIP3    H149415   2.744   2.838  12.173 -0.7346  0.4538  1.2732
 9308TIP3    H249416   2.868   2.752  12.174  0.1532  1.6616 -0.4877
 9309TIP3   OH249417   5.519   5.383  11.698  0.8325 -0.1890  0.0677
 9309TIP3    H149418   5.517   5.392  11.602  0.3942  0.7372  0.1426
 9309TIP3    H249419   5.557   5.466  11.728 -0.6124  0.2623  0.7555
 9310TIP3   OH249420   1.073   2.247  10.760  0.7666  0.1251  0.0252
 9310TIP3    H149421   1.149   2.305  10.748  1.6788 -1.2224 -0.9897
 9310TIP3    H249422   1.111   2.161  10.776 -0.4741 -1.1767 -3.3175
 9311TIP3   OH249423   3.062   1.988   5.304 -0.0268 -0.6476 -0.0544
 9311TIP3    H149424   2.978   2.034   5.305 -0.5382 -1.5268 -0.8820
 9311TIP3    H249425   3.127   2.058   5.294 -0.7774 -0.0761 -1.1895
 9312TIP3   OH249426   0.325   1.215  15.000 -0.1643  0.3138  0.5724
 9312TIP3    H149427   0.234   1.231  14.974 -0.0709  0.5265  0.3722
 9312TIP3    H249428   0.376   1.274  14.945 -0.0740  2.0773  2.4464
 9313TIP3   OH249429   0.343   5.362   2.958 -0.4337 -0.3889  0.4456
 9313TIP3    H149430   0.261   5.342   2.912  0.9186 -0.5107 -2.1078
 9313TIP3    H249431   0.369   5.278   2.996  0.1423 -1.1985 -1.6130
 9314TIP3   OH249432   6.202   2.837  16.596 -0.1348  0.3050  0.3335
 9314TIP3    H149433   6.162   2.895  16.531 -0.3766 -0.9143 -0.6347
 9314TIP3    H249434   6.172   2.871  16.681  0.2053  1.9354 -0.1670
 9315TIP3   OH249435   6.259   2.622  14.587 -0.3869 -0.2393 -0.0048
 9315TIP3    H149436   6.188   2.660  14.640  0.3263  1.4202 -0.1562
 9315TIP3    H249437   6.313   2.575  14.650 -0.5397  0.1763  0.4480
 9316TIP3   OH249438   5.676   3.349   2.153 -0.1108 -0.6049 -0.3148
 9316TIP3    H149439   5.725   3.372   2.232 -0.2679  0.9556 -0.6313
 9316TIP3    H249440   5.680   3.254   2.148  1.3647 -0.6173  0.6379
 9317TIP3   OH249441   2.862   1.889   2.819 -0.2649 -0.0850 -0.2638
 9317TIP3    H149442   2.931   1.953   2.835 -1.7539  1.0081  2.3888
 9317TIP3    H249443   2.899   1.806   2.846  1.1979 -0.2072 -2.3908
 9318TIP3   OH249444   2.364   4.368  15.724  0.2918 -0.0927 -0.4815
 9318TIP3    H149445   2.364   4.319  15.642 -0.5630 -0.3683 -0.3333
 9318TIP3    H249446   2.303   4.319  15.781  0.0234  0.7012 -0.0654
 9319TIP3   OH249447   0.449   4.271  17.394  0.1302 -0.4092 -0.2362
 9319TIP3    H149448   0.460   4.253  17.487  0.9770  0.4490 -0.1568
 9319TIP3    H249449   0.392   4.348  17.391  1.7175  0.8107 -0.3303
 9320TIP3   OH249450   1.556   4.446  13.698 -0.8670  0.4239 -0.8325
 9320TIP3    H149451   1.610   4.475  13.625  1.2227 -1.0557  0.0254
 9320TIP3    H249452   1.569   4.351  13.701  0.3435  0.5838  2.3259
 9321TIP3   OH249453   3.192   3.502   0.645  0.1124 -0.1958  0.1224
 9321TIP3    H149454   3.114   3.557   0.648  0.4393  0.2383  0.9571
 9321TIP3    H249455   3.158   3.413   0.640 -0.4218  0.0610 -1.8062
 9322TIP3   OH249456   0.332   2.377   6.347  0.8291 -0.3522  0.5236
 9322TIP3    H149457   0.427   2.382   6.333  0.6543 -0.0388 -0.6329
 9322TIP3    H249458   0.321   2.307   6.411  1.7697 -1.1137 -0.1272
 9323TIP3   OH249459   2.782   2.404   1.318  0.1935 -0.0914  0.3873
 9323TIP3    H149460   2.871   2.402   1.355 -0.6065 -2.0328  2.4229
 9323TIP3    H249461   2.747   2.489   1.345  1.5248  0.9077 -0.8508
 9324TIP3   OH249462   5.425   0.514   5.552 -0.2216 -0.7922 -0.5058
 9324TIP3    H149463   5.379   0.434   5.578  2.0109 -1.9319  0.2454
 9324TIP3    H249464   5.503   0.483   5.505  0.4313  0.9605 -0.6698
 9325TIP3   OH249465   3.452   3.834   6.278  0.0140  0.3859  0.4765
 9325TIP3    H149466   3.457   3.744   6.310  1.2052  0.5025  0.6781
 9325TIP3    H249467   3.531   3.876   6.313  1.0200  0.7179 -1.9785
 9326TIP3   OH249468   6.305   1.399   4.297 -0.7516 -0.1935  0.0883
 9326TIP3    H149469   6.276   1.489   4.282  0.4246  0.3733  1.0969
 9326TIP3    H249470   6.398   1.407   4.318 -0.6143 -1.6600  0.1030
 9327TIP3   OH249471   6.023   0.890  14.430  0.4382 -0.6548 -0.7972
 9327TIP3    H149472   5.952   0.831  14.456 -0.9709  1.0187 -0.7194
 9327TIP3    H249473   5.984   0.947  14.364  1.5549  0.6567 -0.3593
 9328TIP3   OH249474   4.124   2.038  12.815 -0.0504 -0.2323 -0.2384
 9328TIP3    H149475   4.152   1.958  12.861  1.2911  0.3034 -0.0613
 9328TIP3    H249476   4.132   2.107  12.882  1.7391  0.5286 -1.1661
 9329TIP3   OH249477   0.715   3.722  11.091 -0.3678  0.4191  0.1383
 9329TIP3    H149478   0.701   3.752  11.001 -2.9584 -2.1860 -0.4535
 9329TIP3    H249479   0.641   3.757  11.140 -0.6565 -0.7168  0.5354
 9330TIP3   OH249480   3.417   1.088  16.993 -0.1122  0.0922 -0.5749
 9330TIP3    H149481   3.385   1.100  17.083  0.8019 -1.6704  0.0275
 9330TIP3    H249482   3.405   0.995  16.975  1.8922 -0.0576 -1.3920
 9331TIP3   OH249483   2.271   3.542   4.700 -0.4542 -0.0231 -0.1700
 9331TIP3    H149484   2.350   3.532   4.754 -0.7317  0.1385  0.2752
 9331TIP3    H249485   2.303   3.572   4.615 -0.0547  0.2407  0.0710
 9332TIP3   OH249486   3.134   0.335  12.288  0.3562  0.5013  0.2374
 9332TIP3    H149487   3.161   0.355  12.377 -0.6562  1.2653  0.3856
 9332TIP3    H249488   3.073   0.262  12.297 -0.6260  1.3080  0.3030
 9333TIP3   OH249489   5.909   3.131  15.278 -0.3324  0.5773  0.0820
 9333TIP3    H149490   5.874   3.215  15.308 -3.5178 -1.1998  1.9034
 9333TIP3    H249491   5.854   3.108  15.203 -0.8952 -0.7487  0.8652
 9334TIP3   OH249492   6.094   2.322  16.434 -0.1045  0.2944  0.1439
 9334TIP3    H149493   6.041   2.272  16.372 -0.3003  0.5207  0.1223
 9334TIP3    H249494   6.184   2.311  16.404 -0.2896  1.3111 -0.8564
 9335TIP3   OH249495   0.176   2.586  14.750  0.3519 -0.7135  0.7729
 9335TIP3    H149496   0.093   2.540  14.738  1.4107 -2.5155 -0.1404
 9335TIP3    H249497   0.163   2.640  14.828 -3.0865  2.4954 -1.6592
 9336TIP3   OH249498   3.279   4.375   0.378 -0.2688  0.1287 -0.3050
 9336TIP3    H149499   3.326   4.300   0.341  1.3059  0.5893  0.6636
 9336TIP3    H249500   3.315   4.451   0.332  0.4183  0.5454  0.8852
 9337TIP3   OH249501   6.281   0.731   3.177 -0.1133  0.0803  0.0602
 9337TIP3    H149502   6.356   0.685   3.214  0.2303  0.3342 -0.3226
 9337TIP3    H249503   6.225   0.662   3.143 -0.5895 -0.1815  1.3331
 9338TIP3   OH249504   4.648   0.097  14.764 -0.3487  0.5097 -0.1809
 9338TIP3    H149505   4.662   0.110  14.671 -0.6264 -1.1268 -0.4777
 9338TIP3    H249506   4.725   0.137  14.806  0.1405  0.6118 -1.1512
 9339TIP3   OH249507   0.706   5.496  12.591 -0.4509 -0.2269 -0.3525
 9339TIP3    H149508   0.688   5.410  12.554  1.3083 -1.1937  0.8966
 9339TIP3    H249509   0.693   5.486  12.685  0.7605  0.5514 -0.0713
 9340TIP3   OH249510   3.806   4.122  14.882  0.1971 -0.2823 -0.6292
 9340TIP3    H149511   3.858   4.201  14.899  0.1565 -0.2176 -0.8132
 9340TIP3    H249512   3.716   4.148  14.902  0.2586 -0.4548 -0.1029
 9341TIP3   OH249513   0.432   6.416   2.348  0.1907  0.4017  0.2270
 9341TIP3    H149514   0.407   6.346   2.409  1.2341 -0.2433 -0.0512
 9341TIP3    H249515   0.369   6.409   2.277  0.6219 -0.6490 -0.0700
 9342TIP3   OH249516   3.218   6.266  14.142 -0.0736  0.1550  0.3299
 9342TIP3    H149517   3.276   6.330  14.102  1.6354 -1.9058 -0.6998
 9342TIP3    H249518   3.221   6.191  14.084 -2.4823 -0.6845  1.1623
 9343TIP3   OH249519   5.689   5.422   5.120 -0.2844  0.1400 -0.1205
 9343TIP3    H149520   5.661   5.490   5.181  3.0017 -1.1991  3.3109
 9343TIP3    H249521   5.678   5.340   5.169  1.0433 -1.2109 -1.9411
 9344TIP3   OH249522   4.274   0.265  17.130  0.4992  0.3975  0.5219
 9344TIP3    H149523   4.334   0.233  17.197 -0.5781  0.6752  1.6448
 9344TIP3    H249524   4.196   0.293  17.178 -0.5317  0.0717 -0.8939
 9345TIP3   OH249525   3.872   0.976  12.434  0.0952 -0.1663  0.8321
 9345TIP3    H149526   3.930   0.908  12.468  1.1222  0.6709  0.8231
 9345TIP3    H249527   3.812   0.995  12.507  0.9492  0.1575  1.4647
 9346TIP3   OH249528   2.730   0.171  15.998  0.5308 -0.0057 -0.2043
 9346TIP3    H149529   2.809   0.225  16.003  0.6829 -0.0247 -1.8528
 9346TIP3    H249530   2.658   0.234  15.993  0.3217  0.0208  2.0199
 9347TIP3   OH249531   2.351   5.222   0.602  0.3566  0.4851  0.7505
 9347TIP3    H149532   2.441   5.219   0.568  0.4086  2.2129  0.6424
 9347TIP3    H249533   2.354   5.290   0.670 -0.8871  0.6446  0.6584
 9348TIP3   OH249534   4.543   0.447   2.112 -0.1600  0.2156  0.2871
 9348TIP3    H149535   4.553   0.503   2.035 -0.9102 -1.0765 -0.7973
 9348TIP3    H249536   4.467   0.484   2.158 -0.5109  0.2276 -0.2906
 9349TIP3   OH249537   3.650   1.906   3.554 -0.3233 -0.7190  0.1710
 9349TIP3    H149538   3.735   1.865   3.572  0.9947  1.7634  0.0444
 9349TIP3    H249539   3.625   1.946   3.637 -0.7356 -0.3707 -0.1184
 9350TIP3   OH249540   6.009   4.211  15.588 -0.1980 -0.5941 -0.1556
 9350TIP3    H149541   5.915   4.192  15.596 -0.2468 -0.0863  0.5847
 9350TIP3    H249542   6.034   4.171  15.505 -1.6514  1.6503 -1.7840
 9351TIP3   OH249543   6.741   3.703  15.623 -0.2276 -0.5835 -0.3080
 9351TIP3    H149544   6.814   3.765  15.626 -0.3660 -0.2864 -1.8720
 9351TIP3    H249545   6.728   3.686  15.529 -1.0169 -2.0074  0.0231
 9352TIP3   OH249546   6.436   2.224  15.982  0.0133 -0.2534  0.2241
 9352TIP3    H149547   6.437   2.243  16.076  1.3974 -1.2667  0.4610
 9352TIP3    H249548   6.426   2.129  15.977  2.3151 -0.5254 -0.5182
 9353TIP3   OH249549   3.484   6.749   3.879  0.2450 -0.9903  0.4068
 9353TIP3    H149550   3.538   6.674   3.903 -0.1335 -1.7686 -1.0164
 9353TIP3    H249551   3.408   6.711   3.836  0.2216  0.2093 -0.6797
 9354TIP3   OH249552   5.567   5.136   5.502 -0.6759  0.4808  0.1398
 9354TIP3    H149553   5.489   5.111   5.453 -0.0029 -0.4838 -0.4758
 9354TIP3    H249554   5.631   5.160   5.435  0.1711 -0.6016  0.5309
 9355TIP3   OH249555   1.213   0.706   3.743 -0.6936  0.6336 -0.1544
 9355TIP3    H149556   1.175   0.654   3.672 -1.0418  0.0628  0.4369
 9355TIP3    H249557   1.308   0.697   3.732 -0.6052 -3.1580  1.9883
 9356TIP3   OH249558   1.892   0.444  13.617 -0.0547 -0.1387 -0.2496
 9356TIP3    H149559   1.911   0.536  13.599  0.2120 -0.4446 -1.6978
 9356TIP3    H249560   1.978   0.403  13.624 -0.1648 -0.1949  1.0099
 9357TIP3   OH249561   3.648   0.915   0.657  0.3322 -0.2129 -0.6325
 9357TIP3    H149562   3.734   0.897   0.618  0.5790 -0.7436  0.1373
 9357TIP3    H249563   3.666   0.978   0.727  0.1688 -0.6911 -0.1556
 9358TIP3   OH249564   1.996   4.894   5.191 -0.2227 -0.6823  0.7966
 9358TIP3    H149565   1.998   4.798   5.190  1.5531 -0.6828 -0.8201
 9358TIP3    H249566   2.011   4.917   5.283 -1.1013 -1.9276  1.2896
 9359TIP3   OH249567   0.387   1.628  12.601 -0.4307 -0.1466 -0.3920
 9359TIP3    H149568   0.449   1.652  12.531  0.3420 -2.8025 -0.7056
 9359TIP3    H249569   0.441   1.585  12.667 -1.6542 -0.6363  0.3151
 9360TIP3   OH249570   4.945   4.736  15.405  0.1633 -0.1849  0.3792
 9360TIP3    H149571   4.901   4.776  15.479  0.6695  1.7302 -0.3045
 9360TIP3    H249572   4.926   4.794  15.331  0.9732 -1.1903 -0.6597
 9361TIP3   OH249573   6.561   0.120   2.728 -0.0201  0.4826 -0.2627
 9361TIP3    H149574   6.616   0.109   2.805  0.0650 -0.0694 -0.3969
 9361TIP3    H249575   6.577   0.210   2.699 -0.0878  0.7072  0.3844
 9362TIP3   OH249576   2.259   5.774   1.135 -0.5416 -0.1240 -0.6592
 9362TIP3    H149577   2.175   5.733   1.155 -0.4126 -0.2550 -0.3781
 9362TIP3    H249578   2.281   5.824   1.214 -0.3817 -0.0444 -0.7527
 9363TIP3   OH249579   0.331   2.243  10.937  0.4525 -0.3900 -0.0660
 9363TIP3    H149580   0.305   2.285  10.856  0.6289  0.7327  0.4464
 9363TIP3    H249581   0.286   2.159  10.936 -1.1630  0.4535 -0.3786
 9364TIP3   OH249582   5.717   5.656  12.232  0.9341  0.3586 -0.2775
 9364TIP3    H149583   5.664   5.577  12.241 -0.2227  1.1335 -0.1923
 9364TIP3    H249584   5.731   5.686  12.322  0.7654  0.6478 -0.3479
 9365TIP3   OH249585   3.488   2.600   5.293  0.0006  0.4110 -0.0649
 9365TIP3    H149586   3.469   2.669   5.356 -2.1696  0.1615 -0.3736
 9365TIP3    H249587   3.402   2.565   5.268  0.8290 -0.1706 -2.3984
 9366TIP3   OH249588   2.882   1.550  13.574  0.0343  0.3360  0.3063
 9366TIP3    H149589   2.859   1.643  13.571 -0.9118  0.0749 -1.4589
 9366TIP3    H249590   2.887   1.523  13.483  1.9764 -0.9883  0.7366
 9367TIP3   OH249591   2.869   4.978  12.519  0.4379  0.2306  0.1851
 9367TIP3    H149592   2.796   4.922  12.548  0.9948 -0.8600 -0.4433
 9367TIP3    H249593   2.833   5.028  12.445 -0.2050  1.0821  1.0497
 9368TIP3   OH249594   3.656   3.405   3.285 -0.5663  0.0750 -0.0036
 9368TIP3    H149595   3.649   3.321   3.239 -2.4050  0.2229 -0.0808
 9368TIP3    H249596   3.684   3.466   3.217 -1.9324  0.0270 -0.6524
 9369TIP3   OH249597   0.916   5.481  10.644  0.0105 -0.0764 -0.4868
 9369TIP3    H149598   0.932   5.461  10.551 -0.9893  0.2376 -0.7399
 9369TIP3    H249599   0.821   5.481  10.652  0.0762  0.5689  0.4018
 9370TIP3   OH249600   6.538   1.713   4.500  0.0852  0.1014  0.4683
 9370TIP3    H149601   6.535   1.645   4.567  2.6486  0.0290  0.6022
 9370TIP3    H249602   6.620   1.760   4.516  1.5500 -0.7570 -3.3471
 9371TIP3   OH249603   3.252   5.319   2.577  0.3479  0.0505 -0.1005
 9371TIP3    H149604   3.168   5.276   2.560 -0.0246  0.3447  0.9262
 9371TIP3    H249605   3.299   5.313   2.494 -0.8556  0.2458 -0.8230
 9372TIP3   OH249606   5.669   6.670  14.394 -0.3431  0.2070  0.0743
 9372TIP3    H149607   5.616   6.746  14.374  1.2034  0.9995 -1.3340
 9372TIP3    H249608   5.715   6.651  14.312  1.6605 -0.2861  1.2295
 9373TIP3   OH249609   0.695   0.892  15.783  0.1137 -0.9913  0.0852
 9373TIP3    H149610   0.764   0.934  15.834  0.2693 -0.1024 -0.8189
 9373TIP3    H249611   0.739   0.821  15.737  0.6673  0.1255 -1.1919
 9374TIP3   OH249612   1.421   6.150   5.705 -0.1769  0.5600 -0.1008
 9374TIP3    H149613   1.493   6.124   5.647 -0.9785 -0.8163 -0.5473
 9374TIP3    H249614   1.463   6.172   5.788  0.7217 -1.0220 -0.0923
 9375TIP3   OH249615   3.256   3.784   0.877  0.0217  0.1675  0.3569
 9375TIP3    H149616   3.322   3.813   0.814  1.8692 -0.5155  1.8752
 9375TIP3    H249617   3.239   3.861   0.931  0.0972  0.1620  0.3892
 9376TIP3   OH249618   1.976   6.523  11.106 -0.3624  0.3251 -0.5102
 9376TIP3    H149619   2.047   6.499  11.047 -0.8902 -0.2354 -0.9338
 9376TIP3    H249620   1.900   6.475  11.073 -0.3867 -1.0977  1.4154
 9377TIP3   OH249621   2.780   0.565   5.306  0.4122  0.0465  0.3766
 9377TIP3    H149622   2.793   0.650   5.348  0.4979 -0.2489  0.9526
 9377TIP3    H249623   2.686   0.559   5.291  0.1700 -0.5155  1.9745
 9378TIP3   OH249624   1.182   2.493  11.345  0.3345 -0.2145 -0.3674
 9378TIP3    H149625   1.219   2.580  11.333  1.6114 -0.7608 -0.5211
 9378TIP3    H249626   1.157   2.489  11.438 -1.9176  1.1045 -0.8286
 9379TIP3   OH249627   5.554   1.810  12.825 -0.0828  0.1206 -0.0364
 9379TIP3    H149628   5.590   1.897  12.812  0.8169  0.0036  1.5106
 9379TIP3    H249629   5.507   1.814  12.909  1.3673 -1.2773  0.9002
 9380TIP3   OH249630   0.904   0.274  12.664  0.4784  0.2607 -0.3024
 9380TIP3    H149631   0.820   0.315  12.643  0.5733 -0.0767 -1.4420
 9380TIP3    H249632   0.932   0.233  12.581  1.0436 -0.9133  0.4404
 9381TIP3   OH249633   1.596   1.503   0.135 -0.4270 -0.3794  0.1771
 9381TIP3    H149634   1.658   1.478   0.204 -0.3393  0.0278  0.2512
 9381TIP3    H249635   1.645   1.489   0.054  0.2227  1.1358  0.2804
 9382TIP3   OH249636   6.444   2.891   3.365  0.1456  0.0474 -0.5839
 9382TIP3    H149637   6.400   2.914   3.283  2.0438  0.5824 -1.5272
 9382TIP3    H249638   6.538   2.899   3.344  0.7132 -1.4880  1.1634
 9383TIP3   OH249639   3.319   3.538  11.330  0.6608 -0.2905 -0.7302
 9383TIP3    H149640   3.348   3.618  11.374  0.3989  0.5727 -2.0540
 9383TIP3    H249641   3.400   3.491  11.310  0.7315 -1.9872  2.7940
 9384TIP3   OH249642   3.866   2.614   4.342 -0.5001 -0.8843 -0.0920
 9384TIP3    H149643   3.851   2.578   4.254 -0.5968 -3.8404  1.0390
 9384TIP3    H249644   3.924   2.689   4.327 -0.6279 -1.1972 -2.6674
 9385TIP3   OH249645   6.611   5.735   0.019  0.2702  0.1502 -0.5602
 9385TIP3    H149646   6.585   5.827   0.016 -0.7393 -0.0645  0.7423
 9385TIP3    H249647   6.597   5.703  -0.070  0.4799  1.2142 -0.9834
 9386TIP3   OH249648   1.761   0.309   1.063 -0.1078  0.0383  0.1692
 9386TIP3    H149649   1.729   0.397   1.042 -2.6359 -0.1003  2.8909
 9386TIP3    H249650   1.704   0.250   1.014 -0.2077 -0.1235  0.4774
 9387TIP3   OH249651   4.997   6.594  17.266 -0.8003 -0.0437  0.0767
 9387TIP3    H149652   5.090   6.602  17.286 -0.5510  0.0640 -1.0826
 9387TIP3    H249653   4.957   6.567  17.349  0.0005  1.6688  1.0595
 9388TIP3   OH249654   0.702   5.143   6.297  0.1132 -0.0812 -0.0685
 9388TIP3    H149655   0.675   5.163   6.207 -0.0180  1.6073  0.3129
 9388TIP3    H249656   0.625   5.163   6.350  0.9977  1.4972  0.6843
 9389TIP3   OH249657   4.546   5.636   0.652  0.0440 -0.2976  0.5776
 9389TIP3    H149658   4.568   5.624   0.744 -0.7247  0.8699  0.9315
 9389TIP3    H249659   4.522   5.548   0.621  1.1163 -0.8457  1.2523
 9390TIP3   OH249660   6.215   5.687  15.682 -0.9621  0.2989  0.2647
 9390TIP3    H149661   6.226   5.693  15.587  0.4446 -1.1885  0.2915
 9390TIP3    H249662   6.264   5.761  15.717  0.8105 -0.6426 -0.0962
 9391TIP3   OH249663   2.951   5.983   2.444  0.6125  0.0869 -0.2618
 9391TIP3    H149664   2.961   6.078   2.458  0.2417 -0.0769  1.4082
 9391TIP3    H249665   2.953   5.972   2.349  0.0994  1.8414 -0.5146
 9392TIP3   OH249666   5.664   1.566  12.920 -0.3378  0.2018  0.1048
 9392TIP3    H149667   5.725   1.584  12.849  1.9443 -0.5918  1.7200
 9392TIP3    H249668   5.587   1.620  12.900 -0.3997 -0.9904 -3.5847
 9393TIP3   OH249669   3.888   5.785   2.057  0.2195 -0.1391 -0.0017
 9393TIP3    H149670   3.965   5.795   2.113  0.8745 -0.6854 -0.7986
 9393TIP3    H249671   3.846   5.871   2.059  1.0293  0.2583  0.1751
 9394TIP3   OH249672   1.892   4.250   4.683 -0.2424  0.2151  0.0691
 9394TIP3    H149673   1.802   4.279   4.694 -0.0629  2.2373 -2.8001
 9394TIP3    H249674   1.944   4.329   4.689  1.0040 -0.4424 -1.3849
 9395TIP3   OH249675   5.779   3.542   1.794  0.2243 -0.3773 -0.3482
 9395TIP3    H149676   5.865   3.579   1.813 -0.0724  0.4757 -0.6085
 9395TIP3    H249677   5.789   3.499   1.709  0.1416  0.6323 -0.8879
 9396TIP3   OH249678   3.506   5.720   6.166  0.3559  0.2213  0.2767
 9396TIP3    H149679   3.525   5.795   6.222  0.4278 -0.0247  0.5877
 9396TIP3    H249680   3.461   5.658   6.224 -1.2423  0.7050 -0.3846
 9397TIP3   OH249681   2.501   1.030  16.099 -0.1236 -0.0789  0.4609
 9397TIP3    H149682   2.579   1.029  16.043 -0.7752 -0.3450 -0.4773
 9397TIP3    H249683   2.428   1.041  16.037 -1.1570 -3.5123  0.8820
 9398TIP3   OH249684   2.356   5.618  15.746 -0.0385  0.1089  0.4549
 9398TIP3    H149685   2.437   5.579  15.716 -0.8268 -2.8784  1.8441
 9398TIP3    H249686   2.327   5.563  15.819 -3.9746  0.1570 -0.7917
 9399TIP3   OH249687   5.615   6.481  13.675  0.1335  0.0580 -0.4026
 9399TIP3    H149688   5.616   6.577  13.676  1.8074  0.0837  1.5230
 9399TIP3    H249689   5.612   6.458  13.582  0.9705  1.9895 -0.9548
 9400TIP3   OH249690   3.398   1.683   2.674  0.0995  0.3844 -0.0600
 9400TIP3    H149691   3.491   1.677   2.653 -0.1361  0.0121 -1.0231
 9400TIP3    H249692   3.360   1.732   2.602 -0.4765  0.4294  0.2695
 9401TIP3   OH249693   4.472   0.224   0.714  0.2764  0.2402  0.4802
 9401TIP3    H149694   4.473   0.306   0.664  0.8283 -0.3968 -0.5903
 9401TIP3    H249695   4.429   0.247   0.796  1.4065  1.8786  0.6762
 9402TIP3   OH249696   0.650   2.397  16.459  0.5215  0.4803  0.3167
 9402TIP3    H149697   0.700   2.385  16.378  1.5550  0.3239  0.9528
 9402TIP3    H249698   0.687   2.333  16.520 -0.5836  0.2448  0.7726
 9403TIP3   OH249699   1.864   4.409   2.443  0.4964  0.1145  0.6678
 9403TIP3    H149700   1.798   4.351   2.407 -0.0436 -0.1971  2.0817
 9403TIP3    H249701   1.864   4.485   2.385 -0.5196 -0.2426  0.1897
 9404TIP3   OH249702   2.384   1.411  11.866 -0.4197  0.7234 -0.2328
 9404TIP3    H149703   2.292   1.393  11.848  0.3950 -1.6913 -2.6651
 9404TIP3    H249704   2.426   1.415  11.780  1.8225  1.4636  0.8009
 9405TIP3   OH249705   0.387   3.951  15.347  0.0541  0.6391  0.3945
 9405TIP3    H149706   0.324   3.992  15.406  0.3819  1.0032  0.4924
 9405TIP3    H249707   0.410   4.019  15.285  0.8237  0.6979  0.7347
 9406TIP3   OH249708   1.510   6.531   4.162  0.3433 -0.7245  0.5873
 9406TIP3    H149709   1.573   6.553   4.231 -1.3598 -0.3382  2.1040
 9406TIP3    H249710   1.474   6.616   4.135  0.2505 -0.9664 -0.0582
 9407TIP3   OH249711   4.438   5.584  12.211  0.8224  0.5565 -0.1467
 9407TIP3    H149712   4.370   5.524  12.239 -0.3053  1.5130 -0.7614
 9407TIP3    H249713   4.497   5.530  12.158 -1.5200  0.4015 -2.8340
 9408TIP3   OH249714   4.577   0.937  11.368 -0.1179 -0.2058 -0.3817
 9408TIP3    H149715   4.628   0.864  11.403 -0.1709 -0.2701 -0.4390
 9408TIP3    H249716   4.555   0.911  11.279  1.8923  0.8995 -1.2485
 9409TIP3   OH249717   4.372   3.457   2.298 -0.4172 -0.6186 -0.0670
 9409TIP3    H149718   4.349   3.369   2.329  0.0664 -1.3037 -1.5681
 9409TIP3    H249719   4.427   3.442   2.222  1.6879  1.0031  1.0476
 9410TIP3   OH249720   1.568   3.498  11.227 -0.3407 -0.1276  0.1780
 9410TIP3    H149721   1.537   3.556  11.158  1.3607  1.4335  0.6528
 9410TIP3    H249722   1.594   3.418  11.181  0.6411  0.8339 -0.9842
 9411TIP3   OH249723   6.105   4.607  16.438  0.0360 -0.2400  0.4337
 9411TIP3    H149724   6.051   4.607  16.517  2.0396 -2.5127  1.9066
 9411TIP3    H249725   6.094   4.520  16.401  1.4525 -0.2010 -0.1234
 9412TIP3   OH249726   1.161   5.885  16.972  0.3098  0.7155 -0.7789
 9412TIP3    H149727   1.159   5.872  16.877  3.7873 -0.1256 -0.8709
 9412TIP3    H249728   1.242   5.933  16.988  0.3778 -0.1181  1.8598
 9413TIP3   OH249729   1.608   6.211   6.219  0.2497  0.4161 -0.3015
 9413TIP3    H149730   1.686   6.257   6.252  0.2835  1.2827 -1.5349
 9413TIP3    H249731   1.535   6.251   6.267  0.6753 -2.5465  3.2660
 9414TIP3   OH249732   3.510   2.369   5.744 -0.2853  0.5265  0.0364
 9414TIP3    H149733   3.553   2.452   5.726 -2.4710  1.2850 -2.3421
 9414TIP3    H249734   3.509   2.324   5.659 -0.9795 -1.0115  0.8181
 9415TIP3   OH249735   5.810   4.240   1.295  0.0820  0.3663 -0.1591
 9415TIP3    H149736   5.751   4.315   1.305  0.0315  0.3825 -0.5393
 9415TIP3    H249737   5.849   4.253   1.208  0.7424  0.4270  0.1416
 9416TIP3   OH249738   2.196   3.724   0.204  0.3328 -0.3763  0.8293
 9416TIP3    H149739   2.252   3.769   0.141 -2.8558  1.1554 -1.1479
 9416TIP3    H249740   2.201   3.632   0.178 -0.8787  0.1948 -1.8707
 9417TIP3   OH249741   2.660   4.864   2.456  0.6092  0.4326 -0.2237
 9417TIP3    H149742   2.714   4.859   2.536  0.6006 -2.6000 -0.2778
 9417TIP3    H249743   2.572   4.844   2.486  0.8328 -2.2054 -1.0884
 9418TIP3   OH249744   0.268   5.376  14.619 -0.0783 -0.2810 -0.0233
 9418TIP3    H149745   0.198   5.342  14.564 -0.1299  0.0463 -0.1624
 9418TIP3    H249746   0.284   5.465  14.586 -0.9305  0.3795  1.2478
 9419TIP3   OH249747   0.497   1.285   1.714  0.4587  0.6443  0.4743
 9419TIP3    H149748   0.548   1.362   1.738 -0.6299  2.4611 -2.4783
 9419TIP3    H249749   0.560   1.226   1.673  0.7664  1.4770 -0.2824
 9420TIP3   OH249750   1.835   1.369   4.070 -0.3959 -0.2073  0.5598
 9420TIP3    H149751   1.825   1.313   3.993 -0.8324  0.1471  0.3566
 9420TIP3    H249752   1.827   1.308   4.144 -2.4943 -0.2352  0.3886
 9421TIP3   OH249753   0.715   1.646  15.999 -0.4581  0.4723  0.2773
 9421TIP3    H149754   0.649   1.581  15.972 -2.9871  2.3936  1.4054
 9421TIP3    H249755   0.785   1.637  15.934 -1.7284 -1.7902 -0.9290
 9422TIP3   OH249756   4.652   0.299  16.675  0.3176 -0.4514 -0.8061
 9422TIP3    H149757   4.709   0.268  16.746 -0.9205 -3.4157 -0.9842
 9422TIP3    H249758   4.571   0.324  16.720  0.4648  0.2550 -0.9276
 9423TIP3   OH249759   4.483   5.244   3.170 -0.1075 -0.2329  0.2633
 9423TIP3    H149760   4.443   5.233   3.256  0.0911 -2.6030  0.1120
 9423TIP3    H249761   4.411   5.230   3.109  0.0285  0.0836  0.0301
 9424TIP3   OH249762   0.202   0.518  13.850  0.0617 -0.3475  0.2514
 9424TIP3    H149763   0.177   0.531  13.942  0.0713 -1.3124  0.4060
 9424TIP3    H249764   0.148   0.579  13.801 -0.1426 -0.0135  0.8805
 9425TIP3   OH249765   6.055   4.421   6.474 -0.5566 -0.1195  0.0397
 9425TIP3    H149766   6.086   4.333   6.493 -2.4793 -1.0516 -0.7849
 9425TIP3    H249767   6.109   4.478   6.527  0.9304 -1.7728  0.3879
 9426TIP3   OH249768   4.063   6.662  13.681  0.5543 -0.2910 -0.4231
 9426TIP3    H149769   3.980   6.628  13.650 -0.0932  0.2233  0.6962
 9426TIP3    H249770   4.040   6.737  13.735  1.7182 -0.3817  0.2388
 9427TIP3   OH249771   5.300   5.876   0.732  0.1019  0.0073  0.3919
 9427TIP3    H149772   5.237   5.907   0.797 -1.2791 -2.3539  0.2896
 9427TIP3    H249773   5.379   5.856   0.782 -0.9316 -1.7508  1.4030
 9428TIP3   OH249774   0.040   4.807  12.311 -1.0116  0.8540  0.7805
 9428TIP3    H149775  -0.056   4.816  12.315 -1.0171  2.1002 -1.0389
 9428TIP3    H249776   0.072   4.872  12.374 -1.3714  2.9226 -1.0394
 9429TIP3   OH249777   4.223   2.877  14.549  0.2935 -0.0020  0.2260
 9429TIP3    H149778   4.194   2.793  14.514  1.9002 -0.0485 -1.0540
 9429TIP3    H249779   4.145   2.912  14.594 -0.6103 -1.8037  0.1421
 9430TIP3   OH249780   3.753   6.157  16.671 -0.5064  0.4528  0.7359
 9430TIP3    H149781   3.794   6.225  16.617  1.6962  0.2066  2.0041
 9430TIP3    H249782   3.746   6.196  16.758  0.6051 -0.8416  1.4349
 9431TIP3   OH249783   5.550   1.426   0.568 -0.2740  0.4348  0.6158
 9431TIP3    H149784   5.544   1.336   0.536 -2.3907  0.8870 -0.4801
 9431TIP3    H249785   5.561   1.417   0.663 -2.2055 -1.0223  0.7638
 9432TIP3   OH249786   2.457   3.780   4.639  0.0264  0.0581 -0.8574
 9432TIP3    H149787   2.443   3.875   4.634  1.6096  0.2590 -2.4453
 9432TIP3    H249788   2.411   3.745   4.563  2.0068 -0.0410 -2.0775
 9433TIP3   OH249789   1.926   2.953  15.628  0.1494  0.1966  0.1134
 9433TIP3    H149790   1.885   3.015  15.688  1.9748  1.7947 -0.1737
 9433TIP3    H249791   1.967   2.888  15.686  0.3538  0.7041  0.5542
 9434TIP3   OH249792   2.694   0.292   0.516 -0.1118 -0.2774 -0.1116
 9434TIP3    H149793   2.699   0.212   0.465  0.9542 -1.5724  1.8897
 9434TIP3    H249794   2.769   0.344   0.487 -0.0575 -0.5739 -0.5128
 9435TIP3   OH249795   5.595   2.881   3.765  0.2002  0.5427  0.2383
 9435TIP3    H149796   5.671   2.854   3.818  1.9247  1.6304 -1.5257
 9435TIP3    H249797   5.596   2.822   3.690 -0.5215  0.7863  0.0336
 9436TIP3   OH249798   0.982   3.296  11.625  0.0467  0.6066 -0.4228
 9436TIP3    H149799   0.901   3.267  11.583 -0.1820 -0.0073  0.4216
 9436TIP3    H249800   0.955   3.327  11.712  0.7561  0.0614  0.0053
 9437TIP3   OH249801   1.186   2.352   1.229 -0.3715 -0.2151 -0.3229
 9437TIP3    H149802   1.163   2.266   1.264 -1.0214 -1.4089 -3.3907
 9437TIP3    H249803   1.211   2.403   1.306 -0.8264 -2.8455  1.7137
 9438TIP3   OH249804   0.514   5.019  14.943  0.0789  0.0841  0.3281
 9438TIP3    H149805   0.524   5.114  14.951 -0.6805  0.3430 -1.2872
 9438TIP3    H249806   0.459   4.994  15.017 -1.1633  1.1921 -0.1806
 9439TIP3   OH249807   0.609   0.613  12.105 -0.1827 -0.3305  1.1209
 9439TIP3    H149808   0.666   0.673  12.059 -0.0913 -1.3537 -0.1579
 9439TIP3    H249809   0.523   0.655  12.104 -0.0954 -0.1672  0.3485
 9440TIP3   OH249810   3.563   5.639   3.270 -0.5635 -0.1579 -0.8117
 9440TIP3    H149811   3.638   5.695   3.251 -0.0068 -0.5656  0.0853
 9440TIP3    H249812   3.598   5.570   3.327 -1.3318 -1.1509 -1.4946
 9441TIP3   OH249813   4.994   0.015  11.268  0.4348  0.1542  0.4405
 9441TIP3    H149814   4.982  -0.024  11.181 -0.2823  1.3853 -0.0413
 9441TIP3    H249815   4.950   0.100  11.262  2.1354  1.1511  1.3743
 9442TIP3   OH249816   1.067   0.793  10.728 -0.7309  0.6739 -0.0302
 9442TIP3    H149817   1.137   0.756  10.674 -0.2232  1.6854 -0.0779
 9442TIP3    H249818   0.996   0.813  10.666 -0.5780  0.8070 -0.1622
 9443TIP3   OH249819   3.910   2.822   6.020 -0.3204  0.7846 -0.6789
 9443TIP3    H149820   3.963   2.881   6.074 -1.0299  0.4945  0.3516
 9443TIP3    H249821   3.822   2.827   6.058 -0.4507 -0.7373 -0.7402
 9444TIP3   OH249822   5.849   3.963  13.430 -0.6736  0.7619 -0.3397
 9444TIP3    H149823   5.881   4.039  13.381 -0.1164  0.7823  0.0558
 9444TIP3    H249824   5.927   3.923  13.467 -1.1658  1.4681  1.6043
 9445TIP3   OH249825   5.075   4.533  15.117  0.6378 -0.3345 -0.0289
 9445TIP3    H149826   5.072   4.528  15.022  1.1402  0.3917 -0.0948
 9445TIP3    H249827   5.033   4.453  15.147  1.8219 -1.3026 -0.8723
 9446TIP3   OH249828   5.881   2.021   1.771 -0.5133  0.1884 -0.7447
 9446TIP3    H149829   5.914   2.059   1.690 -0.7881  2.3594  0.0831
 9446TIP3    H249830   5.862   2.097   1.827 -1.3454 -1.1944  0.9517
 9447TIP3   OH249831   6.229   1.127   4.332  0.1157  0.8933 -0.1048
 9447TIP3    H149832   6.220   1.210   4.285 -1.9557  1.1831  0.7166
 9447TIP3    H249833   6.323   1.118   4.345  0.5929  1.9268 -2.2584
 9448TIP3   OH249834   6.093   5.206   5.840 -0.4045  0.1704  0.0631
 9448TIP3    H149835   6.036   5.282   5.834 -0.7068  0.0708  1.4529
 9448TIP3    H249836   6.182   5.242   5.844 -0.2735  0.3146 -2.5235
 9449TIP3   OH249837   4.606   0.271  15.226 -0.2583 -0.6050 -0.8316
 9449TIP3    H149838   4.602   0.364  15.247 -1.3586 -0.7408 -0.3589
 9449TIP3    H249839   4.695   0.257  15.196  0.8073  0.0494  1.7450
 9450TIP3   OH249840   0.459   4.168   6.753 -0.1980 -0.3074  0.5049
 9450TIP3    H149841   0.545   4.168   6.796  0.4330 -2.4546 -0.6165
 9450TIP3    H249842   0.435   4.075   6.748 -1.5519  0.0941 -1.2295
 9451TIP3   OH249843   0.808   5.004   5.321 -0.1237 -0.6798 -0.8462
 9451TIP3    H149844   0.774   5.092   5.306 -0.4955 -0.7840 -0.6455
 9451TIP3    H249845   0.745   4.965   5.381  0.7128 -0.6505  0.0796
 9452TIP3   OH249846   1.562   0.060  13.913 -0.1292 -0.4236  0.0501
 9452TIP3    H149847   1.652   0.027  13.916 -0.3520 -1.2559 -1.5728
 9452TIP3    H249848   1.559   0.113  13.833 -1.1516 -0.5821 -0.0218
 9453TIP3   OH249849   3.848   0.426  13.135 -0.2830  0.1019  0.3904
 9453TIP3    H149850   3.829   0.332  13.143  0.3715 -0.0802 -0.1906
 9453TIP3    H249851   3.927   0.439  13.187 -0.0940  0.2437  0.0650
 9454TIP3   OH249852   2.909   4.793   4.108  0.3709 -0.1417  0.5801
 9454TIP3    H149853   2.883   4.840   4.187  2.2305 -0.1531  1.2600
 9454TIP3    H249854   2.983   4.739   4.136 -0.3747 -1.9129 -0.6603
 9455TIP3   OH249855   2.663   4.431  15.041  0.8424 -0.1030 -0.1395
 9455TIP3    H149856   2.625   4.345  15.053 -0.7575  0.6840  0.7442
 9455TIP3    H249857   2.715   4.424  14.961  1.6929 -2.1675  0.5393
 9456TIP3   OH249858   0.750   5.539   4.742  0.0977  0.0520  0.0379
 9456TIP3    H149859   0.808   5.595   4.793  0.9650  1.0923 -1.9699
 9456TIP3    H249860   0.757   5.572   4.653  0.0376 -2.7638 -1.1184
 9457TIP3   OH249861   3.948   0.898   0.420 -0.0975 -0.1226  0.5344
 9457TIP3    H149862   3.963   0.940   0.335 -0.9684  0.1323  0.4983
 9457TIP3    H249863   3.909   0.814   0.398  0.2345 -0.3087  0.6606
 9458TIP3   OH249864   1.751   4.799   3.339 -0.5768 -0.4012 -0.5003
 9458TIP3    H149865   1.778   4.847   3.417  1.6408 -0.5836 -1.1028
 9458TIP3    H249866   1.659   4.775   3.356 -0.5156  0.6171  1.4917
 9459TIP3   OH249867   0.782   2.770  13.260 -0.5947 -0.5940 -0.4193
 9459TIP3    H149868   0.781   2.709  13.333 -0.3559  1.3334  1.2670
 9459TIP3    H249869   0.874   2.796  13.251 -0.8523  0.4265 -0.2785
 9460TIP3   OH249870   1.215   3.194   1.928 -0.3634 -0.2044 -0.3678
 9460TIP3    H149871   1.258   3.113   1.953  0.4867 -0.2233 -1.7678
 9460TIP3    H249872   1.141   3.167   1.874 -1.7537 -0.1332  1.3885
 9461TIP3   OH249873   5.490   1.817   5.915  0.3496  0.2957 -0.2537
 9461TIP3    H149874   5.526   1.755   5.851 -1.0927 -0.8228 -0.0299
 9461TIP3    H249875   5.451   1.761   5.983 -2.4156  1.3806 -0.8358
 9462TIP3   OH249876   6.008   0.287   3.613 -0.3548 -0.2418  0.3130
 9462TIP3    H149877   6.101   0.267   3.607 -0.3516 -0.2317  0.3317
 9462TIP3    H249878   6.000   0.377   3.580 -0.3097 -0.1145  0.6451
 9463TIP3   OH249879   4.256   5.365   5.560  0.0753 -0.0916  0.4767
 9463TIP3    H149880   4.189   5.385   5.625  0.9091  1.6635  0.8659
 9463TIP3    H249881   4.209   5.320   5.489 -0.6784 -3.2335  2.7309
 9464TIP3   OH249882   1.488   5.671   2.625 -0.3645 -0.2751  0.0552
 9464TIP3    H149883   1.565   5.709   2.668  0.5972 -0.2521 -1.5858
 9464TIP3    H249884   1.466   5.734   2.557 -0.6066 -1.2313 -0.7640
 9465TIP3   OH249885   2.724   3.419   5.944 -0.7158 -0.1035 -0.7617
 9465TIP3    H149886   2.756   3.490   5.999  0.6939 -0.3639 -1.2054
 9465TIP3    H249887   2.661   3.372   5.999 -0.6576  0.6800 -0.0049
 9466TIP3   OH249888   3.485   2.327   3.478 -1.0296  0.2696 -0.2056
 9466TIP3    H149889   3.535   2.409   3.473 -0.3551 -0.1139  0.0581
 9466TIP3    H249890   3.552   2.259   3.481 -1.5528 -0.2058  1.2676
 9467TIP3   OH249891   1.708   1.303  17.364 -0.3698 -0.7244  0.2845
 9467TIP3    H149892   1.722   1.371  17.298 -0.1427 -0.5667  0.4937
 9467TIP3    H249893   1.760   1.228  17.333 -0.1216 -0.5911  0.3732
 9468TIP3   OH249894   2.770   2.596   4.971 -0.9665 -0.0468  0.0641
 9468TIP3    H149895   2.683   2.557   4.959  0.5877 -3.6704 -0.9356
 9468TIP3    H249896   2.791   2.634   4.886 -1.9062  1.8235  0.6164
 9469TIP3   OH249897   4.298   6.036   1.040  0.0206  0.3079 -0.2090
 9469TIP3    H149898   4.255   6.058   0.958 -3.3985 -0.2054  1.2699
 9469TIP3    H249899   4.389   6.022   1.016 -0.5568  1.4249 -3.6515
 9470TIP3   OH249900   3.140   1.179  11.292 -0.2850  0.6289 -0.1043
 9470TIP3    H149901   3.202   1.168  11.364 -0.8334 -0.1402  0.2672
 9470TIP3    H249902   3.193   1.171  11.213  0.0645 -0.2026  0.2107
 9471TIP3   OH249903   0.874   0.105   4.498  0.3551 -0.2909  0.2338
 9471TIP3    H149904   0.911   0.029   4.453  0.4500 -1.6526  2.4793
 9471TIP3    H249905   0.854   0.074   4.586 -0.6981  1.9978  0.8791
 9472TIP3   OH249906   2.800   2.909  15.648  0.0175  0.2771 -0.0463
 9472TIP3    H149907   2.794   3.000  15.618  1.8735 -0.0072 -1.4507
 9472TIP3    H249908   2.766   2.858  15.574  2.2433 -0.3056 -0.7495
 9473TIP3   OH249909   4.831   2.636  13.212  0.1517 -0.1007  0.4577
 9473TIP3    H149910   4.776   2.711  13.191 -0.4132 -0.3307  1.0772
 9473TIP3    H249911   4.921   2.668  13.203 -0.0669  1.0278  1.9338
 9474TIP3   OH249912   2.074   3.758  11.330  0.0839 -0.2713  0.2945
 9474TIP3    H149913   2.074   3.752  11.425 -1.6275  0.3588  0.3687
 9474TIP3    H249914   1.981   3.759  11.306  0.4873 -0.6726 -1.4027
 9475TIP3   OH249915   3.842   1.547  11.221 -0.4629 -0.2787  0.3174
 9475TIP3    H149916   3.924   1.506  11.193 -0.3729  0.8974 -1.2880
 9475TIP3    H249917   3.861   1.641  11.223 -1.5698 -0.0378  0.6806
 9476TIP3   OH249918   0.112   6.680   4.932  0.1029  0.2021  0.1836
 9476TIP3    H149919   0.151   6.593   4.924 -2.3995 -1.3672  2.9937
 9476TIP3    H249920   0.168   6.725   4.995 -0.3866 -0.6461  1.2655
 9477TIP3   OH249921   2.958   5.316  14.552 -0.7138 -0.5089 -0.5063
 9477TIP3    H149922   3.005   5.387  14.596 -0.4053 -0.8933 -0.2116
 9477TIP3    H249923   3.019   5.284  14.486 -0.6640 -0.8198 -0.3130
 9478TIP3   OH249924   2.191   2.298  12.098 -0.8843  0.6210  0.4038
 9478TIP3    H149925   2.165   2.215  12.138  0.0920 -0.9180 -1.9201
 9478TIP3    H249926   2.282   2.284  12.071 -0.8269  2.3237 -0.4227
 9479TIP3   OH249927   0.573   5.409  11.129  0.3094  0.4257 -0.5085
 9479TIP3    H149928   0.518   5.453  11.065  1.1574 -0.1670 -1.6895
 9479TIP3    H249929   0.541   5.319  11.130 -0.5192  0.7157  0.8640
 9480TIP3   OH249930   1.006   4.394   2.212  0.1272  0.6017 -0.8070
 9480TIP3    H149931   1.018   4.486   2.236  0.3763  0.0050  1.5241
 9480TIP3    H249932   1.091   4.354   2.228 -1.1664 -0.9947  3.1425
 9481TIP3   OH249933   1.456   6.146  10.402  0.0843  0.0911 -0.0024
 9481TIP3    H149934   1.409   6.063  10.394  0.0007  0.2641 -1.5718
 9481TIP3    H249935   1.424   6.199  10.329  1.9744  0.5764 -0.5357
 9482TIP3   OH249936   1.947   5.941   3.673  0.0678 -0.3408  0.2124
 9482TIP3    H149937   1.932   6.026   3.631  2.8897  0.1941  0.1244
 9482TIP3    H249938   1.966   5.882   3.600 -0.7052 -0.7876  0.3636
 9483TIP3   OH249939   5.186   0.394  16.170 -0.1723  0.2167  0.3951
 9483TIP3    H149940   5.153   0.383  16.081  1.2295 -2.7794  0.1205
 9483TIP3    H249941   5.108   0.399  16.225 -1.1186 -1.9294 -0.6597
 9484TIP3   OH249942   5.901   4.897   4.633 -0.3399 -0.3351 -0.1177
 9484TIP3    H149943   5.816   4.927   4.667  1.1360  2.5008  1.3824
 9484TIP3    H249944   5.940   4.850   4.707  0.5767  0.9839  0.2662
 9485TIP3   OH249945   1.857   5.811  15.995 -0.2184  0.2292  0.4071
 9485TIP3    H149946   1.765   5.840  15.994  0.0444  1.2881  2.0446
 9485TIP3    H249947   1.901   5.869  15.933 -0.3094  1.1601  1.1801
 9486TIP3   OH249948   3.947   5.840  14.474 -0.5348  0.1919  0.0033
 9486TIP3    H149949   3.918   5.768  14.530 -0.0286 -0.4780 -0.5708
 9486TIP3    H249950   3.868   5.891  14.457 -0.8281 -0.0138  0.7218
 9487TIP3   OH249951   4.269   1.565   2.874 -0.2023 -0.0777  0.3315
 9487TIP3    H149952   4.191   1.620   2.884 -0.6325 -0.6190 -0.0092
 9487TIP3    H249953   4.246   1.503   2.805  0.6445 -0.0506  0.0141
 9488TIP3   OH249954   6.788   0.068  11.110 -1.2807  0.0917 -0.2696
 9488TIP3    H149955   6.803  -0.026  11.121 -1.0260  0.1641  0.0110
 9488TIP3    H249956   6.816   0.107  11.193 -1.3050  0.4236 -0.4159
 9489TIP3   OH249957   3.664   2.529  16.114  0.1308 -0.1725  0.1049
 9489TIP3    H149958   3.668   2.435  16.097 -0.4793 -0.1933  0.0489
 9489TIP3    H249959   3.704   2.569  16.037  0.9979 -0.4011  0.4200
 9490TIP3   OH249960   6.030   3.659   2.655  0.0169  0.4988  0.5600
 9490TIP3    H149961   6.105   3.615   2.615  0.3441  2.5463 -1.2696
 9490TIP3    H249962   6.068   3.730   2.706 -0.6143  0.5249  1.0119
 9491TIP3   OH249963   1.865   0.449  14.566  0.2911  0.2021 -0.5046
 9491TIP3    H149964   1.777   0.416  14.549  0.3759  0.0597 -0.6665
 9491TIP3    H249965   1.892   0.408  14.649  0.8117 -0.9680 -1.2379
 9492TIP3   OH249966   1.411   2.266  15.560 -0.6487  0.2827 -0.3420
 9492TIP3    H149967   1.384   2.268  15.468  3.4241 -0.5856 -1.7342
 9492TIP3    H249968   1.408   2.174  15.584 -0.8476  0.4123  0.1344
 9493TIP3   OH249969   5.096   1.039  16.887 -0.0809  0.0803  0.0843
 9493TIP3    H149970   5.028   1.055  16.822 -0.2755 -0.0147  0.2643
 9493TIP3    H249971   5.163   0.990  16.839  0.9768  2.2088 -0.7531
 9494TIP3   OH249972   4.782   6.183   1.980  0.8119  0.3628 -0.1092
 9494TIP3    H149973   4.792   6.122   1.907  3.0765  0.2192  0.2253
 9494TIP3    H249974   4.829   6.141   2.052 -1.6435  0.3465  1.5859
 9495TIP3   OH249975   3.050   5.673   3.129  0.6107  1.0349 -0.2270
 9495TIP3    H149976   2.956   5.670   3.113  0.6228 -1.8564 -0.2687
 9495TIP3    H249977   3.059   5.648   3.221  1.3532 -0.5446 -0.6851
 9496TIP3   OH249978   4.340   2.034  13.141 -0.0663 -0.9902  0.4331
 9496TIP3    H149979   4.319   2.006  13.230  2.1860  0.6448  1.5928
 9496TIP3    H249980   4.353   2.129  13.149 -0.4398 -0.7136 -1.7819
 9497TIP3   OH249981   3.944   4.104  12.373 -0.4359 -0.0841 -0.5203
 9497TIP3    H149982   3.961   4.198  12.379  2.0698 -0.5090  0.5342
 9497TIP3    H249983   3.918   4.078  12.462 -0.8314 -0.4422 -0.7351
 9498TIP3   OH249984   2.681   3.102   5.450 -0.6158 -0.9788 -0.1995
 9498TIP3    H149985   2.738   3.074   5.522  1.3373  3.4815  0.3797
 9498TIP3    H249986   2.740   3.115   5.376 -0.9205  2.2933 -0.0362
 9499TIP3   OH249987   5.993   5.560   5.188 -0.5339 -0.3657  0.2064
 9499TIP3    H149988   5.957   5.543   5.101 -1.5634 -0.4626  0.6377
 9499TIP3    H249989   6.052   5.635   5.175 -1.4415  0.2582 -0.3990
 9500TIP3   OH249990   1.015   2.734   4.076 -0.0043 -0.0517 -0.0746
 9500TIP3    H149991   0.993   2.818   4.115  0.5439  1.1357 -2.1822
 9500TIP3    H249992   1.095   2.751   4.026  0.6723 -2.0797  0.2255
 9501TIP3   OH249993   0.719   1.952  17.013 -0.6485  0.4657  0.5329
 9501TIP3    H149994   0.698   1.939  17.106  0.1651 -0.3930  0.6245
 9501TIP3    H249995   0.708   2.045  16.998 -0.4476  0.6749  1.5958
 9502TIP3   OH249996   6.006   3.868   0.625 -0.0753 -0.2699 -0.4073
 9502TIP3    H149997   5.995   3.829   0.712  0.5692  0.7145  0.1266
 9502TIP3    H249998   5.991   3.795   0.564 -1.1255 -0.8386  0.4974
 9503TIP3   OH249999   4.277   5.738   5.429 -0.0977 -0.4572 -0.0967
 9503TIP3    H150000   4.330   5.814   5.453 -1.5994  0.6192  0.0083
 9503TIP3    H250001   4.329   5.662   5.455  1.0172  0.5566  0.7297
 9504TIP3   OH250002   1.011   4.238  13.823  0.3237  0.1915  0.0460
 9504TIP3    H150003   0.928   4.203  13.789 -0.6020  0.8462  1.5071
 9504TIP3    H250004   0.990   4.263  13.913  1.9010  1.1700  0.1634
 9505TIP3   OH250005   4.388   4.723  17.257 -0.0119 -0.5536  0.9927
 9505TIP3    H150006   4.424   4.711  17.169 -1.0483 -1.9865  0.7209
 9505TIP3    H250007   4.455   4.774  17.303  1.4862 -1.4986 -0.0209
 9506TIP3   OH250008   6.652   0.080   1.952  0.4357  0.5206  0.7522
 9506TIP3    H150009   6.558   0.099   1.952  0.1351 -0.8435  0.2777
 9506TIP3    H250010   6.663   0.017   2.023  0.2470 -2.4854 -1.6981
 9507TIP3   OH250011   1.616   5.142  12.265  0.0603 -0.2422  0.2126
 9507TIP3    H150012   1.536   5.093  12.284 -0.1477  0.8158  2.3878
 9507TIP3    H250013   1.591   5.203  12.196 -1.3394  0.7108  1.4961
 9508TIP3   OH250014   4.498   3.718  15.398 -0.0499 -0.0084  0.4387
 9508TIP3    H150015   4.582   3.673  15.388 -0.6553 -1.2961  0.9951
 9508TIP3    H250016   4.513   3.783  15.467  1.0823  1.3408 -0.9953
 9509TIP3   OH250017   3.880   1.231   0.294 -0.4256 -0.4412 -0.1790
 9509TIP3    H150018   3.958   1.284   0.281  0.2585 -1.2736  0.4232
 9509TIP3    H250019   3.899   1.149   0.247 -0.6846 -0.8780  0.4641
 9510TIP3   OH250020   5.617   2.548   5.776  0.6874 -0.6313  0.0313
 9510TIP3    H150021   5.704   2.526   5.743 -0.1293 -0.5509 -2.4531
 9510TIP3    H250022   5.573   2.463   5.785  0.9622 -0.6616  1.1194
 9511TIP3   OH250023   3.365   0.553   0.212 -0.4211 -0.6911  0.0177
 9511TIP3    H150024   3.338   0.522   0.126  1.1041  1.7792 -1.4699
 9511TIP3    H250025   3.460   0.554   0.209 -0.3424 -0.3913  1.6927
 9512TIP3   OH250026   6.425   3.491   5.638  0.4013  0.1699  0.2318
 9512TIP3    H150027   6.400   3.565   5.693 -2.6350 -0.4367 -0.1417
 9512TIP3    H250028   6.418   3.524   5.548  1.9618  0.2167  0.1134
 9513TIP3   OH250029   1.122   1.820   2.184 -0.1106 -0.1295  0.1945
 9513TIP3    H150030   1.166   1.782   2.260 -1.0436 -0.4625  0.5813
 9513TIP3    H250031   1.092   1.744   2.134 -1.4533  0.0819  0.6566
 9514TIP3   OH250032   3.749   6.087   4.833  0.0180 -0.9124  0.5700
 9514TIP3    H150033   3.798   6.106   4.913  0.5373 -1.3526  0.3664
 9514TIP3    H250034   3.802   6.126   4.764 -0.0855 -1.1053  0.3809
 9515TIP3   OH250035   6.100   6.067   1.083 -0.4851  0.3519  0.5724
 9515TIP3    H150036   6.147   6.142   1.046  0.4350 -0.2526  0.4970
 9515TIP3    H250037   6.149   6.044   1.162  0.5143 -1.4717 -0.5146
 9516TIP3   OH250038   5.108   1.784   0.994 -0.2129  0.5085  0.1645
 9516TIP3    H150039   5.067   1.734   1.065  1.3229  0.8236  1.3220
 9516TIP3    H250040   5.123   1.870   1.031 -0.6679  1.1261 -1.0411
 9517TIP3   OH250041   5.872   2.723   3.379 -0.4994 -0.0745 -0.2066
 9517TIP3    H150042   5.800   2.691   3.325 -1.7837 -0.9568  1.9311
 9517TIP3    H250043   5.833   2.788   3.436  0.4169 -0.3969  0.8329
 9518TIP3   OH250044   3.040   5.405  16.906 -0.3122 -0.1326 -0.6339
 9518TIP3    H150045   3.097   5.459  16.961  1.4284 -1.7660 -0.7232
 9518TIP3    H250046   3.000   5.467  16.845  0.8296  1.1929 -0.0952
 9519TIP3   OH250047   2.724   4.085  14.620 -0.1385 -0.0724  0.7346
 9519TIP3    H150048   2.755   4.012  14.566  1.2587  1.8718 -1.2671
 9519TIP3    H250049   2.796   4.101  14.681 -1.3974 -1.7637  2.7906
 9520TIP3   OH250050   6.751   3.634  14.247 -0.4456 -0.0967  0.0653
 9520TIP3    H150051   6.814   3.610  14.179 -1.3887  2.2524 -1.7613
 9520TIP3    H250052   6.806   3.658  14.322  0.7108 -0.9252 -0.4772
 9521TIP3   OH250053   0.607   6.311   0.765  0.4185 -0.1507 -0.0028
 9521TIP3    H150054   0.603   6.403   0.737 -1.8827  0.4418  1.8987
 9521TIP3    H250055   0.527   6.272   0.730  0.3207 -0.8334  0.9369
 9522TIP3   OH250056   0.500   6.774   6.356 -0.0650 -0.7906 -0.5817
 9522TIP3    H150057   0.481   6.726   6.276 -0.9623 -0.3939 -0.6127
 9522TIP3    H250058   0.562   6.717   6.404  1.1043 -0.6750 -1.8924
 9523TIP3   OH250059   2.506   3.859  14.201 -0.0287 -0.7081  0.0693
 9523TIP3    H150060   2.600   3.863  14.218  0.1295 -0.8155 -0.7282
 9523TIP3    H250061   2.498   3.796  14.129 -0.8205 -1.5551  0.8788
 9524TIP3   OH250062   5.524   5.628  14.327  0.4321  0.6047 -0.4730
 9524TIP3    H150063   5.582   5.567  14.373  1.2456  1.8098  0.1637
 9524TIP3    H250064   5.518   5.593  14.238 -0.3870 -1.2330  0.2510
 9525TIP3   OH250065   1.266   4.917   0.413  0.1480  0.0219 -0.2458
 9525TIP3    H150066   1.314   4.873   0.484  0.2814  0.2055 -0.2229
 9525TIP3    H250067   1.180   4.875   0.414  0.2127 -0.1104 -0.1004
 9526TIP3   OH250068   0.763   1.292  12.994 -0.1234  0.3735  0.3282
 9526TIP3    H150069   0.744   1.227  12.926 -0.5125  0.6821  0.1283
 9526TIP3    H250070   0.843   1.262  13.036  0.0799  0.1325 -0.2203
 9527TIP3   OH250071   1.074   1.080  16.440  0.2958 -0.0162 -0.2401
 9527TIP3    H150072   1.009   1.047  16.378  1.0605  1.6764 -2.0339
 9527TIP3    H250073   1.136   1.009  16.450  0.3377 -0.2090 -1.7143
 9528TIP3   OH250074   2.733   4.750  12.320  0.1258 -0.8681  0.5072
 9528TIP3    H150075   2.689   4.825  12.281 -0.0103 -0.9567  0.4911
 9528TIP3    H250076   2.824   4.758  12.291  0.5421  0.3093  1.9711
 9529TIP3   OH250077   4.032   2.517  15.272 -0.4355  0.2003  0.2224
 9529TIP3    H150078   4.047   2.526  15.178  0.7811  0.5438  0.4286
 9529TIP3    H250079   3.946   2.476  15.280  0.2740 -1.6097 -1.0689
 9530TIP3   OH250080   5.361   4.993  15.366 -0.0480  0.1959  0.1369
 9530TIP3    H150081   5.405   5.002  15.281 -0.7034 -0.9331 -0.3319
 9530TIP3    H250082   5.268   4.987  15.345 -0.2196 -0.0521  0.9405
 9531TIP3   OH250083   3.118   5.689   2.538 -0.3709  0.2633 -0.5764
 9531TIP3    H150084   3.040   5.669   2.591  0.7209 -2.1212  0.2895
 9531TIP3    H250085   3.087   5.683   2.447 -1.2933 -0.2939 -0.2428
 9532TIP3   OH250086   2.127   2.267   5.674 -0.4691 -0.3893 -0.0990
 9532TIP3    H150087   2.128   2.361   5.657 -2.5246 -0.7910 -3.3829
 9532TIP3    H250088   2.062   2.255   5.742 -1.8297  0.4555 -1.1974
 9533TIP3   OH250089   2.920   5.794  15.232  0.0830 -0.1771  0.3610
 9533TIP3    H150090   2.866   5.781  15.154  0.0437 -0.9411  0.5141
 9533TIP3    H250091   2.868   5.854  15.287 -0.5471 -0.7781  0.4348
 9534TIP3   OH250092   3.477   0.860   0.955 -0.8126 -0.2607  0.5173
 9534TIP3    H150093   3.408   0.927   0.966 -1.2194 -0.3937 -0.9965
 9534TIP3    H250094   3.525   0.889   0.878 -0.4621 -1.2761  0.3530
 9535TIP3   OH250095   3.154   1.949   2.997  0.2448  0.2439 -0.1211
 9535TIP3    H150096   3.165   1.987   2.909  0.9215  0.6599  0.1397
 9535TIP3    H250097   3.168   2.023   3.057  0.5684 -0.2049  0.3600
 9536TIP3   OH250098   0.783   0.011  13.647 -0.3845 -0.1726 -0.1415
 9536TIP3    H150099   0.844   0.077  13.613 -0.1021 -0.4908 -0.2524
 9536TIP3    H250100   0.772   0.035  13.739 -0.0244 -0.1663 -0.0989
 9537TIP3   OH250101   3.336   4.677   0.581 -0.2430  0.3200 -0.1418
 9537TIP3    H150102   3.418   4.659   0.535  1.1850 -0.3079  2.4386
 9537TIP3    H250103   3.268   4.663   0.516  1.6908  1.1777 -2.4708
 9538TIP3   OH250104   1.115   1.479  15.218  0.1529 -0.2346  0.4343
 9538TIP3    H150105   1.094   1.509  15.129  1.8763 -0.0827  0.0453
 9538TIP3    H250106   1.158   1.394  15.205 -0.5778 -0.7403  1.2141
 9539TIP3   OH250107   2.533   1.246  15.876  0.3025  0.2967 -0.1470
 9539TIP3    H150108   2.551   1.308  15.806 -0.5964 -2.1019 -2.6851
 9539TIP3    H250109   2.482   1.176  15.834 -0.7418 -1.0422  3.0389
 9540TIP3   OH250110   3.297   5.873  11.923 -0.3910 -0.7402  0.7471
 9540TIP3    H150111   3.382   5.918  11.914  0.6562 -2.9993 -2.1887
 9540TIP3    H250112   3.236   5.926  11.872 -0.1331 -0.4670  0.7203
 9541TIP3   OH250113   6.650   0.247   3.561  0.2897 -0.2131 -0.3473
 9541TIP3    H150114   6.618   0.336   3.575  0.1469 -0.2896 -0.1879
 9541TIP3    H250115   6.647   0.236   3.465  0.5564  0.0423 -0.3857
 9542TIP3   OH250116   4.518   6.791   1.384  0.2920 -0.6795 -0.6455
 9542TIP3    H150117   4.538   6.778   1.291 -3.0828  1.1186 -1.7623
 9542TIP3    H250118   4.427   6.763   1.393  0.1627  0.3233  1.8808
 9543TIP3   OH250119   6.388   5.533  15.150 -0.0453 -0.2985 -0.5348
 9543TIP3    H150120   6.471   5.500  15.117 -0.4403 -2.2030  0.2690
 9543TIP3    H250121   6.411   5.578  15.232  0.3427  0.4216 -1.0242
 9544TIP3   OH250122   3.495   1.458   1.765  0.2739  0.6350 -0.6679
 9544TIP3    H150123   3.532   1.538   1.802  1.6114 -0.1975 -0.1157
 9544TIP3    H250124   3.519   1.460   1.673  0.7234  0.6613 -0.5547
 9545TIP3   OH250125   4.468   2.609  16.862  0.4600  0.1252  0.1898
 9545TIP3    H150126   4.401   2.543  16.845 -0.5581  1.4218 -1.1043
 9545TIP3    H250127   4.551   2.562  16.856 -0.1999 -0.9202 -1.3707
 9546TIP3   OH250128   4.017   1.386  14.790 -0.3412  0.4419 -0.6005
 9546TIP3    H150129   4.104   1.396  14.830  0.2763 -3.1156 -0.7301
 9546TIP3    H250130   4.026   1.424  14.703  0.2724  2.3814  0.2622
 9547TIP3   OH250131   3.333   5.769  14.007 -0.2642  0.0197 -0.5710
 9547TIP3    H150132   3.316   5.782  13.913  0.3352  1.1444 -0.5398
 9547TIP3    H250133   3.246   5.774  14.047 -0.4418  0.3351 -0.9852
 9548TIP3   OH250134   5.434   1.408   2.647  0.4761  0.2623  0.3533
 9548TIP3    H150135   5.518   1.387   2.687  0.7271 -0.7002 -0.6175
 9548TIP3    H250136   5.457   1.460   2.569  0.4013 -1.8446 -1.1719
 9549TIP3   OH250137   5.812   2.507   5.533  0.4944  0.2001 -0.4507
 9549TIP3    H150138   5.841   2.435   5.477  2.9247  1.0939 -0.4526
 9549TIP3    H250139   5.732   2.539   5.491  0.6670 -0.9811 -1.7639
 9550TIP3   OH250140   5.400   3.836   2.172  0.7866  0.7911  0.5521
 9550TIP3    H150141   5.322   3.837   2.116  0.7481 -0.6071  0.5391
 9550TIP3    H250142   5.381   3.898   2.241  0.2349  1.4893 -0.2077
 9551TIP3   OH250143   0.354   0.810  14.647 -0.3517 -0.2982 -0.0762
 9551TIP3    H150144   0.445   0.798  14.621  0.1001  2.9919 -0.4863
 9551TIP3    H250145   0.306   0.741  14.601  1.7690 -1.4005 -0.7588
 9552TIP3   OH250146   3.064   3.645   6.715 -0.2116  0.3236  0.3789
 9552TIP3    H150147   3.097   3.735   6.722  0.8635 -0.1456  1.8065
 9552TIP3    H250148   3.106   3.599   6.787  1.1798 -1.9381 -1.7219
 9553TIP3   OH250149   5.621   2.866  12.113 -0.7342  0.1414  0.0429
 9553TIP3    H150150   5.588   2.956  12.113  1.3821  1.0246 -2.0551
 9553TIP3    H250151   5.637   2.846  12.020 -0.2634 -2.0752  0.5253
 9554TIP3   OH250152   2.426   0.066  11.816  0.2733  0.3796 -0.4772
 9554TIP3    H150153   2.499   0.005  11.804 -0.5001 -0.7409  0.2704
 9554TIP3    H250154   2.348   0.010  11.817 -0.6745  1.5825 -1.7423
 9555TIP3   OH250155   6.625   3.708   5.513  0.2681  0.3169  0.0472
 9555TIP3    H150156   6.645   3.639   5.450  0.2511 -2.6171  3.0136
 9555TIP3    H250157   6.564   3.766   5.467  0.7135 -1.2908 -2.7649
 9556TIP3   OH250158   2.691   0.302  16.979 -0.8380 -0.2887  0.2413
 9556TIP3    H150159   2.741   0.238  16.929 -1.1505 -0.0227 -0.4198
 9556TIP3    H250160   2.616   0.323  16.924 -0.5887  0.8715  0.3138
 9557TIP3   OH250161   0.115   3.284   4.586 -0.4308  0.3335 -0.4945
 9557TIP3    H150162   0.033   3.281   4.635 -0.8082 -0.8485 -1.1925
 9557TIP3    H250163   0.179   3.243   4.644 -0.3928  0.9071 -0.1129
 9558TIP3   OH250164   4.337   4.790  16.808 -0.1008  0.0881  0.1978
 9558TIP3    H150165   4.265   4.826  16.860 -1.2903 -1.0680 -0.5685
 9558TIP3    H250166   4.406   4.771  16.871 -0.2870  1.6180  0.8967
 9559TIP3   OH250167   6.204   4.307   1.071  0.3209  0.2172 -0.4736
 9559TIP3    H150168   6.108   4.309   1.078  0.2724  0.0497 -1.0395
 9559TIP3    H250169   6.224   4.216   1.047  0.7930 -0.3556  1.8799
 9560TIP3   OH250170   5.319   1.508   1.175  0.3516  0.4085  0.2147
 9560TIP3    H150171   5.294   1.600   1.188 -0.6984  0.1638  0.0147
 9560TIP3    H250172   5.249   1.472   1.121  0.4255 -0.6783  0.8274
 9561TIP3   OH250173   5.995   0.538  16.662  0.4179 -0.5387 -0.0710
 9561TIP3    H150174   6.009   0.574  16.750  3.6018 -0.7317 -0.3680
 9561TIP3    H250175   5.917   0.583  16.630  2.1732  3.6489  0.8818
 9562TIP3   OH250176   4.035   5.236  14.730  0.5005 -0.6664 -0.5763
 9562TIP3    H150177   3.995   5.151  14.715 -1.7726  0.3202 -0.4382
 9562TIP3    H250178   3.994   5.269  14.810 -0.3997  1.4989 -1.8244
 9563TIP3   OH250179   5.019   5.916   2.619  0.9291  0.2109 -0.6096
 9563TIP3    H150180   4.991   5.863   2.694  0.4905  1.1982 -0.0546
 9563TIP3    H250181   4.950   5.906   2.554  0.5087  0.6505 -0.2314
 9564TIP3   OH250182   3.972   2.482   0.904 -0.1945  0.1413  0.3979
 9564TIP3    H150183   3.924   2.483   0.987  1.7492  0.2552  1.5797
 9564TIP3    H250184   4.004   2.392   0.895 -0.0734  0.2252 -0.0375
 9565TIP3   OH250185   2.799   0.881   2.319  0.0265  0.2553  0.1077
 9565TIP3    H150186   2.762   0.943   2.382 -1.0064  2.2049 -2.2668
 9565TIP3    H250187   2.743   0.804   2.326 -0.7138  0.8381  0.7990
 9566TIP3   OH250188   4.653   0.750  15.819 -0.1665 -0.4883  0.1767
 9566TIP3    H150189   4.671   0.794  15.902  2.8266 -1.4811  0.1599
 9566TIP3    H250190   4.660   0.656  15.839 -0.1214 -0.7702 -1.0505
 9567TIP3   OH250191   2.796   0.651   6.376  0.0547  0.0610  0.3022
 9567TIP3    H150192   2.701   0.641   6.376  0.0802 -0.2782 -0.7742
 9567TIP3    H250193   2.829   0.566   6.405  0.0438 -0.1167 -0.1931
 9568TIP3   OH250194   2.271   0.853  15.796 -0.0433  0.3892 -0.5248
 9568TIP3    H150195   2.357   0.884  15.766  0.7666  0.0084  1.2827
 9568TIP3    H250196   2.280   0.758  15.799 -0.7207  0.3142 -0.8359
 9569TIP3   OH250197   4.707   4.228   5.496  0.2030  0.0506  0.0879
 9569TIP3    H150198   4.721   4.133   5.493 -0.8710 -0.1200 -0.0794
 9569TIP3    H250199   4.649   4.246   5.422 -1.5212  0.4725  1.4818
 9570TIP3   OH250200   3.150   3.517   5.333  0.2146 -0.2179 -0.4768
 9570TIP3    H150201   3.118   3.435   5.296 -0.5811 -0.9630  1.7096
 9570TIP3    H250202   3.085   3.541   5.398  0.6918  1.9274 -0.7119
 9571TIP3   OH250203   5.110   6.726   4.208 -0.2618  0.1978 -0.5187
 9571TIP3    H150204   5.056   6.763   4.278 -0.2963 -0.1632 -0.3550
 9571TIP3    H250205   5.170   6.666   4.252 -2.1567 -2.2480 -1.0653
 9572TIP3   OH250206   0.810   5.407   2.003  0.3827  0.1884 -0.9558
 9572TIP3    H150207   0.763   5.327   2.029  2.3493 -0.5493  0.6461
 9572TIP3    H250208   0.789   5.419   1.911 -1.8399 -0.8153 -0.6511
 9573TIP3   OH250209   5.068   3.023  14.370  0.2601 -0.4671 -0.0558
 9573TIP3    H150210   5.009   3.092  14.400  1.0599  0.2243 -0.0068
 9573TIP3    H250211   5.099   3.054  14.284 -1.1556 -1.8878 -1.1316
 9574TIP3   OH250212   6.139   6.504  12.494 -0.1672 -0.1992 -0.5095
 9574TIP3    H150213   6.131   6.560  12.571  2.9974 -1.5155  0.9330
 9574TIP3    H250214   6.161   6.563  12.423 -0.4104  0.7408  0.1841
 9575TIP3   OH250215   2.679   1.791   4.738  0.0475 -0.2348 -0.0160
 9575TIP3    H150216   2.640   1.708   4.709  0.3931  0.3935 -2.5252
 9575TIP3    H250217   2.605   1.847   4.759 -0.2056 -0.8654  0.8431
 9576TIP3   OH250218   5.693   0.088   3.738  0.6743  0.3666  0.5937
 9576TIP3    H150219   5.649   0.137   3.808  0.2123  1.6007 -0.5304
 9576TIP3    H250220   5.674  -0.004   3.759  0.9942  0.6628  2.3754
 9577TIP3   OH250221   2.522   3.164  15.552 -0.1936  0.2676  0.0454
 9577TIP3    H150222   2.585   3.222  15.596  0.4549  1.5271 -2.3707
 9577TIP3    H250223   2.529   3.187  15.459 -1.3354 -2.3992 -0.7893
 9578TIP3   OH250224   0.712   0.505   6.165 -0.2131 -0.3117  0.2774
 9578TIP3    H150225   0.660   0.428   6.145  0.8533 -0.5178 -1.9272
 9578TIP3    H250226   0.647   0.574   6.181 -1.2028 -0.7099 -1.7395
 9579TIP3   OH250227   1.382   6.056  14.855  0.3914  0.5186 -0.1959
 9579TIP3    H150228   1.381   6.072  14.761 -1.3102  0.3675 -0.2361
 9579TIP3    H250229   1.363   6.142  14.894 -1.0382  0.2022 -0.1131
 9580TIP3   OH250230   2.388   2.125  12.665 -0.5099 -0.1470  0.4243
 9580TIP3    H150231   2.465   2.154  12.715  0.3736  0.2034 -1.0949
 9580TIP3    H250232   2.341   2.067  12.726  0.1149  0.8457  1.9226
 9581TIP3   OH250233   3.699   4.674   5.228 -0.2442  0.8214  0.0687
 9581TIP3    H150234   3.617   4.656   5.181  0.2313 -1.6458  0.0930
 9581TIP3    H250235   3.768   4.642   5.170  0.4959 -0.1363  1.4226
 9582TIP3   OH250236   1.605   5.839   1.718 -0.1346 -0.0856 -0.4925
 9582TIP3    H150237   1.579   5.926   1.747 -0.8447 -0.9255  1.6367
 9582TIP3    H250238   1.700   5.837   1.731 -0.0353  0.5621 -1.1187
 9583TIP3   OH250239   2.576   0.230   1.487  0.0662 -0.3526 -0.2819
 9583TIP3    H150240   2.519   0.300   1.518 -0.3955 -0.3532 -1.1105
 9583TIP3    H250241   2.637   0.215   1.559 -1.0169 -0.3980  0.6564
 9584TIP3   OH250242   4.835   1.476  13.194 -0.7148  0.3316  0.0230
 9584TIP3    H150243   4.792   1.533  13.258 -1.0652  0.7570 -0.5853
 9584TIP3    H250244   4.769   1.409  13.173 -0.8099  0.5407 -0.3412
 9585TIP3   OH250245   2.093   3.813  17.114 -0.1168  0.1395  0.1447
 9585TIP3    H150246   2.036   3.783  17.184 -0.5706 -0.4416 -0.4729
 9585TIP3    H250247   2.053   3.895  17.084  0.2863  0.5902  0.8042
 9586TIP3   OH250248   5.930   3.806  14.832  0.3241  0.0416  0.3848
 9586TIP3    H150249   6.017   3.792  14.793  0.9923 -1.9040  2.4286
 9586TIP3    H250250   5.948   3.834  14.921 -1.1767 -0.1179  0.7570
 9587TIP3   OH250251   6.630   1.091   5.505 -0.0762 -0.3190 -0.0863
 9587TIP3    H150252   6.716   1.101   5.464  0.9803 -1.6281  1.6856
 9587TIP3    H250253   6.571   1.069   5.433  0.8380  1.5546 -1.4906
 9588TIP3   OH250254   5.228   4.197  14.827 -0.1002  0.2066 -0.3552
 9588TIP3    H150255   5.158   4.228  14.769 -0.7275 -0.5136  0.0019
 9588TIP3    H250256   5.189   4.123  14.873  0.8240 -0.0367  0.0385
 9589TIP3   OH250257   3.341   2.971   4.195  0.1547 -0.4213 -0.8245
 9589TIP3    H150258   3.378   3.018   4.270  0.9833  0.6143 -1.8527
 9589TIP3    H250259   3.357   2.879   4.214 -0.5505 -0.2577  0.7392
 9590TIP3   OH250260   1.060   1.809   2.926 -0.1455 -0.2188 -0.6283
 9590TIP3    H150261   0.997   1.842   2.862 -0.4445  0.1680 -0.1313
 9590TIP3    H250262   1.015   1.814   3.010  0.8175  0.8050 -0.1497
 9591TIP3   OH250263   5.619   4.251  14.853 -0.1749 -0.2205  0.2150
 9591TIP3    H150264   5.549   4.314  14.837  0.7525  1.1005  1.0765
 9591TIP3    H250265   5.684   4.269  14.786  0.2631  0.0234  0.6933
 9592TIP3   OH250266   5.826   3.004  13.956  0.0138  0.2052 -0.6354
 9592TIP3    H150267   5.899   2.945  13.973 -0.8655 -0.6111  0.4739
 9592TIP3    H250268   5.848   3.083  14.005 -0.8791 -0.8858  1.6729
 9593TIP3   OH250269   3.601   4.765  13.186 -0.4432  0.1160  0.0259
 9593TIP3    H150270   3.625   4.796  13.274  0.4257 -0.1136 -0.1212
 9593TIP3    H250271   3.523   4.712  13.200  0.3815 -0.9224  0.8385
 9594TIP3   OH250272   4.093   1.954   0.786  0.6260 -0.2003  0.0718
 9594TIP3    H150273   4.041   1.920   0.859  0.0016 -0.2401 -0.3844
 9594TIP3    H250274   4.057   1.910   0.709  0.1552  1.0804 -0.4642
 9595TIP3   OH250275   5.606   0.027  11.604 -0.1261 -0.0596  0.4493
 9595TIP3    H150276   5.622  -0.047  11.546  1.6425  0.3607  0.3531
 9595TIP3    H250277   5.547   0.084  11.555  1.9500  0.6745 -1.3398
 9596TIP3   OH250278   5.375   5.647   3.212 -0.1832 -0.3733  0.6794
 9596TIP3    H150279   5.383   5.734   3.252 -2.2495  1.2854 -2.0799
 9596TIP3    H250280   5.441   5.646   3.143 -1.4875 -0.0774 -0.6263
 9597TIP3   OH250281   6.368   0.165   5.226 -0.1593  0.4444 -0.4895
 9597TIP3    H150282   6.372   0.074   5.256 -1.0301  0.5156 -0.1296
 9597TIP3    H250283   6.459   0.193   5.224  0.1158 -0.4002 -0.4945
 9598TIP3   OH250284   2.464   5.834   4.922 -0.2364 -0.2119  0.2298
 9598TIP3    H150285   2.508   5.749   4.916 -2.3392 -1.2911 -0.8767
 9598TIP3    H250286   2.508   5.889   4.857 -0.5106 -1.2503 -0.8475
 9599TIP3   OH250287   2.580   3.038   1.803 -0.1702  0.5410 -1.2878
 9599TIP3    H150288   2.513   3.027   1.735 -1.7140  0.1328  0.2098
 9599TIP3    H250289   2.597   2.949   1.833 -0.4381  0.8074 -0.3146
 9600TIP3   OH250290   6.403   5.990  13.404 -0.0505 -0.1583 -0.7008
 9600TIP3    H150291   6.454   5.996  13.484 -0.2312 -0.6414 -0.5521
 9600TIP3    H250292   6.426   6.069  13.355 -0.5941  0.5740  0.2043
 9601TIP3   OH250293   4.891   2.592   5.291 -0.5113 -1.1233  0.2236
 9601TIP3    H150294   4.886   2.510   5.241  2.9568 -0.4085 -1.6253
 9601TIP3    H250295   4.809   2.638   5.270 -1.3494 -2.9865 -0.8103
 9602TIP3   OH250296   2.023   1.102   1.679  0.0966  0.1139 -0.2880
 9602TIP3    H150297   1.996   1.136   1.593  1.1351 -0.4985 -0.8719
 9602TIP3    H250298   2.118   1.100   1.676  0.2930  2.0891  1.6891
 9603TIP3   OH250299   3.510   4.990   2.784 -0.3257 -0.6029  0.5723
 9603TIP3    H150300   3.502   5.085   2.790 -0.7557 -0.5908 -0.0999
 9603TIP3    H250301   3.459   4.957   2.858  0.8247 -0.2846  1.5186
 9604TIP3   OH250302   6.154   2.067  13.237  0.0966 -0.3407  0.3927
 9604TIP3    H150303   6.233   2.089  13.286 -0.3045  2.4234 -0.0385
 9604TIP3    H250304   6.084   2.073  13.301 -0.2749  2.0241 -0.1483
 9605TIP3   OH250305   5.391   4.272   2.170 -0.6277  0.3305  0.1564
 9605TIP3    H150306   5.415   4.290   2.079  0.5651  0.4353  0.4809
 9605TIP3    H250307   5.368   4.358   2.206 -1.5276  0.2335 -0.1425
 9606TIP3   OH250308   6.525   5.166  16.878 -0.0198 -0.2550  0.4255
 9606TIP3    H150309   6.518   5.114  16.798 -1.7832  0.0324  0.3596
 9606TIP3    H250310   6.436   5.171  16.912  0.3657  1.3229  1.3308
 9607TIP3   OH250311   0.765   0.590  15.721  0.1655 -0.0488 -0.2789
 9607TIP3    H150312   0.805   0.551  15.643  0.8240  0.6341 -0.2992
 9607TIP3    H250313   0.805   0.543  15.794 -0.3346 -0.5820 -0.3428
 9608TIP3   OH250314   5.927   5.923  14.176  0.0090  0.2149 -0.2507
 9608TIP3    H150315   5.988   5.850  14.173 -1.3076 -0.9123 -0.7628
 9608TIP3    H250316   5.964   5.988  14.116  1.1609 -0.0314  0.1664
 9609TIP3   OH250317   3.238   0.040   5.857 -0.0438 -0.3678 -0.0104
 9609TIP3    H150318   3.319  -0.010   5.858 -0.6638 -1.4523 -1.3374
 9609TIP3    H250319   3.169  -0.026   5.863 -0.8718  0.6132  2.8138
 9610TIP3   OH250320   3.577   5.248   0.303 -0.3327  1.0181 -0.0907
 9610TIP3    H150321   3.607   5.304   0.232 -1.5763  1.0279 -0.6293
 9610TIP3    H250322   3.565   5.162   0.262 -3.2713  1.5267 -0.5197
 9611TIP3   OH250323   2.526   4.225  12.255  0.1339  0.4453  0.5708
 9611TIP3    H150324   2.620   4.216  12.239  0.2486  0.8440  0.9891
 9611TIP3    H250325   2.492   4.269  12.177  0.0961 -0.6844 -0.0816
 9612TIP3   OH250326   1.362   5.078   1.332  0.2214  0.4130 -0.0754
 9612TIP3    H150327   1.371   4.986   1.360 -1.0037  0.6592  1.2784
 9612TIP3    H250328   1.451   5.105   1.310  1.0141 -0.4426  1.7985
 9613TIP3   OH250329   3.958   3.082   1.305  0.4406 -0.0482  0.0495
 9613TIP3    H150330   4.038   3.057   1.353 -0.2507 -0.2744  1.1158
 9613TIP3    H250331   3.891   3.022   1.339 -0.3355  0.6003 -0.3261
 9614TIP3   OH250332   3.173   0.781  15.821  0.2314 -0.0387 -0.0005
 9614TIP3    H150333   3.261   0.813  15.842  0.4796  0.7572 -2.0317
 9614TIP3    H250334   3.187   0.716  15.753 -0.6999 -0.5717  0.3058
 9615TIP3   OH250335   2.080   4.649  12.820 -0.1082  0.2569 -0.2455
 9615TIP3    H150336   2.052   4.615  12.735 -0.9582 -2.6063  1.0362
 9615TIP3    H250337   2.098   4.571  12.872  2.3267  1.9178  1.6498
 9616TIP3   OH250338   3.725   2.269  17.236 -0.3276 -0.4547  0.2652
 9616TIP3    H150339   3.721   2.197  17.173  2.2787  0.4164 -1.0066
 9616TIP3    H250340   3.750   2.226  17.318 -2.0399 -1.3635  0.3667
 9617TIP3   OH250341   3.062   3.489  11.584 -0.2136  0.3735 -0.5051
 9617TIP3    H150342   3.050   3.556  11.652 -1.8481 -0.6635  0.2694
 9617TIP3    H250343   3.157   3.488  11.570  0.0684  1.3656  0.9931
 9618TIP3   OH250344   0.248   4.527  11.763 -1.0081  0.0394  0.2289
 9618TIP3    H150345   0.155   4.543  11.779 -1.6146 -0.0464 -2.6830
 9618TIP3    H250346   0.264   4.441  11.801 -1.8563  0.4064  1.5072
 9619TIP3   OH250347   4.935   2.369   2.655  0.5909  0.2130 -0.2932
 9619TIP3    H150348   5.005   2.412   2.704  0.2183 -0.8157  1.1764
 9619TIP3    H250349   4.929   2.419   2.573  1.4693  1.7368  0.5406
 9620TIP3   OH250350   3.023   1.504  15.738  0.4471 -0.2996  0.3594
 9620TIP3    H150351   3.102   1.469  15.780  0.8234 -1.0954 -0.9776
 9620TIP3    H250352   2.957   1.436  15.751 -0.5069  0.9219  2.6936
 9621TIP3   OH250353   4.256   6.159   1.766 -0.4870 -0.3751 -0.4712
 9621TIP3    H150354   4.317   6.218   1.809 -0.3127 -0.9504  0.0993
 9621TIP3    H250355   4.171   6.201   1.776 -0.2242  0.2951 -1.0250
 9622TIP3   OH250356   0.517   4.767  13.064 -0.3998 -0.3948 -0.8781
 9622TIP3    H150357   0.477   4.680  13.059 -1.3892  0.0802 -1.4954
 9622TIP3    H250358   0.593   4.762  13.005 -0.6109 -0.7570 -1.1224
 9623TIP3   OH250359   2.711   2.620   0.606  0.2322 -0.0179  0.2318
 9623TIP3    H150360   2.718   2.544   0.664  1.5574  0.4220  0.7031
 9623TIP3    H250361   2.750   2.691   0.656 -0.9556  0.9761 -0.2194
 9624TIP3   OH250362   1.395   4.976  14.384  0.4550  0.0814  0.6053
 9624TIP3    H150363   1.440   4.966  14.468 -0.7134  0.4801  1.2946
 9624TIP3    H250364   1.307   5.007  14.407 -0.6469 -1.9091 -0.5897
 9625TIP3   OH250365   6.377   0.609  13.165  0.0995 -0.2257  0.3641
 9625TIP3    H150366   6.290   0.624  13.201  0.7890  0.2494  1.8882
 9625TIP3    H250367   6.389   0.514  13.170 -0.6056 -0.3893 -0.5923
 9626TIP3   OH250368   1.814   2.229  11.574  0.3266 -0.1584 -0.4070
 9626TIP3    H150369   1.835   2.313  11.616 -2.4695  1.0298 -1.1526
 9626TIP3    H250370   1.860   2.233  11.490 -0.5681  1.1604 -0.8821
 9627TIP3   OH250371   0.260   2.076   5.852  0.1521  0.1429  0.4015
 9627TIP3    H150372   0.336   2.115   5.894  0.5066  0.9866 -0.9514
 9627TIP3    H250373   0.218   2.025   5.921  1.1123  0.8563  1.5567
 9628TIP3   OH250374   1.040   1.151  15.482  0.8156 -0.6952 -0.4553
 9628TIP3    H150375   1.027   1.125  15.573  0.9018 -0.0229 -0.2402
 9628TIP3    H250376   0.962   1.122  15.436  0.6006 -0.6993 -0.0856
 9629TIP3   OH250377   2.352   4.235  15.217  0.0046 -0.4564  0.2281
 9629TIP3    H150378   2.336   4.198  15.130 -0.9265 -0.3721  0.3551
 9629TIP3    H250379   2.267   4.271  15.244 -0.3210 -2.4972  2.1539
 9630TIP3   OH250380   0.954   6.195   0.762 -0.0741 -0.3480 -0.3793
 9630TIP3    H150381   0.923   6.131   0.698 -0.3067 -1.1116  0.4581
 9630TIP3    H250382   0.953   6.147   0.845  0.2000  0.6146  0.1965
 9631TIP3   OH250383   2.567   2.648  13.099  0.3290  0.2412  0.1064
 9631TIP3    H150384   2.543   2.595  13.023 -0.1725 -0.2992  0.6337
 9631TIP3    H250385   2.650   2.611  13.129  0.3173  0.1866  0.0719
 9632TIP3   OH250386   3.145   6.031   2.804 -0.3025  0.2382 -0.8961
 9632TIP3    H150387   3.091   5.962   2.842  1.4806 -1.2597 -0.9375
 9632TIP3    H250388   3.145   6.013   2.710  2.0463 -1.2410 -0.7028
 9633TIP3   OH250389   2.148   6.239  12.224  0.3544 -0.3320 -0.4327
 9633TIP3    H150390   2.237   6.267  12.207  0.2052 -0.3203 -1.2168
 9633TIP3    H250391   2.098   6.270  12.149 -1.5562  5.0141  2.4948
 9634TIP3   OH250392   1.004   5.489   6.900  0.6309 -0.3198  0.8387
 9634TIP3    H150393   0.916   5.473   6.867  1.1257 -0.9457 -0.2046
 9634TIP3    H250394   0.992   5.499   6.995 -0.5317 -0.5555  0.7329
 9635TIP3   OH250395   0.154   0.112  11.349  0.1502  0.3658  0.2219
 9635TIP3    H150396   0.124   0.144  11.434 -1.7289 -0.7693  0.0241
 9635TIP3    H250397   0.231   0.059  11.370 -0.3048  0.0723  1.2218
 9636TIP3   OH250398   3.720   6.119  13.237  0.1588 -0.1579 -0.9572
 9636TIP3    H150399   3.697   6.055  13.304  0.2464 -0.3789 -1.1378
 9636TIP3    H250400   3.637   6.141  13.195 -0.3150  1.8116  0.8115
 9637TIP3   OH250401   2.820   3.510   6.618 -0.4947 -0.2259  0.6982
 9637TIP3    H150402   2.877   3.572   6.662 -0.5978 -0.6380  1.4258
 9637TIP3    H250403   2.849   3.424   6.650  1.2264 -0.7962 -2.0437
 9638TIP3   OH250404   1.435   6.118   1.689  0.2144 -0.3652  0.6594
 9638TIP3    H150405   1.342   6.138   1.688  0.4209  0.6647  0.9330
 9638TIP3    H250406   1.475   6.187   1.636  0.7844 -0.9860  0.2763
 9639TIP3   OH250407   2.474   0.808  14.086  0.2192  0.5947 -0.0554
 9639TIP3    H150408   2.498   0.846  14.002  2.0722  0.0000  0.1560
 9639TIP3    H250409   2.470   0.714  14.070 -2.6221  0.6372 -0.1672
 9640TIP3   OH250410   0.490   3.019   1.537  0.2073 -0.4052  0.1185
 9640TIP3    H150411   0.584   3.032   1.532  0.2465 -1.0359 -2.9792
 9640TIP3    H250412   0.477   2.960   1.611  2.5413 -2.2748 -0.8593
 9641TIP3   OH250413   0.252   5.453   0.105 -0.0997  0.3285  0.3747
 9641TIP3    H150414   0.277   5.461   0.197 -2.8298 -0.7738  1.3234
 9641TIP3    H250415   0.176   5.511   0.096 -1.7304 -1.7610 -0.3122
 9642TIP3   OH250416   6.507   4.916   2.755 -0.0890  0.1733  0.2354
 9642TIP3    H150417   6.565   4.956   2.821 -0.4492 -0.9522  1.2799
 9642TIP3    H250418   6.567   4.880   2.690  0.6053 -2.4334  2.1250
 9643TIP3   OH250419   3.771   4.325  17.405  0.2698 -0.2939 -0.0363
 9643TIP3    H150420   3.829   4.249  17.412  0.3323 -0.1281  1.6543
 9643TIP3    H250421   3.687   4.293  17.439  0.5769  0.6351  1.7062
 9644TIP3   OH250422   6.619   5.227   0.104 -0.5654 -0.0199 -0.3139
 9644TIP3    H150423   6.695   5.240   0.047  0.8126  0.2718  1.5173
 9644TIP3    H250424   6.656   5.211   0.190 -2.6077  0.2106  0.6578
 9645TIP3   OH250425   0.511   2.198  13.269  0.0609 -0.5273 -0.3428
 9645TIP3    H150426   0.456   2.269  13.236 -0.5052 -0.6759  0.2754
 9645TIP3    H250427   0.488   2.122  13.216 -0.6577 -0.7007  0.2106
 9646TIP3   OH250428   6.656   1.244   0.799 -0.4492 -0.1744 -0.1849
 9646TIP3    H150429   6.628   1.297   0.725  0.6151  0.7737  0.0666
 9646TIP3    H250430   6.575   1.208   0.835 -1.0937  0.4666 -0.9642
 9647TIP3   OH250431   5.506   6.422  14.431  0.1945  0.0157  0.3340
 9647TIP3    H150432   5.546   6.339  14.407 -1.2562 -0.3348 -1.0296
 9647TIP3    H250433   5.577   6.486  14.424  0.9678 -0.8657 -0.0661
 9648TIP3   OH250434   2.723   1.073   0.656 -0.4408  0.2888 -0.5524
 9648TIP3    H150435   2.802   1.020   0.667 -1.4123 -1.3710 -1.1655
 9648TIP3    H250436   2.748   1.160   0.686  0.7306 -0.9060  2.3029
 9649TIP3   OH250437   2.046   6.621   1.198 -0.3371 -0.4753  0.2396
 9649TIP3    H150438   2.051   6.536   1.156  1.6146 -0.2619 -0.0813
 9649TIP3    H250439   2.015   6.680   1.130  0.8810 -0.4878 -0.3544
 9650TIP3   OH250440   0.906   3.653  15.822  0.2173 -0.3048  0.6757
 9650TIP3    H150441   0.833   3.698  15.778  0.4053 -1.3123 -0.7348
 9650TIP3    H250442   0.907   3.689  15.911 -1.9254 -0.2008  0.6919
 9651TIP3   OH250443   2.070   1.179   5.433  0.1815 -0.0218 -0.3218
 9651TIP3    H150444   2.096   1.113   5.369  1.1673  0.0681 -0.0293
 9651TIP3    H250445   2.081   1.262   5.387  1.0065  0.0501 -0.0120
 9652TIP3   OH250446   4.925   1.551  13.664  0.9005 -0.6132  0.3939
 9652TIP3    H150447   4.881   1.625  13.706  1.5891 -0.4761  0.8898
 9652TIP3    H250448   4.896   1.555  13.573  0.1894 -0.3037  0.6255
 9653TIP3   OH250449   3.411   5.593   3.691  0.0603 -0.3705 -0.1632
 9653TIP3    H150450   3.472   5.519   3.690  1.3489  0.6519 -0.3663
 9653TIP3    H250451   3.413   5.623   3.782  1.1636  0.6718 -0.5064
 9654TIP3   OH250452   0.390   5.814  11.301  0.3868 -0.0411 -0.2774
 9654TIP3    H150453   0.328   5.792  11.370  0.4104 -0.3117 -0.3415
 9654TIP3    H250454   0.466   5.758  11.318  1.1710  1.2267  0.5943
 9655TIP3   OH250455   5.308   0.945   5.608  0.0559  0.2566  0.1660
 9655TIP3    H150456   5.319   0.894   5.528 -0.3886  2.4635 -1.4080
 9655TIP3    H250457   5.242   0.898   5.657 -3.0924  1.0477 -2.8979
 9656TIP3   OH250458   5.960   1.326  12.426 -0.7467  0.1447 -0.3436
 9656TIP3    H150459   5.917   1.321  12.512 -1.9503 -1.7160 -1.0028
 9656TIP3    H250460   6.002   1.412  12.426 -1.6069  0.6368  1.6821
 9657TIP3   OH250461   0.618   3.631  11.854  0.3976  0.0818 -0.0305
 9657TIP3    H150462   0.601   3.594  11.768  1.3339  0.3306 -0.3369
 9657TIP3    H250463   0.593   3.723  11.848 -1.3004 -0.3166  0.5337
 9658TIP3   OH250464   0.325   6.671   2.230 -0.1212  0.3157  0.1277
 9658TIP3    H150465   0.373   6.753   2.223 -1.5653  1.0997 -1.3423
 9658TIP3    H250466   0.385   6.605   2.196  0.3189  1.0883 -0.6253
 9659TIP3   OH250467   1.653   6.431   2.352  0.1968  0.0872 -0.0750
 9659TIP3    H150468   1.745   6.420   2.372  0.5278  2.5626  0.1617
 9659TIP3    H250469   1.650   6.508   2.294 -1.6588 -0.3918 -0.7094
 9660TIP3   OH250470   4.362   2.200  11.322  0.1635 -0.2896 -0.1376
 9660TIP3    H150471   4.431   2.142  11.354 -0.9426 -0.9572  1.0993
 9660TIP3    H250472   4.408   2.261  11.264  1.9195 -0.2547  1.2046
 9661TIP3   OH250473   5.966   4.246  17.352 -0.0964  0.2148  0.2160
 9661TIP3    H150474   5.958   4.336  17.320  0.2228 -0.7245 -2.8338
 9661TIP3    H250475   5.877   4.212  17.352  0.0108 -0.0756 -0.6466
 9662TIP3   OH250476   2.087   2.317  12.797  0.1637  0.3227  0.3586
 9662TIP3    H150477   2.025   2.251  12.765 -0.2621  0.2067  1.3969
 9662TIP3    H250478   2.104   2.373  12.721 -0.2078 -0.4144 -0.2801
 9663TIP3   OH250479   2.590   4.516  11.225 -0.0219  0.2410  0.2027
 9663TIP3    H150480   2.625   4.518  11.136 -1.2937 -0.3601 -0.3408
 9663TIP3    H250481   2.621   4.598  11.265 -1.5566  1.8658 -1.6747
 9664TIP3   OH250482   5.477   6.601   4.830 -0.3524 -0.1658 -0.4765
 9664TIP3    H150483   5.429   6.591   4.912  0.5774 -1.2962 -0.0331
 9664TIP3    H250484   5.546   6.664   4.850  0.0363 -0.6424 -0.3111
 9665TIP3   OH250485   2.895   4.788   1.736 -0.7696  0.0017  0.4479
 9665TIP3    H150486   2.972   4.768   1.684 -0.8653 -0.1455  0.3641
 9665TIP3    H250487   2.821   4.770   1.678 -0.9493 -1.7947  1.1707
 9666TIP3   OH250488   1.005   1.294  13.097 -0.4325  0.2331 -0.1066
 9666TIP3    H150489   1.064   1.249  13.157 -1.0224 -0.1255  0.2113
 9666TIP3    H250490   0.983   1.375  13.142 -0.6465  0.0957  0.0396
 9667TIP3   OH250491   3.009   2.064   6.306 -0.4175  0.5825 -0.1872
 9667TIP3    H150492   2.927   2.042   6.262 -0.1742 -2.1106  0.5786
 9667TIP3    H250493   2.983   2.089   6.395 -0.4112 -0.4336  0.1064
 9668TIP3   OH250494   3.870   1.173   0.986  0.1351 -0.2462 -0.0531
 9668TIP3    H150495   3.797   1.163   0.925 -1.2192  1.3554  1.1914
 9668TIP3    H250496   3.906   1.085   0.997 -0.3764 -0.7549 -2.1485
 9669TIP3   OH250497   3.639   1.058   1.329 -0.2555 -0.1045 -0.5815
 9669TIP3    H150498   3.642   0.967   1.300  0.9251 -0.3711  0.3277
 9669TIP3    H250499   3.731   1.083   1.338 -0.5786  0.8448  0.2122
 9670TIP3   OH250500   6.025   2.393  16.046 -0.0212 -0.7044 -0.5353
 9670TIP3    H150501   5.970   2.389  15.969 -1.6648 -1.0448  0.6040
 9670TIP3    H250502   6.064   2.480  16.044 -1.3559 -0.0904 -0.9041
 9671TIP3   OH250503   3.917   1.220  15.497 -0.8985 -0.3055 -0.2246
 9671TIP3    H150504   3.873   1.148  15.542 -0.5367 -1.0869 -1.0717
 9671TIP3    H250505   4.003   1.225  15.538 -1.1136  0.0033  0.1938
 9672TIP3   OH250506   5.629   0.205  16.033  0.1745  0.4542  0.3859
 9672TIP3    H150507   5.643   0.215  15.939 -2.3575  0.8069 -0.0078
 9672TIP3    H250508   5.560   0.139  16.041  0.1015  0.6815  1.9826
 9673TIP3   OH250509   3.992   6.257  14.083  0.8575 -0.1812  0.3761
 9673TIP3    H150510   3.945   6.181  14.118 -0.1871  1.3984  2.6732
 9673TIP3    H250511   4.060   6.275  14.149  2.2366 -0.1285 -1.0044
 9674TIP3   OH250512   0.393   4.565  12.691  0.1124 -0.1772 -0.2035
 9674TIP3    H150513   0.307   4.563  12.734  0.0084 -0.7330 -0.4406
 9674TIP3    H250514   0.385   4.505  12.618  0.3893  0.5487 -0.8405
 9675TIP3   OH250515   3.590   0.810   1.234  0.2016  0.2072 -0.1064
 9675TIP3    H150516   3.495   0.810   1.246  0.1414 -0.9300 -0.4168
 9675TIP3    H250517   3.602   0.795   1.140  0.6870 -0.4545  0.0551
 9676TIP3   OH250518   6.528   6.019  12.775  0.5624 -0.3144  0.4683
 9676TIP3    H150519   6.613   5.981  12.752  0.7457 -0.5322  1.4609
 9676TIP3    H250520   6.551   6.098  12.824  0.1872 -0.0151  0.1614
 9677TIP3   OH250521   0.358   0.361   0.095 -0.5858  0.2881 -0.3773
 9677TIP3    H150522   0.411   0.426   0.142 -1.0371 -0.9205  1.9837
 9677TIP3    H250523   0.413   0.282   0.096 -0.6128  0.2261 -1.9710
 9678TIP3   OH250524   3.545   1.652  13.955  0.1927  0.0106 -0.0797
 9678TIP3    H150525   3.617   1.627  14.013 -0.8639 -0.9514  0.8795
 9678TIP3    H250526   3.532   1.745  13.971 -0.8654 -0.4432  2.2400
 9679TIP3   OH250527   5.973   6.773   4.009  0.1784 -0.3405 -0.1843
 9679TIP3    H150528   6.068   6.776   4.012  0.1987 -0.1046 -0.8708
 9679TIP3    H250529   5.946   6.863   3.990 -0.3671  0.4232  3.5119
 9680TIP3   OH250530   2.477   0.250   6.739 -0.1328 -0.0688  0.1500
 9680TIP3    H150531   2.532   0.311   6.691 -0.3974 -0.6186 -0.8798
 9680TIP3    H250532   2.387   0.281   6.725 -0.3685 -1.3658 -1.4100
 9681TIP3   OH250533   1.461   5.040  17.333  0.7260 -0.6330  0.3141
 9681TIP3    H150534   1.444   5.127  17.297 -0.3554 -0.8147  0.3273
 9681TIP3    H250535   1.485   4.987  17.256 -2.9118 -1.3579 -0.5558
 9682TIP3   OH250536   2.758   1.986  13.043 -0.3470 -0.1546 -0.0208
 9682TIP3    H150537   2.848   1.966  13.017 -0.5566 -0.7609 -0.2864
 9682TIP3    H250538   2.756   2.081  13.051  0.8576 -0.2428  1.9418
 9683TIP3   OH250539   4.064   4.356  16.362 -0.0285  0.0334  0.3346
 9683TIP3    H150540   4.000   4.393  16.301 -0.4193  0.0418  0.7410
 9683TIP3    H250541   4.082   4.268  16.328  0.4316  0.3601 -0.2846
 9684TIP3   OH250542   4.054   0.885  11.401  0.1638 -0.2267  0.0674
 9684TIP3    H150543   4.059   0.924  11.489  0.6560 -1.0890  0.4375
 9684TIP3    H250544   4.022   0.956  11.345 -1.6461 -0.0668  1.2161
 9685TIP3   OH250545   3.141   5.433   2.161 -0.5920 -0.5445  0.4814
 9685TIP3    H150546   3.235   5.415   2.162 -0.9278 -2.4609  0.9598
 9685TIP3    H250547   3.124   5.479   2.243 -0.0090  0.3563  0.1198
 9686TIP3   OH250548   5.134   5.248   2.657  0.2843  0.4253  0.4943
 9686TIP3    H150549   5.064   5.308   2.631 -0.9329 -1.3749 -0.4979
 9686TIP3    H250550   5.099   5.201   2.732  0.9378  0.3867  0.7852
 9687TIP3   OH250551   4.478   4.253   2.255 -0.4334  0.3211 -0.0800
 9687TIP3    H150552   4.526   4.320   2.206 -0.0410 -0.5527 -0.9206
 9687TIP3    H250553   4.465   4.182   2.192  1.0701 -1.3299  1.3462
 9688TIP3   OH250554   5.906   5.524  12.607 -0.1171 -0.2117  0.0270
 9688TIP3    H150555   5.855   5.443  12.601 -1.2592  0.3742  1.2954
 9688TIP3    H250556   5.997   5.494  12.609 -0.4763 -1.4025 -0.3806
 9689TIP3   OH250557   2.535   6.269  14.647  0.0059  0.2232 -0.1469
 9689TIP3    H150558   2.560   6.180  14.624 -0.0406 -0.0781  0.9329
 9689TIP3    H250559   2.610   6.323  14.620  0.0055 -0.1225 -0.8612
 9690TIP3   OH250560   0.317   1.632  13.484 -0.3503 -0.8261 -0.5994
 9690TIP3    H150561   0.331   1.538  13.499  0.9856 -0.3162  1.8448
 9690TIP3    H250562   0.397   1.661  13.440  0.6760 -0.3070  1.5096
 9691TIP3   OH250563   3.848   5.685  15.208  0.0772 -0.1713 -0.6882
 9691TIP3    H150564   3.931   5.636  15.205 -0.2170 -0.6900 -0.4742
 9691TIP3    H250565   3.792   5.641  15.143  0.2359  0.6898 -1.4337
 9692TIP3   OH250566   2.005   1.384   4.428 -0.8235 -0.2822  0.7254
 9692TIP3    H150567   1.916   1.352   4.445 -0.7477 -0.0156  1.6839
 9692TIP3    H250568   2.015   1.459   4.487 -0.4667  0.5854 -0.4049
 9693TIP3   OH250569   0.766   0.525   0.980 -0.6203  0.4959  0.2378
 9693TIP3    H150570   0.837   0.563   0.927 -1.0615 -0.0817 -0.8014
 9693TIP3    H250571   0.810   0.459   1.034 -0.0923  1.4054  0.9584
 9694TIP3   OH250572   5.813   4.766  16.145  0.2895  0.2121 -0.1901
 9694TIP3    H150573   5.793   4.848  16.101  1.0911 -0.0756 -1.1292
 9694TIP3    H250574   5.728   4.726  16.162 -0.0861  1.0509 -0.0698
 9695TIP3   OH250575   5.160   0.308   4.435  0.3499  0.2070 -0.5186
 9695TIP3    H150576   5.082   0.358   4.460 -0.2431 -0.8802 -0.1278
 9695TIP3    H250577   5.132   0.217   4.439  1.2364 -0.1490 -1.7867
 9696TIP3   OH250578   1.767   4.197   5.082  0.1180  0.5560 -0.2374
 9696TIP3    H150579   1.754   4.291   5.069  0.1840  0.6521  0.3602
 9696TIP3    H250580   1.712   4.175   5.157 -1.0633 -0.1897 -1.2835
 9697TIP3   OH250581   1.766   5.665   6.577 -0.2133 -0.0372  0.5116
 9697TIP3    H150582   1.763   5.579   6.535  0.5704  0.3682 -0.4205
 9697TIP3    H250583   1.827   5.654   6.649 -0.5391 -0.4027  0.7334
 9698TIP3   OH250584   1.028   4.030   2.203 -0.0867  0.1504  0.1013
 9698TIP3    H150585   1.121   4.056   2.202 -0.3271  1.0791  0.5111
 9698TIP3    H250586   1.002   4.039   2.295 -0.3080 -1.1631  0.1810
 9699TIP3   OH250587   2.515   3.724  15.081  0.1222 -0.0275 -0.3787
 9699TIP3    H150588   2.531   3.634  15.055 -1.2982 -0.4576  0.0964
 9699TIP3    H250589   2.486   3.768  15.001 -0.4349 -0.3457 -0.3613
 9700TIP3   OH250590   0.397   3.619  12.123 -0.8877  0.0229 -0.5153
 9700TIP3    H150591   0.385   3.670  12.203 -0.2164  1.5484 -1.3439
 9700TIP3    H250592   0.339   3.660  12.059 -0.2390 -0.1667 -1.2448
 9701TIP3   OH250593   1.792   2.565   3.719 -0.5036 -0.0774 -0.0892
 9701TIP3    H150594   1.848   2.604   3.652 -1.1684 -1.0902 -1.2834
 9701TIP3    H250595   1.783   2.633   3.786  0.0079  1.0531 -1.1292
 9702TIP3   OH250596   1.711   2.000  15.012 -0.0220 -0.1372 -0.4225
 9702TIP3    H150597   1.782   1.941  14.985  0.3531  0.5092 -0.8650
 9702TIP3    H250598   1.753   2.084  15.029 -0.9539  1.1126 -3.4668
 9703TIP3   OH250599   1.758   1.070   3.075  0.1366  0.1397 -0.0492
 9703TIP3    H150600   1.682   1.015   3.093  1.3912 -1.2708  1.1649
 9703TIP3    H250601   1.778   1.054   2.983  0.5327 -1.5666  0.2950
 9704TIP3   OH250602   6.294   5.245   0.883 -0.1665 -0.1340 -0.1652
 9704TIP3    H150603   6.373   5.207   0.923 -0.2192 -0.1718 -0.0959
 9704TIP3    H250604   6.234   5.257   0.956 -0.1492  0.0864 -0.1873
 9705TIP3   OH250605   6.561   2.528  16.530 -0.6703  0.3591 -0.4879
 9705TIP3    H150606   6.524   2.441  16.519  0.0555 -0.4202  2.3058
 9705TIP3    H250607   6.518   2.562  16.609 -0.0329  2.0292 -0.8187
 9706TIP3   OH250608   3.490   2.833   3.258 -0.1139  0.0862 -0.4025
 9706TIP3    H150609   3.443   2.902   3.305  1.4016  1.5168 -0.8883
 9706TIP3    H250610   3.573   2.826   3.303 -1.1599 -3.3604  1.2857
 9707TIP3   OH250611   2.705   3.382  16.980 -0.1503 -0.3244 -0.2263
 9707TIP3    H150612   2.665   3.328  17.048 -1.1271  1.1802  0.4577
 9707TIP3    H250613   2.741   3.319  16.917 -1.2835 -1.7497  0.4821
 9708TIP3   OH250614   1.980   5.095   3.445  0.7801  0.5692 -0.1757
 9708TIP3    H150615   2.066   5.138   3.442  1.3087 -0.5022 -1.4114
 9708TIP3    H250616   1.999   5.005   3.471  0.1444  0.0953 -1.2996
 9709TIP3   OH250617   2.434   0.558  10.692  0.0692 -0.1660  0.0709
 9709TIP3    H150618   2.446   0.650  10.718 -0.5689  0.0614 -0.4160
 9709TIP3    H250619   2.339   0.544  10.699  0.0961 -0.6084 -0.4515
 9710TIP3   OH250620   3.810   4.903  16.822 -0.3515  0.0809 -0.4794
 9710TIP3    H150621   3.774   4.954  16.750 -0.2835 -1.5481 -1.7371
 9710TIP3    H250622   3.812   4.813  16.789  0.0268 -0.6709  1.4368
 9711TIP3   OH250623   4.934   5.203  17.062  0.3142  0.5261 -0.3344
 9711TIP3    H150624   4.895   5.224  17.147 -0.8398 -0.7995 -0.4950
 9711TIP3    H250625   4.863   5.217  17.000  0.8382  0.4397 -0.9558
 9712TIP3   OH250626   0.252   5.944  14.485  0.3125  0.4361  0.4354
 9712TIP3    H150627   0.332   5.937  14.538 -0.4608 -0.1338  1.5935
 9712TIP3    H250628   0.281   5.933  14.395  1.8393  2.5975  0.5972
 9713TIP3   OH250629   4.827   2.228   3.245  0.0127  0.0201  0.0652
 9713TIP3    H150630   4.880   2.301   3.214 -1.6320  2.4130  2.3956
 9713TIP3    H250631   4.760   2.216   3.177  1.0884 -0.2750 -0.9623
 9714TIP3   OH250632   2.668   0.998  14.940  0.1050 -0.6793 -0.4066
 9714TIP3    H150633   2.758   1.011  14.910  0.8919 -1.8396  1.2746
 9714TIP3    H250634   2.669   0.912  14.982 -1.0046  0.5452  2.3440
 9715TIP3   OH250635   0.300   4.942  11.306  0.3275  0.2453 -0.0125
 9715TIP3    H150636   0.388   4.913  11.282 -0.3351 -0.1707 -2.1949
 9715TIP3    H250637   0.252   4.944  11.223 -2.0896 -0.7849  1.2471
 9716TIP3   OH250638   0.532   2.756   6.008  0.3641  0.7494  0.0819
 9716TIP3    H150639   0.448   2.771   6.053  0.8888 -0.0867  1.4277
 9716TIP3    H250640   0.509   2.754   5.915 -1.2890 -0.3997  0.4524
 9717TIP3   OH250641   0.251   2.744   6.049 -0.1833  0.1367 -0.6312
 9717TIP3    H150642   0.260   2.829   6.091  1.5896 -0.7194  0.8602
 9717TIP3    H250643   0.182   2.757   5.983 -1.6037  2.1007  1.0876
 9718TIP3   OH250644   1.753   4.992   5.523  0.1489 -0.3480  0.7772
 9718TIP3    H150645   1.833   4.952   5.490 -0.4436 -0.9433  0.0346
 9718TIP3    H250646   1.746   5.074   5.475 -0.4446 -0.9786 -0.2653
 9719TIP3   OH250647   3.249   2.574  12.751 -0.8175  0.4633  0.8316
 9719TIP3    H150648   3.253   2.485  12.785 -0.4656 -1.5892 -3.7671
 9719TIP3    H250649   3.157   2.587  12.730 -0.5237 -0.0100 -0.9335
 9720TIP3   OH250650   3.938   3.195  11.430  0.2119  0.3614 -0.4581
 9720TIP3    H150651   3.928   3.290  11.428  1.9804  0.6542  1.2279
 9720TIP3    H250652   3.974   3.173  11.344  0.8523  1.3781 -0.4683
 9721TIP3   OH250653   5.237   1.918   0.588  0.2316  0.7274 -0.2212
 9721TIP3    H150654   5.167   1.922   0.523  0.9059 -1.7113 -1.1933
 9721TIP3    H250655   5.202   1.964   0.664 -2.9560 -1.4714 -0.1898
 9722TIP3   OH250656   2.497   6.015   4.661  0.3383 -0.7876  0.2900
 9722TIP3    H150657   2.429   6.050   4.603  0.1684 -0.4126  0.7059
 9722TIP3    H250658   2.560   6.087   4.670 -0.4207 -0.2599  1.7957
 9723TIP3   OH250659   5.217   6.246  16.511  0.6880 -0.2228  0.2992
 9723TIP3    H150660   5.141   6.284  16.467  1.6865  0.0001 -1.3449
 9723TIP3    H250661   5.267   6.206  16.440 -0.0857 -4.3625  1.8395
 9724TIP3   OH250662   2.633   5.591   4.471  0.3450 -0.0682 -0.5515
 9724TIP3    H150663   2.634   5.586   4.375 -0.4330  0.9081 -0.6213
 9724TIP3    H250664   2.581   5.669   4.491  1.2864  0.2813  0.6559
 9725TIP3   OH250665   1.186   2.715  13.839  0.7216 -0.3228  0.5833
 9725TIP3    H150666   1.235   2.635  13.819  0.0193 -0.2696 -1.6021
 9725TIP3    H250667   1.254   2.779  13.862  1.5026 -0.8745 -0.1062
 9726TIP3   OH250668   6.217   3.407  11.552 -0.0164  0.1971  0.0605
 9726TIP3    H150669   6.197   3.323  11.511 -0.1149 -0.2010  0.9052
 9726TIP3    H250670   6.146   3.421  11.615  0.3939  0.5448  0.4600
 9727TIP3   OH250671   5.555   3.578  16.514  0.7401  0.2359 -0.1612
 9727TIP3    H150672   5.468   3.610  16.493  1.0145  1.4699  0.5087
 9727TIP3    H250673   5.560   3.492  16.471 -1.1929 -0.3686  0.7341
 9728TIP3   OH250674   3.762   0.316  12.556 -0.3821 -0.5590 -0.1347
 9728TIP3    H150675   3.680   0.268  12.547 -0.6351 -0.0928 -0.3503
 9728TIP3    H250676   3.743   0.382  12.623 -0.4951  0.1977 -0.8960
 9729TIP3   OH250677   6.057   2.470   0.046 -0.0556  0.5648 -0.1538
 9729TIP3    H150678   6.150   2.489   0.038 -0.0673  0.0767 -1.9945
 9729TIP3    H250679   6.015   2.533  -0.012 -0.7157 -0.2701 -0.6074
 9730TIP3   OH250680   2.012   3.670   0.432 -0.1614  0.0884 -0.4314
 9730TIP3    H150681   2.008   3.764   0.416 -0.5687  0.1411 -0.0494
 9730TIP3    H250682   2.105   3.649   0.436 -0.0160  0.9148  1.9621
 9731TIP3   OH250683   3.884   4.513   0.406 -0.2611 -0.5305 -0.3888
 9731TIP3    H150684   3.798   4.548   0.380 -0.6023 -2.0089 -1.3910
 9731TIP3    H250685   3.863   4.443   0.468  0.3273  0.1627  0.6087
 9732TIP3   OH250686   4.652   4.295  16.622 -0.2907 -0.9800 -0.2937
 9732TIP3    H150687   4.737   4.281  16.581  0.8984  2.4429  0.6373
 9732TIP3    H250688   4.616   4.371  16.575 -2.4359 -1.7755 -0.0274
 9733TIP3   OH250689   1.949   2.608   1.482  0.4006 -0.4655  0.4023
 9733TIP3    H150690   1.937   2.522   1.441 -0.0790 -0.3593  0.3083
 9733TIP3    H250691   1.879   2.613   1.547  0.0184  0.1124 -0.0426
 9734TIP3   OH250692   3.983   0.456   0.460  0.5734 -0.2734 -0.1575
 9734TIP3    H150693   4.018   0.393   0.524 -1.2183  0.3813  1.5744
 9734TIP3    H250694   3.946   0.401   0.391  0.3268 -1.0946  0.6035
 9735TIP3   OH250695   5.236   1.006   1.925  0.2381 -0.1418 -0.0223
 9735TIP3    H150696   5.156   0.956   1.911 -0.0791  0.5539 -0.7585
 9735TIP3    H250697   5.216   1.094   1.893  0.5873  0.6574  1.8192
 9736TIP3   OH250698   1.582   3.434  13.602 -0.0660  0.0943  0.7151
 9736TIP3    H150699   1.529   3.512  13.587 -1.6897 -0.5352  2.6729
 9736TIP3    H250700   1.576   3.419  13.697 -3.4605 -4.7583  0.1190
 9737TIP3   OH250701   2.719   6.149  11.296 -0.0006 -0.4008  0.3172
 9737TIP3    H150702   2.809   6.130  11.324 -0.4327 -1.4915  1.0287
 9737TIP3    H250703   2.720   6.242  11.273  1.5459 -0.6253 -0.6323
 9738TIP3   OH250704   3.555   0.505   1.369  0.1140  0.1477  1.1053
 9738TIP3    H150705   3.529   0.554   1.291  1.6019 -0.3581  0.2418
 9738TIP3    H250706   3.568   0.573   1.436 -1.5997  0.5486  1.0833
 9739TIP3   OH250707   5.450   0.827   3.855 -0.4295 -0.1489 -0.0763
 9739TIP3    H150708   5.364   0.785   3.850 -1.5485  1.9859  0.3234
 9739TIP3    H250709   5.466   0.859   3.766  0.5415 -1.5304 -0.4418
 9740TIP3   OH250710   4.105   1.758  14.433  0.2271  0.2419 -0.0430
 9740TIP3    H150711   4.065   1.684  14.478 -0.0929 -1.5326 -2.9749
 9740TIP3    H250712   4.032   1.805  14.393  0.6797 -0.7101 -2.1276
 9741TIP3   OH250713   6.465   2.464   4.686 -0.0181 -0.4635  0.3837
 9741TIP3    H150714   6.413   2.408   4.627  0.5033 -0.3718 -0.1706
 9741TIP3    H250715   6.411   2.543   4.696 -0.5204 -0.8436  0.7573
 9742TIP3   OH250716   1.354   4.037  12.966 -0.5467  0.2725 -0.3280
 9742TIP3    H150717   1.311   4.106  12.916 -0.1809  0.1322 -0.8481
 9742TIP3    H250718   1.318   3.956  12.930 -0.7266  0.1822  0.0492
 9743TIP3   OH250719   0.279   3.075   3.114 -0.3045  0.0552 -0.1563
 9743TIP3    H150720   0.232   2.992   3.108  0.8835 -0.6202 -0.3336
 9743TIP3    H250721   0.307   3.093   3.024  1.3797 -0.5129  0.2307
 9744TIP3   OH250722   2.512   6.708   0.436 -0.7984  0.0933  0.1672
 9744TIP3    H150723   2.527   6.668   0.522  0.9947  2.3013  0.9797
 9744TIP3    H250724   2.417   6.720   0.432 -1.1414 -2.0303  0.8535
 9745TIP3   OH250725   4.325   6.598   2.842 -0.0385 -0.7193 -0.2965
 9745TIP3    H150726   4.347   6.691   2.835  2.4395 -1.0354  1.7262
 9745TIP3    H250727   4.233   6.593   2.815 -1.1133  2.7585  2.0330
 9746TIP3   OH250728   3.197   6.126   1.458 -0.5569 -0.2536 -0.2135
 9746TIP3    H150729   3.272   6.182   1.439 -0.7733  0.2481  0.4053
 9746TIP3    H250730   3.156   6.111   1.372 -1.0712  1.3471 -0.2831
 9747TIP3   OH250731   0.051   2.761  11.629 -0.6050  0.2664 -0.2007
 9747TIP3    H150732   0.116   2.780  11.698 -0.4727 -1.5541  0.2192
 9747TIP3    H250733   0.073   2.673  11.598 -1.2986  0.6478 -1.8882
 9748TIP3   OH250734   3.257   4.089   2.895 -0.4931 -0.0570 -0.1521
 9748TIP3    H150735   3.248   4.150   2.968  0.6203 -0.9639  0.7722
 9748TIP3    H250736   3.286   4.144   2.822  0.0044  0.5974  0.5206
 9749TIP3   OH250737   3.257   5.876  15.006 -0.0705 -0.3842 -0.6427
 9749TIP3    H150738   3.279   5.962  14.972  0.1072 -0.2041 -0.0793
 9749TIP3    H250739   3.261   5.885  15.101  2.3399 -1.6142 -0.5559
 9750TIP3   OH250740   1.285   1.673  11.539 -0.4974 -0.2275  0.4126
 9750TIP3    H150741   1.295   1.581  11.514  1.6573 -0.1201  0.6581
 9750TIP3    H250742   1.298   1.721  11.458  1.7312 -0.0653  0.7979
 9751TIP3   OH250743   5.542   4.040   0.615 -0.0924 -0.3010 -0.1134
 9751TIP3    H150744   5.496   3.997   0.687 -2.5049 -0.4695 -1.6723
 9751TIP3    H250745   5.478   4.100   0.577  1.6608  1.0605 -1.0910
 9752TIP3   OH250746   1.010   2.916   3.008 -0.4778  0.5383 -0.2381
 9752TIP3    H150747   0.915   2.919   2.995 -0.3484  0.7505 -1.1627
 9752TIP3    H250748   1.046   2.890   2.923  0.2374 -0.5177  0.3669
 9753TIP3   OH250749   1.927   3.089   5.176 -0.1236  0.2714 -0.4260
 9753TIP3    H150750   2.021   3.081   5.189  0.0053 -1.4323 -2.0528
 9753TIP3    H250751   1.908   3.032   5.101 -2.8340 -1.6441  1.5146
 9754TIP3   OH250752   0.724   5.867   5.178  0.3803 -0.2993 -0.1770
 9754TIP3    H150753   0.719   5.908   5.091 -1.4646 -0.0762 -0.0203
 9754TIP3    H250754   0.768   5.932   5.232 -2.2366  1.5103 -0.0018
 9755TIP3   OH250755   6.168   3.644  13.117  0.1584  0.2691 -0.3124
 9755TIP3    H150756   6.083   3.683  13.135  0.2475 -0.1992  1.2334
 9755TIP3    H250757   6.188   3.672  13.028 -1.1805  1.1576 -0.3682
 9756TIP3   OH250758   1.502   3.401   4.184 -0.1368  0.4971  0.2414
 9756TIP3    H150759   1.443   3.337   4.225 -0.2398  0.6189  0.2841
 9756TIP3    H250760   1.535   3.453   4.257 -0.1733  0.5925  0.1895
 9757TIP3   OH250761   0.395   3.968   2.022 -0.2246 -0.6554  0.0575
 9757TIP3    H150762   0.320   3.983   1.965  1.0611 -0.2718 -1.5987
 9757TIP3    H250763   0.461   4.031   1.993  0.8286 -1.1242  1.3183
 9758TIP3   OH250764   3.030   5.039   2.489 -0.3279 -0.8356  0.0592
 9758TIP3    H150765   2.994   4.950   2.487 -1.2200 -0.5104  0.9931
 9758TIP3    H250766   3.045   5.061   2.397 -2.1669 -1.1375 -0.3534
 9759TIP3   OH250767   3.445   3.280  12.498 -0.3442 -0.5508  0.1332
 9759TIP3    H150768   3.535   3.272  12.531 -0.4456  2.1978  1.3300
 9759TIP3    H250769   3.391   3.270  12.576 -0.8418  1.3267  0.0712
 9760TIP3   OH250770   3.185   2.799  11.160 -0.1999  0.5429 -0.2614
 9760TIP3    H150771   3.178   2.711  11.122  2.9687  0.7277 -1.4852
 9760TIP3    H250772   3.275   2.826  11.144 -0.5480  3.3230  1.7203
 9761TIP3   OH250773   5.275   2.348   0.846 -0.6701  0.1030  0.1266
 9761TIP3    H150774   5.310   2.435   0.827  3.1019 -1.0960  0.6950
 9761TIP3    H250775   5.291   2.337   0.940 -1.4389 -1.0790  0.1289
 9762TIP3   OH250776   5.229   4.203  16.217  0.2950 -0.3243 -0.6852
 9762TIP3    H150777   5.144   4.238  16.243  0.7035  2.3687 -2.5013
 9762TIP3    H250778   5.291   4.250  16.273  0.6617 -1.4790 -0.1092
 9763TIP3   OH250779   1.547   5.635   3.556 -0.2626 -0.3163  0.0916
 9763TIP3    H150780   1.514   5.551   3.586  0.8446 -0.9526 -0.4164
 9763TIP3    H250781   1.620   5.654   3.615  0.4301 -0.4447 -0.6964
 9764TIP3   OH250782   5.886   1.930  16.773  0.2166 -0.3024  1.1299
 9764TIP3    H150783   5.973   1.911  16.807  0.3874 -0.0234  0.8542
 9764TIP3    H250784   5.883   2.025  16.765  1.3290 -0.4226 -2.5642
 9765TIP3   OH250785   5.549   2.980   4.322 -0.3956 -0.2579  0.2555
 9765TIP3    H150786   5.520   2.990   4.232 -0.2630  3.0204  0.4488
 9765TIP3    H250787   5.491   2.914   4.360 -2.7679  0.8127 -1.3219
 9766TIP3   OH250788   6.557   4.348   2.708  0.1143 -0.2574 -0.1765
 9766TIP3    H150789   6.560   4.376   2.617  0.4688  0.6384  0.0970
 9766TIP3    H250790   6.547   4.253   2.704 -1.4395 -0.0864 -1.1405
 9767TIP3   OH250791   1.004   1.287   3.632 -0.2031 -0.3109 -0.4442
 9767TIP3    H150792   0.994   1.201   3.591  0.2467 -0.3329 -0.5161
 9767TIP3    H250793   0.959   1.279   3.716 -0.5235 -0.4855 -0.6303
 9768TIP3   OH250794   5.752   4.577   1.956  0.2400 -0.3227 -0.3860
 9768TIP3    H150795   5.822   4.518   1.928  0.9118  1.1861 -2.0767
 9768TIP3    H250796   5.796   4.658   1.981 -0.7135 -0.2591  1.2587
 9769TIP3   OH250797   2.965   1.797   1.556 -0.0290  0.0408  0.0426
 9769TIP3    H150798   2.881   1.839   1.542 -0.8567 -1.5219  0.0590
 9769TIP3    H250799   2.984   1.811   1.649 -0.3198  0.3117  0.0609
 9770TIP3   OH250800   5.849   1.288  12.889  0.5821 -0.2781  0.2558
 9770TIP3    H150801   5.787   1.322  12.954 -0.2691 -1.9758  0.4081
 9770TIP3    H250802   5.799   1.283  12.808  0.9548 -0.3289  0.0273
 9771TIP3   OH250803   0.442   2.803   1.804 -0.2455 -0.1319 -0.0465
 9771TIP3    H150804   0.484   2.782   1.887  0.7453 -1.3610 -0.8381
 9771TIP3    H250805   0.466   2.732   1.745 -0.6747  0.8626 -1.4904
 9772TIP3   OH250806   3.835   1.883  12.392  0.1664  0.2243 -0.2127
 9772TIP3    H150807   3.897   1.955  12.398  0.6923 -0.3104  0.9775
 9772TIP3    H250808   3.865   1.819  12.457 -1.8604  0.1539  0.7410
 9773TIP3   OH250809   4.304   1.269   5.361  0.5263 -0.5132  0.3461
 9773TIP3    H150810   4.347   1.354   5.371 -0.6657 -0.0627  1.9955
 9773TIP3    H250811   4.302   1.233   5.450  0.0796 -1.8076 -0.1700
 9774TIP3   OH250812   5.448   2.391  16.191 -0.0643  0.3456  0.2483
 9774TIP3    H150813   5.489   2.360  16.271  1.7695 -0.4433 -0.9285
 9774TIP3    H250814   5.358   2.413  16.217  0.4810  0.1698  2.4957
 9775TIP3   OH250815   1.497   2.144  13.028 -0.7087  0.1234 -0.5337
 9775TIP3    H150816   1.429   2.207  13.050 -1.1804 -0.4778 -0.2378
 9775TIP3    H250817   1.482   2.070  13.086 -0.2382 -0.3182 -0.9554
 9776TIP3   OH250818   5.668   6.775  11.891  0.0457  0.0542 -0.3512
 9776TIP3    H150819   5.589   6.802  11.938  0.3126  0.8736 -0.3531
 9776TIP3    H250820   5.642   6.774  11.799 -0.5119 -1.6749 -0.1986
 9777TIP3   OH250821   4.485   6.169   0.217  0.2524 -0.0818 -0.6126
 9777TIP3    H150822   4.425   6.096   0.208  1.5933 -1.1373 -1.3399
 9777TIP3    H250823   4.564   6.131   0.257  0.5736  1.1843  0.0118
 9778TIP3   OH250824   0.842   1.790   0.842  0.0772  0.2414  0.1704
 9778TIP3    H150825   0.882   1.726   0.901 -0.7101  1.0066  1.5842
 9778TIP3    H250826   0.819   1.739   0.764  0.6666 -0.9087  0.7142
 9779TIP3   OH250827   0.601   3.491   5.617 -0.3304  0.5886 -0.5444
 9779TIP3    H150828   0.634   3.565   5.668  1.6805  0.3527 -1.4105
 9779TIP3    H250829   0.506   3.502   5.619 -0.2275  1.7464  1.4646
 9780TIP3   OH250830   0.278   6.522   5.761  0.0972  0.2578  0.6665
 9780TIP3    H150831   0.277   6.605   5.809 -0.5688  0.5839  0.0929
 9780TIP3    H250832   0.336   6.465   5.813  2.6609  1.8680 -0.2621
 9781TIP3   OH250833   2.199   6.349  16.306  0.0524  0.2586 -0.1004
 9781TIP3    H150834   2.274   6.348  16.246 -0.7015  1.6253 -1.1241
 9781TIP3    H250835   2.122   6.351  16.248 -0.8068 -1.4600  0.9245
 9782TIP3   OH250836   4.486   0.949  13.536  0.2377 -0.0887  0.3949
 9782TIP3    H150837   4.523   1.032  13.563 -1.6641  0.6538  0.8346
 9782TIP3    H250838   4.475   0.957  13.441  1.9193 -0.6589  0.1074
 9783TIP3   OH250839   6.211   1.448  15.121 -0.7959 -0.8758  0.3003
 9783TIP3    H150840   6.126   1.429  15.081 -1.3732  2.7803 -0.5222
 9783TIP3    H250841   6.218   1.543  15.119  3.3406 -1.0002  0.3951
 9784TIP3   OH250842   1.218   6.181   0.685 -0.0180 -0.4311 -0.4792
 9784TIP3    H150843   1.130   6.205   0.714  0.2771 -1.8074  1.7900
 9784TIP3    H250844   1.249   6.257   0.636 -1.4132  1.1945  1.0314
 9785TIP3   OH250845   0.973   1.553  16.676  0.0502  0.2235  0.5260
 9785TIP3    H150846   0.969   1.594  16.590 -0.6439  1.0256  0.9192
 9785TIP3    H250847   0.892   1.580  16.719 -0.0393 -0.9088  1.1099
 9786TIP3   OH250848   4.047   0.335   5.625  0.3101 -0.2071  0.1191
 9786TIP3    H150849   4.081   0.249   5.600 -0.0044 -0.6310  1.0819
 9786TIP3    H250850   4.075   0.345   5.716  1.5399  1.3288 -0.3911
 9787TIP3   OH250851   1.777   5.096  16.987 -0.1231  0.5026 -0.3106
 9787TIP3    H150852   1.782   5.000  16.989 -1.8446  0.3475 -1.5541
 9787TIP3    H250853   1.693   5.115  16.947  0.3947  2.5649 -0.5370
 9788TIP3   OH250854   3.412   2.963  12.242 -0.5312 -1.0783  0.1266
 9788TIP3    H150855   3.406   3.044  12.191  0.2919 -0.9055  0.2940
 9788TIP3    H250856   3.384   2.989  12.330  2.0526 -0.3381  0.8328
 9789TIP3   OH250857   0.187   1.875   4.412 -0.3750  0.7883  0.3014
 9789TIP3    H150858   0.208   1.968   4.404  0.2188  0.6227 -0.1057
 9789TIP3    H250859   0.150   1.851   4.327  1.6243  0.1187 -0.4163
 9790TIP3   OH250860   5.909   6.743   2.296  0.5219 -0.2438 -0.3555
 9790TIP3    H150861   5.959   6.672   2.253  0.6831 -0.1166 -0.3816
 9790TIP3    H250862   5.970   6.817   2.296  0.1702  0.0516 -0.8040
 9791TIP3   OH250863   6.753   4.994   4.780 -0.2697  0.0733 -0.1805
 9791TIP3    H150864   6.789   5.027   4.698 -0.9309  1.3814  0.0228
 9791TIP3    H250865   6.765   5.067   4.842  1.2021 -1.2610  1.1932
 9792TIP3   OH250866   2.132   2.480   3.665 -0.0439 -0.0512  0.0312
 9792TIP3    H150867   2.116   2.523   3.581  1.0937  1.4536  0.5477
 9792TIP3    H250868   2.095   2.392   3.654 -1.4303  0.6540 -1.4571
 9793TIP3   OH250869   2.297   0.087  12.476 -0.6099 -0.3809  0.3162
 9793TIP3    H150870   2.210   0.065  12.443 -0.9215 -0.2952  1.0665
 9793TIP3    H250871   2.340   0.133  12.403 -1.3937  0.0832  0.1444
 9794TIP3   OH250872   1.224   6.543  15.460 -0.6665  0.3925  0.4014
 9794TIP3    H150873   1.268   6.619  15.423  1.5333 -1.7439 -1.7797
 9794TIP3    H250874   1.241   6.548  15.554 -2.0958  3.3967  0.6008
 9795TIP3   OH250875   0.742   3.127  16.761 -0.0159  0.2622  0.0026
 9795TIP3    H150876   0.706   3.054  16.711 -0.2987  1.0387 -0.9534
 9795TIP3    H250877   0.831   3.137  16.729  0.2932 -0.1645  0.7076
 9796TIP3   OH250878   5.016   0.771   4.877 -0.5740  0.3708  0.6682
 9796TIP3    H150879   5.022   0.677   4.892 -0.9380  0.4325  1.2387
 9796TIP3    H250880   5.016   0.780   4.782 -1.9342 -0.3126  0.5751
 9797TIP3   OH250881   4.090   5.762   5.212 -0.1187 -0.4388  0.6564
 9797TIP3    H150882   4.155   5.768   5.281  0.9716 -0.2487 -0.3573
 9797TIP3    H250883   4.088   5.850   5.173 -1.3013 -0.3212  0.9470
 9798TIP3   OH250884   1.936   4.646   6.130 -0.4511 -0.4812 -0.2691
 9798TIP3    H150885   1.858   4.623   6.180 -2.8347  3.2209 -1.8410
 9798TIP3    H250886   1.970   4.724   6.173 -1.4221  1.6346 -3.0154
 9799TIP3   OH250887   3.728   6.210   3.086 -0.2288  0.7485  0.2670
 9799TIP3    H150888   3.674   6.192   3.009 -0.8372 -0.0542  0.8731
 9799TIP3    H250889   3.776   6.290   3.063  0.2837  0.0341 -1.3058
 9800TIP3   OH250890   4.813   3.138  16.621 -0.2302  0.5143 -0.2041
 9800TIP3    H150891   4.776   3.104  16.702 -2.2573 -0.9620 -1.6510
 9800TIP3    H250892   4.760   3.215  16.600 -1.3718 -0.5260 -1.3228
 9801TIP3   OH250893   5.022   6.118   6.290 -0.2750 -0.1324  0.1815
 9801TIP3    H150894   5.032   6.028   6.321  0.6667 -0.3377 -0.6491
 9801TIP3    H250895   5.097   6.132   6.232 -0.6818  1.0224 -0.1044
 9802TIP3   OH250896   2.651   0.145  16.568  0.3208 -0.0146 -0.3739
 9802TIP3    H150897   2.737   0.104  16.579 -0.0477 -1.0763 -1.3295
 9802TIP3    H250898   2.619   0.114  16.484 -1.6442 -0.8386  0.5976
 9803TIP3   OH250899   0.371   1.619   3.554 -0.1413 -0.0131  0.3151
 9803TIP3    H150900   0.341   1.661   3.635 -0.7254  0.3454 -0.0805
 9803TIP3    H250901   0.312   1.652   3.486 -0.6446 -1.5143 -0.0082
 9804TIP3   OH250902   1.573   1.390  13.158  0.0386 -0.3871 -0.4210
 9804TIP3    H150903   1.589   1.341  13.238 -3.5999 -0.7442  0.2697
 9804TIP3    H250904   1.515   1.334  13.106 -1.3750  1.6631 -1.1926
 9805TIP3   OH250905   5.471   1.074   2.083  0.7787  0.4422 -0.7759
 9805TIP3    H150906   5.396   1.055   2.026  0.3535  1.2493 -0.5013
 9805TIP3    H250907   5.544   1.029   2.041  0.2620  0.1344 -1.3798
 9806TIP3   OH250908   5.634   5.828   0.438 -0.1849 -0.3915 -0.4603
 9806TIP3    H150909   5.575   5.757   0.412  1.9699 -2.4021 -0.1244
 9806TIP3    H250910   5.674   5.857   0.355 -1.1554  0.5956 -0.6147
 9807TIP3   OH250911   5.902   2.301  15.792  0.3498  0.0791 -0.2574
 9807TIP3    H150912   5.922   2.309  15.698 -0.8758  1.3452 -0.4391
 9807TIP3    H250913   5.968   2.240  15.825  0.8352 -0.3651 -1.9352
 9808TIP3   OH250914   2.190   2.452  16.980 -0.4155 -0.2116 -0.5160
 9808TIP3    H150915   2.155   2.479  16.895 -0.0658 -0.4462 -0.7349
 9808TIP3    H250916   2.220   2.362  16.966 -0.4943 -0.3045 -0.1037
 9809TIP3   OH250917   4.128   5.430  15.833  0.0619  0.0337 -0.1862
 9809TIP3    H150918   4.182   5.392  15.902  1.6991  0.7499 -1.0272
 9809TIP3    H250919   4.038   5.413  15.861  0.7075 -1.8135  0.9051
 9810TIP3   OH250920   0.537   3.126   2.453  0.2886  0.1910  0.3683
 9810TIP3    H150921   0.543   3.108   2.359  1.1499 -0.4759  0.5475
 9810TIP3    H250922   0.624   3.108   2.487 -0.4371 -1.2227  1.5826
 9811TIP3   OH250923   6.046   2.323  15.553 -0.1252 -0.0722  0.5925
 9811TIP3    H150924   6.099   2.376  15.613 -1.4863  1.7724  0.2499
 9811TIP3    H250925   6.089   2.333  15.468 -0.7505  1.1280  0.3879
 9812TIP3   OH250926   6.555   0.917   1.785  0.2381  0.0379  0.2239
 9812TIP3    H150927   6.519   0.842   1.831 -0.4017  0.0962 -0.1713
 9812TIP3    H250928   6.525   0.993   1.834  0.9879  0.0419  0.6959
 9813TIP3   OH250929   0.686   5.239  12.528 -0.1037  0.2931 -0.0996
 9813TIP3    H150930   0.738   5.183  12.472  1.3727 -0.3473  1.7975
 9813TIP3    H250931   0.622   5.180  12.569  0.2742  0.3074  0.5311
 9814TIP3   OH250932   3.890   1.374   1.857 -0.0904 -0.6171 -0.4743
 9814TIP3    H150933   3.851   1.361   1.771 -1.3525  0.7280 -0.1607
 9814TIP3    H250934   3.909   1.285   1.889 -1.6212 -1.2620 -1.2542
 9815TIP3   OH250935   0.217   0.883   2.049  0.1599  0.1809 -0.0746
 9815TIP3    H150936   0.263   0.918   1.973 -0.9366  1.0144 -0.3941
 9815TIP3    H250937   0.280   0.889   2.120  1.3680 -1.0494 -0.9885
 9816TIP3   OH250938   4.643   3.190   0.383  0.0824  0.4763  0.4390
 9816TIP3    H150939   4.573   3.184   0.318  0.2073 -1.1914  0.4183
 9816TIP3    H250940   4.612   3.255   0.446 -2.0865 -1.0830  1.0998
 9817TIP3   OH250941   5.629   2.078  12.800  0.6843 -0.0757 -0.0792
 9817TIP3    H150942   5.671   2.157  12.834  2.6522 -1.2821  0.4345
 9817TIP3    H250943   5.620   2.094  12.706  1.3345  0.6387 -0.0302
 9818TIP3   OH250944   6.257   5.977   4.892 -0.4365 -0.6569  0.2673
 9818TIP3    H150945   6.184   5.955   4.835 -1.4474 -1.2795  1.7521
 9818TIP3    H250946   6.253   6.072   4.902  0.9826 -0.2290 -2.2337
 9819TIP3   OH250947   0.982   5.011  12.763  0.7025  0.3528 -0.7570
 9819TIP3    H150948   0.989   5.106  12.752  2.4224  0.2287 -1.0563
 9819TIP3    H250949   0.974   4.977  12.673  0.6358  0.1864 -0.6885
 9820TIP3   OH250950   0.470   6.305  15.193  0.0415  0.4231 -0.2837
 9820TIP3    H150951   0.413   6.251  15.138  0.8316  0.5995 -1.3133
 9820TIP3    H250952   0.422   6.315  15.275 -1.0886 -0.0154 -0.8692
 9821TIP3   OH250953   4.528   0.779  12.235  0.4896 -0.8034 -0.4998
 9821TIP3    H150954   4.445   0.817  12.265  0.2966 -1.6454  0.0749
 9821TIP3    H250955   4.565   0.845  12.177 -1.1696 -0.9126 -1.7594
 9822TIP3   OH250956   1.939   0.226   1.709 -0.1340 -0.5904  0.1015
 9822TIP3    H150957   2.000   0.153   1.716  0.7496  0.1597  0.5893
 9822TIP3    H250958   1.858   0.188   1.676  0.1581 -1.8640  0.7978
 9823TIP3   OH250959   2.800   1.178  12.751  0.4261  0.1037 -0.3429
 9823TIP3    H150960   2.801   1.165  12.846 -0.0391  3.5758  0.2635
 9823TIP3    H250961   2.750   1.104  12.718  1.6400 -1.9028  1.9252
 9824TIP3   OH250962   3.538   2.470  14.701 -0.1567  0.3858  0.8896
 9824TIP3    H150963   3.551   2.377  14.681  0.1923  0.4670  0.7407
 9824TIP3    H250964   3.616   2.496  14.748  0.7207  1.1181 -0.8834
 9825TIP3   OH250965   4.970   2.694  10.981 -0.1319  0.5214 -0.1009
 9825TIP3    H150966   5.047   2.710  10.927 -1.1849  1.1154 -1.4677
 9825TIP3    H250967   4.900   2.673  10.919 -0.9259 -0.6905  1.1494
 9826TIP3   OH250968   2.954   6.504   4.721 -0.1888  0.1364 -0.3333
 9826TIP3    H150969   3.008   6.430   4.750 -1.5436 -1.2327 -1.1842
 9826TIP3    H250970   2.989   6.526   4.635  2.0594  2.4332  1.0136
 9827TIP3   OH250971   5.638   2.621   4.462  0.3984 -0.3293 -0.0783
 9827TIP3    H150972   5.642   2.712   4.492  0.9079 -0.6126  0.7612
 9827TIP3    H250973   5.727   2.588   4.476  0.7636 -0.3963 -2.2481
 9828TIP3   OH250974   5.008   3.015  14.915  0.2789 -0.2850  0.0631
 9828TIP3    H150975   5.079   3.078  14.920  1.0039 -1.1716  1.7292
 9828TIP3    H250976   4.957   3.029  14.995  0.1209 -1.4068  0.1805
 9829TIP3   OH250977   1.139   5.887   4.851  0.6739 -0.0623 -0.1974
 9829TIP3    H150978   1.072   5.848   4.907  0.4545 -0.3422 -0.6522
 9829TIP3    H250979   1.215   5.830   4.863  1.0194  0.5647  0.7406
 9830TIP3   OH250980   2.344   5.052   2.431 -0.3938  0.0949 -0.4465
 9830TIP3    H150981   2.265   5.057   2.486  0.1777  0.9052  0.3192
 9830TIP3    H250982   2.338   5.129   2.374 -0.6356 -0.3743 -1.0721
 9831TIP3   OH250983   2.615   2.198   1.296  0.3835  0.1550 -0.6485
 9831TIP3    H150984   2.543   2.210   1.357  2.1233 -3.8988  2.7197
 9831TIP3    H250985   2.667   2.278   1.302 -0.2486  0.4294  2.2395
 9832TIP3   OH250986   2.928   5.857  13.525 -0.0263 -0.1794  0.3413
 9832TIP3    H150987   2.859   5.852  13.459  3.1172 -1.0791 -3.3055
 9832TIP3    H250988   2.955   5.766  13.538  2.0464  0.2599 -0.3918
 9833TIP3   OH250989   1.336   1.062   2.142  0.2741  0.2359 -0.3536
 9833TIP3    H150990   1.369   0.972   2.147 -0.3190  0.0226 -0.0553
 9833TIP3    H250991   1.280   1.063   2.064  0.3871  0.3813 -0.4330
 9834TIP3   OH250992   0.889   0.364  17.023 -0.0476 -0.1341  0.5169
 9834TIP3    H150993   0.924   0.437  16.972  0.9346 -0.5130  0.6336
 9834TIP3    H250994   0.838   0.313  16.959 -3.5667  2.3442  1.0576
 9835TIP3   OH250995   0.601   5.542  16.297  0.1596  0.0865 -0.2722
 9835TIP3    H150996   0.583   5.491  16.218  3.3149 -0.8827 -0.5022
 9835TIP3    H250997   0.607   5.633  16.265 -3.1315  0.4104 -0.2563
 9836TIP3   OH250998   5.265   0.452  12.862 -0.2172 -0.1745  0.1799
 9836TIP3    H150999   5.290   0.405  12.782 -0.3352 -0.4115  0.2814
 9836TIP3    H251000   5.194   0.510  12.834 -0.4997 -0.5164  0.1880
 9837TIP3   OH251001   2.341   3.738  12.434  0.3265 -0.0932 -0.3734
 9837TIP3    H151002   2.411   3.760  12.373  2.6038 -1.9833  1.4038
 9837TIP3    H251003   2.375   3.665  12.485 -2.6002 -0.4766  1.2372
 9838TIP3   OH251004   6.765   3.637   2.521  0.1724 -0.0408 -0.4805
 9838TIP3    H151005   6.839   3.694   2.545  0.8764 -1.1960  0.2206
 9838TIP3    H251006   6.687   3.689   2.539  0.8036  1.4600 -1.8826
 9839TIP3   OH251007   5.518   2.990  12.462 -0.2416 -0.8148  0.0680
 9839TIP3    H151008   5.454   2.957  12.399  0.5276 -0.7753 -0.7451
 9839TIP3    H251009   5.497   3.083  12.470 -0.0570 -0.7236 -0.4784
 9840TIP3   OH251010   2.913   4.754   5.603  0.2371 -0.0424  0.6776
 9840TIP3    H151011   2.984   4.733   5.543 -0.0803 -0.8307  0.5769
 9840TIP3    H251012   2.903   4.677   5.658  0.0323  0.3916  1.2678
 9841TIP3   OH251013   3.176   6.786  16.781  0.3947  0.2127  0.1067
 9841TIP3    H151014   3.247   6.812  16.721  0.6708  0.8607  0.7035
 9841TIP3    H251015   3.142   6.705  16.743  0.9576  0.2931 -0.6049
 9842TIP3   OH251016   0.182   0.343   0.720 -0.3810 -0.2776 -0.1252
 9842TIP3    H151017   0.126   0.281   0.767 -1.7357  1.2807  0.4260
 9842TIP3    H251018   0.123   0.414   0.695  0.8198  0.1504 -1.9875
 9843TIP3   OH251019   4.587   3.075   6.221  0.3557  0.0720 -0.4344
 9843TIP3    H151020   4.631   3.104   6.301  0.7898  0.8086 -0.9329
 9843TIP3    H251021   4.638   3.000   6.191 -0.3565 -0.8127  0.4742
 9844TIP3   OH251022   3.290   4.419   3.794  0.3822 -0.0715 -0.3602
 9844TIP3    H151023   3.300   4.366   3.715  1.4122  1.9517 -1.6522
 9844TIP3    H251024   3.235   4.366   3.851 -0.1126 -1.7495 -2.2860
 9845TIP3   OH251025   6.597   2.754   4.741  0.5043 -0.4900 -0.3442
 9845TIP3    H151026   6.535   2.788   4.677 -0.8128  0.0720  1.1606
 9845TIP3    H251027   6.661   2.705   4.689 -0.1095  0.5139 -2.1299
 9846TIP3   OH251028   5.534   3.229  10.988 -0.5014  0.0243 -0.2287
 9846TIP3    H151029   5.614   3.177  10.994  0.1313  0.8443 -1.2719
 9846TIP3    H251030   5.549   3.304  11.045 -1.1618 -0.5752  0.7738
 9847TIP3   OH251031   3.550   1.086   3.454 -0.1085 -0.0673 -0.1242
 9847TIP3    H151032   3.506   1.002   3.464  0.3865 -0.7292 -2.6972
 9847TIP3    H251033   3.643   1.067   3.469 -0.1000  0.2393  0.2378
 9848TIP3   OH251034   3.440   6.124   3.136  0.2596  0.5648  0.6801
 9848TIP3    H151035   3.417   6.207   3.176  0.8863  0.2996  1.6338
 9848TIP3    H251036   3.431   6.060   3.207 -2.1110 -0.5175 -0.5050
 9849TIP3   OH251037   6.723   1.069  17.113  0.3886  0.3237  0.1329
 9849TIP3    H151038   6.675   1.086  17.194 -0.7106 -1.8902  0.0207
 9849TIP3    H251039   6.807   1.113  17.125 -0.4147  1.5336  1.7177
 9850TIP3   OH251040   1.252   3.347  11.932  0.1307  0.3387 -0.4219
 9850TIP3    H151041   1.272   3.438  11.955 -0.8050  0.2979  0.6989
 9850TIP3    H251042   1.266   3.341  11.838 -1.0514  2.0076 -0.7473
 9851TIP3   OH251043   5.496   4.013  15.847  0.1252 -0.1094 -0.2553
 9851TIP3    H151044   5.470   3.983  15.760 -1.7320  0.9012 -0.1212
 9851TIP3    H251045   5.544   3.940  15.885 -2.6327 -2.2263 -0.5757
 9852TIP3   OH251046   3.044   4.716   4.943  0.6825  0.0743  0.6957
 9852TIP3    H151047   3.128   4.720   4.897  0.0305 -0.7093 -0.6541
 9852TIP3    H251048   3.032   4.623   4.962 -0.3143  0.0496 -0.0032
 9853TIP3   OH251049   3.828   4.204  15.637  0.3506 -0.0598 -0.6061
 9853TIP3    H151050   3.801   4.289  15.603 -0.6733  0.9696  2.5236
 9853TIP3    H251051   3.750   4.149  15.629 -0.7315  0.9205  2.1419
 9854TIP3   OH251052   3.820   4.584   4.974  0.4152 -0.1506  0.2258
 9854TIP3    H151053   3.792   4.670   4.944  0.9985 -0.6733 -2.0524
 9854TIP3    H251054   3.770   4.522   4.919  0.7548 -1.2362  1.0988
 9855TIP3   OH251055   1.085   5.991  13.347  0.2370  0.5051 -0.2830
 9855TIP3    H151056   0.991   5.978  13.332 -0.0477  2.1331 -0.1162
 9855TIP3    H251057   1.092   6.012  13.440  0.6857  1.0455 -0.4351
 9856TIP3   OH251058   4.561   3.122  16.106  0.0415  0.0212 -0.4195
 9856TIP3    H151059   4.642   3.105  16.154  0.2632  0.5491 -0.5997
 9856TIP3    H251060   4.566   3.066  16.029  1.1000  1.3912 -1.3882
 9857TIP3   OH251061   6.380   5.775  15.911  0.1786  0.4385 -0.2259
 9857TIP3    H151062   6.288   5.766  15.934 -0.7665 -0.2709 -3.6359
 9857TIP3    H251063   6.417   5.688  15.926  0.0505  0.4715  0.2802
 9858TIP3   OH251064   3.804   4.073   1.883 -0.3015  0.1935  0.2381
 9858TIP3    H151065   3.900   4.067   1.885  0.1932  3.9747 -2.0424
 9858TIP3    H251066   3.776   3.993   1.839  1.8216 -0.7848  0.5186
 9859TIP3   OH251067   1.128   3.731   3.350  0.1094  0.4603  0.2545
 9859TIP3    H151068   1.221   3.732   3.327  0.0098  0.0684 -0.1928
 9859TIP3    H251069   1.095   3.817   3.324  1.4029  2.7723  5.1029
 9860TIP3   OH251070   2.604   6.670  11.179  0.0570  0.1312 -0.1742
 9860TIP3    H151071   2.653   6.665  11.097 -1.6250 -0.7689 -1.1711
 9860TIP3    H251072   2.514   6.690  11.152 -0.1612  1.9310  1.6015
 9861TIP3   OH251073   2.070   6.703   5.256 -0.2932 -0.1000 -0.0489
 9861TIP3    H151074   2.104   6.622   5.217 -2.9648 -1.2021 -0.3161
 9861TIP3    H251075   1.983   6.712   5.218 -1.3782  1.0677  2.5253
 9862TIP3   OH251076   2.628   5.640  14.395 -0.2598 -0.6674  0.4115
 9862TIP3    H151077   2.632   5.570  14.461 -0.1628 -0.4223  0.6670
 9862TIP3    H251078   2.551   5.619  14.342 -0.9795 -0.2788  1.2714
 9863TIP3   OH251079   0.605   5.786  13.622 -0.6741 -0.7169  0.2025
 9863TIP3    H151080   0.542   5.846  13.582 -0.0591  1.6575  2.5173
 9863TIP3    H251081   0.685   5.797  13.570 -0.5202  0.6900  0.6821
 9864TIP3   OH251082   5.622   3.678   0.275 -0.4237  0.1259  0.2031
 9864TIP3    H151083   5.705   3.657   0.232 -0.5885  0.3746 -0.2482
 9864TIP3    H251084   5.576   3.594   0.280 -1.5106  0.4504 -2.5049
 9865TIP3   OH251085   2.419   5.793  12.828  0.5584 -0.2927  0.2007
 9865TIP3    H151086   2.406   5.756  12.915  0.1587  1.0891  0.7599
 9865TIP3    H251087   2.338   5.840  12.809  1.4515  1.2813  0.0608
 9866TIP3   OH251088   0.414   0.711  14.126  0.1118 -0.1706  0.5126
 9866TIP3    H151089   0.344   0.776  14.120  1.5282  1.3491 -0.6235
 9866TIP3    H251090   0.484   0.746  14.069  2.2287 -1.0543  2.4188
 9867TIP3   OH251091   1.856   4.000   1.030  0.1098  0.0482 -0.6035
 9867TIP3    H151092   1.879   4.077   1.083  0.1118  0.3102 -0.9795
 9867TIP3    H251093   1.783   4.030   0.976  0.9779  0.2057 -1.7309
 9868TIP3   OH251094   1.860   1.278   1.818  0.3379 -0.0315  0.2296
 9868TIP3    H151095   1.785   1.323   1.778  1.7770  2.8628  0.5333
 9868TIP3    H251096   1.903   1.234   1.745  0.8019  2.0512 -0.8415
 9869TIP3   OH251097   1.060   6.494  12.893 -0.2077 -0.1630 -0.6794
 9869TIP3    H151098   1.007   6.543  12.829  0.6156  0.4993 -0.8727
 9869TIP3    H251099   1.070   6.407  12.854 -1.5115 -0.4555 -0.4325
 9870TIP3   OH251100   4.701   3.604  13.583 -0.1088 -0.3962 -0.0240
 9870TIP3    H151101   4.748   3.588  13.665  0.8107 -0.1740 -0.4839
 9870TIP3    H251102   4.625   3.547  13.587 -1.1012  0.9534  1.7937
 9871TIP3   OH251103   0.203   3.075  14.020  0.3019 -0.2489 -0.1790
 9871TIP3    H151104   0.255   3.054  14.098  0.8632 -0.7833 -0.6908
 9871TIP3    H251105   0.159   2.993  13.997 -0.2928  0.0450 -0.1108
 9872TIP3   OH251106   3.449   3.582   3.315  0.3334  0.4680  0.0984
 9872TIP3    H151107   3.496   3.503   3.341  0.2462 -0.3527 -2.0173
 9872TIP3    H251108   3.437   3.631   3.396  0.4246 -1.6726  1.4824
 9873TIP3   OH251109   6.553   4.636   3.095  0.1232 -0.5685  0.1192
 9873TIP3    H151110   6.582   4.578   3.024  0.9227  0.7011 -0.6139
 9873TIP3    H251111   6.458   4.640   3.085  0.1828 -0.7845 -0.5823
 9874TIP3   OH251112   5.943   6.433  16.912  0.6069  0.4216  0.0132
 9874TIP3    H151113   5.861   6.384  16.899 -0.3567  1.9850 -0.0650
 9874TIP3    H251114   5.992   6.381  16.975 -1.1179  0.1748  1.2292
 9875TIP3   OH251115   5.126   5.104   1.306 -0.1413 -0.1137  0.3383
 9875TIP3    H151116   5.071   5.117   1.383  1.4628  1.0241  1.3524
 9875TIP3    H251117   5.215   5.118   1.337  0.7695 -1.9991 -1.2275
 9876TIP3   OH251118   4.170   5.643   3.114 -0.0388 -0.4672  0.3402
 9876TIP3    H151119   4.155   5.549   3.106  2.0605 -0.8110 -0.2384
 9876TIP3    H251120   4.171   5.660   3.208  0.1808 -1.1426  0.4624
 9877TIP3   OH251121   5.554   2.497  14.617 -0.2011 -0.0263  0.0195
 9877TIP3    H151122   5.514   2.414  14.590  0.0224 -0.9218  2.1598
 9877TIP3    H251123   5.505   2.564  14.571 -1.1980 -1.2913 -0.8401
 9878TIP3   OH251124   4.273   0.880  12.265 -0.3271 -0.7077  0.5004
 9878TIP3    H151125   4.248   0.880  12.357 -1.7238 -0.1684  0.1520
 9878TIP3    H251126   4.215   0.946  12.224 -0.4764 -1.6702 -0.9357
 9879TIP3   OH251127   0.824   2.332  14.791 -0.6195 -0.4946 -0.3953
 9879TIP3    H151128   0.759   2.391  14.751 -0.7337 -0.1517  0.2777
 9879TIP3    H251129   0.800   2.329  14.883 -0.1237 -0.9656 -0.2754
 9880TIP3   OH251130   6.307   5.265   3.780 -0.2437 -0.1164 -0.1274
 9880TIP3    H151131   6.343   5.283   3.867  0.9319 -0.2966 -0.5601
 9880TIP3    H251132   6.264   5.180   3.789  2.1946 -1.4494 -0.3445
 9881TIP3   OH251133   3.604   0.415   2.398  0.0986 -0.1889  0.3524
 9881TIP3    H151134   3.582   0.434   2.489  0.2561  0.1109  0.3323
 9881TIP3    H251135   3.537   0.461   2.347 -0.0628 -0.4594  0.3183
 9882TIP3   OH251136   0.804   3.729  14.203  0.6128  0.4104 -0.1366
 9882TIP3    H151137   0.732   3.790  14.187  1.8973  1.5712 -1.8980
 9882TIP3    H251138   0.768   3.643  14.181 -0.7591  0.6921  0.8428
 9883TIP3   OH251139   0.589   5.776   2.080 -0.4036  0.0709 -0.0377
 9883TIP3    H151140   0.557   5.742   1.996  0.3226 -0.3134 -0.1613
 9883TIP3    H251141   0.582   5.702   2.140  1.0645 -0.2811 -0.2781
 9884TIP3   OH251142   6.578   5.924  15.701 -0.7242  0.7241  0.2460
 9884TIP3    H151143   6.570   5.944  15.794  1.3373  0.5147  0.4952
 9884TIP3    H251144   6.603   6.007  15.661  0.5605  0.3365  0.2172
 9885TIP3   OH251145   2.280   4.264  11.602 -0.2235  0.1664  0.2457
 9885TIP3    H151146   2.249   4.185  11.557 -0.4084  0.1449  0.4124
 9885TIP3    H251147   2.361   4.287  11.556 -0.1000 -0.1947  0.2815
 9886TIP3   OH251148   0.204   3.140  17.148 -0.4532 -0.2454  0.1743
 9886TIP3    H151149   0.197   3.231  17.117  1.3460 -0.2792 -0.4312
 9886TIP3    H251150   0.132   3.095  17.104 -0.3712  0.5531 -0.8334
 9887TIP3   OH251151   1.203   4.556   0.796  0.5668 -0.1538  0.0578
 9887TIP3    H151152   1.184   4.569   0.703  0.1174 -0.2163  0.1349
 9887TIP3    H251153   1.298   4.551   0.802  0.5556 -1.1260 -0.5264
 9888TIP3   OH251154   6.738   3.264   3.955  0.1173 -0.1765  0.2762
 9888TIP3    H151155   6.664   3.321   3.932 -0.3944 -0.9383 -0.0287
 9888TIP3    H251156   6.718   3.235   4.044  0.3448  0.0756  0.4080
 9889TIP3   OH251157   6.202   1.038  15.115 -0.5458  0.2642 -0.6526
 9889TIP3    H151158   6.168   1.006  15.199  0.5621  0.1973 -0.2143
 9889TIP3    H251159   6.124   1.049  15.061 -1.3394  0.8203  0.5555
 9890TIP3   OH251160   4.077   3.841  11.463 -0.0087 -0.3115  0.3016
 9890TIP3    H151161   3.988   3.808  11.448 -0.0851 -1.5849  2.9708
 9890TIP3    H251162   4.126   3.813  11.386 -1.0305 -3.2658  0.5953
 9891TIP3   OH251163   1.942   0.181   0.382  0.4064 -0.0510 -0.1535
 9891TIP3    H151164   1.936   0.086   0.378 -1.1829 -0.0442  1.1037
 9891TIP3    H251165   1.972   0.199   0.471 -3.2647  0.6633  1.1075
 9892TIP3   OH251166   5.457   3.870   4.013  0.3955  0.4223 -0.3196
 9892TIP3    H151167   5.422   3.951   3.978  1.3229  0.7447 -0.5286
 9892TIP3    H251168   5.396   3.844   4.082 -0.7125  0.4988 -1.2640
 9893TIP3   OH251169   1.061   2.083  15.176  0.1019 -0.2000  0.2964
 9893TIP3    H151170   1.080   2.141  15.249 -0.1383 -0.1982  0.3552
 9893TIP3    H251171   1.043   2.142  15.102  0.4548 -0.2017  0.2045
 9894TIP3   OH251172   4.775   5.270   5.244 -0.3051  0.1242 -0.0319
 9894TIP3    H151173   4.679   5.263   5.250 -0.3124  0.0331 -0.2797
 9894TIP3    H251174   4.798   5.332   5.314 -0.4471 -0.6555  0.7220
 9895TIP3   OH251175   3.039   5.023   3.878 -0.0865  0.4548  0.2003
 9895TIP3    H151176   2.987   5.072   3.942 -0.7180 -0.1926  0.2008
 9895TIP3    H251177   2.974   4.977   3.825  0.4963 -0.8561  0.5962
 9896TIP3   OH251178   0.250   1.593  14.789  1.1397  0.1716  0.1274
 9896TIP3    H151179   0.188   1.544  14.843  0.4160  0.6155 -0.2853
 9896TIP3    H251180   0.260   1.677  14.834  1.6488  0.0024  0.3344
 9897TIP3   OH251181   6.535   2.759  12.714 -0.3095  0.0169 -0.1042
 9897TIP3    H151182   6.531   2.852  12.689  1.2545  0.3446  0.7935
 9897TIP3    H251183   6.443   2.735  12.729 -0.6918  1.5816  0.2478
 9898TIP3   OH251184   5.370   4.994   1.166  0.0426  0.2992 -0.3237
 9898TIP3    H151185   5.281   5.027   1.156  0.5695  1.7644 -0.4919
 9898TIP3    H251186   5.412   5.011   1.082 -0.1535 -2.5921 -1.0779
 9899TIP3   OH251187   1.202   4.243  12.015 -0.3450 -0.0437  0.4814
 9899TIP3    H151188   1.281   4.191  12.002 -0.1299 -0.1781  2.1984
 9899TIP3    H251189   1.156   4.200  12.086 -0.6825  1.5070  1.2326
 9900TIP3   OH251190   6.327   2.719  13.684  0.0183  0.1073  0.8259
 9900TIP3    H151191   6.394   2.713  13.752 -0.7529  0.8825  1.6807
 9900TIP3    H251192   6.293   2.808  13.691 -1.5020 -0.4444  0.7992
 9901TIP3   OH251193   6.580   0.880  16.719 -0.0769  0.7995 -0.4595
 9901TIP3    H151194   6.558   0.880  16.812  0.2197 -0.8194 -0.3492
 9901TIP3    H251195   6.506   0.922  16.677  0.3335  2.6756  0.5877
 9902TIP3   OH251196   6.324   5.481   4.020 -0.1446  0.1940  0.5190
 9902TIP3    H151197   6.319   5.570   3.985 -0.4385  0.8936  2.2464
 9902TIP3    H251198   6.249   5.474   4.079 -1.8060 -2.1907 -1.6348
 9903TIP3   OH251199   6.334   2.434  11.932 -0.5069  1.1571 -0.0204
 9903TIP3    H151200   6.239   2.433  11.943 -0.7910  0.2286 -2.1241
 9903TIP3    H251201   6.368   2.388  12.009 -1.8294  0.4391  0.1582
 9904TIP3   OH251202   2.461   4.693   4.886  0.6465 -0.8167  0.2206
 9904TIP3    H151203   2.458   4.778   4.929  1.2616 -1.2602  1.1554
 9904TIP3    H251204   2.538   4.697   4.829 -0.3452 -0.1165 -1.1370
 9905TIP3   OH251205   2.379   2.922   3.917  0.1995  0.3647  0.6731
 9905TIP3    H151206   2.346   2.989   3.857  1.6937  0.6838  0.1769
 9905TIP3    H251207   2.312   2.854   3.915  0.0657  0.4993 -1.1524
 9906TIP3   OH251208   2.808   5.843   4.295 -0.1280 -1.0785  0.2580
 9906TIP3    H151209   2.723   5.883   4.274  1.5855  2.6105 -0.3830
 9906TIP3    H251210   2.818   5.857   4.389 -0.4187 -2.0678  0.4530
 9907TIP3   OH251211   4.124   1.401  14.381  0.3673  0.7400 -0.4256
 9907TIP3    H151212   4.169   1.332  14.430 -0.1125  0.7420  0.0168
 9907TIP3    H251213   4.191   1.468  14.369  0.8308  0.2240 -0.8281
 9908TIP3   OH251214   1.347   2.231   3.164  0.3386 -0.1508  0.7474
 9908TIP3    H151215   1.276   2.176   3.130  0.4336 -1.1037  2.0263
 9908TIP3    H251216   1.303   2.297   3.217  0.2388  0.9455 -0.6426
 9909TIP3   OH251217   3.722   5.152   2.441  0.0114  0.4374  0.0629
 9909TIP3    H151218   3.806   5.168   2.398  1.4404  0.2337  2.6079
 9909TIP3    H251219   3.702   5.235   2.485 -1.3911  0.6201 -0.8292
 9910TIP3   OH251220   4.129   1.315   0.263  0.2048  0.1301 -0.3214
 9910TIP3    H151221   4.148   1.409   0.265  3.1699 -0.2756 -2.6193
 9910TIP3    H251222   4.171   1.284   0.183  0.2501 -3.3771  0.9079
 9911TIP3   OH251223   4.558   4.270   6.665 -0.5213 -0.3034 -0.0209
 9911TIP3    H151224   4.485   4.264   6.604 -0.4932  0.5916 -0.1555
 9911TIP3    H251225   4.527   4.225   6.744 -0.8404 -0.7964 -0.4253
 9912TIP3   OH251226   3.882   6.391  16.617  0.1052 -0.1077 -0.4420
 9912TIP3    H151227   3.825   6.462  16.647  0.0516 -0.5768  0.6092
 9912TIP3    H251228   3.908   6.417  16.528 -1.1744  0.4557 -0.6755
 9913TIP3   OH251229   0.733   0.078   2.688 -0.5209  0.2297  0.2527
 9913TIP3    H151230   0.771   0.033   2.763 -0.8439 -1.4444 -0.5187
 9913TIP3    H251231   0.805   0.086   2.626 -0.1420  2.0248  0.8862
 9914TIP3   OH251232   1.178   5.972   2.570  0.0324  0.3026 -0.0172
 9914TIP3    H151233   1.120   5.902   2.600  0.3579  0.1354  0.2241
 9914TIP3    H251234   1.257   5.927   2.542  1.4225  0.7397  2.8188
 9915TIP3   OH251235   1.967   1.595  17.359  0.0641 -0.2358  0.0617
 9915TIP3    H151236   2.050   1.606  17.405  0.6812  0.2302 -1.1068
 9915TIP3    H251237   1.934   1.684  17.346 -0.3787 -0.3915  0.0857
 9916TIP3   OH251238   5.516   4.313   3.674  0.3152 -0.0935 -0.3260
 9916TIP3    H151239   5.437   4.343   3.629 -0.9284 -0.5381  1.4538
 9916TIP3    H251240   5.576   4.387   3.671 -1.1022  1.1203  0.3293
 9917TIP3   OH251241   2.116   2.491   4.422 -0.0600 -0.0891  0.5581
 9917TIP3    H151242   2.188   2.510   4.362 -0.3637  0.5317  0.3772
 9917TIP3    H251243   2.105   2.571   4.473 -0.6126 -0.1774  0.5900
 9918TIP3   OH251244   5.981   6.372   1.882  0.0437 -0.1288  0.6756
 9918TIP3    H151245   6.037   6.320   1.824 -1.9414 -1.7145  0.0607
 9918TIP3    H251246   6.008   6.346   1.970  1.1252  0.1269  0.4390
 9919TIP3   OH251247   1.846   1.869   0.458  0.3013  0.6459  0.2025
 9919TIP3    H151248   1.883   1.801   0.402 -1.0567  0.3048 -0.3086
 9919TIP3    H251249   1.858   1.836   0.547  0.4317  0.1484  0.0001
 9920TIP3   OH251250   4.365   0.325   0.955  0.1617  0.1390  0.0897
 9920TIP3    H151251   4.417   0.351   1.031  0.0148 -0.1400  0.2906
 9920TIP3    H251252   4.327   0.406   0.922 -0.8899  0.1011  1.1508
 9921TIP3   OH251253   6.077   2.604   2.923 -0.1837 -0.2355  0.6242
 9921TIP3    H151254   6.152   2.586   2.866  0.4883  2.4158  0.5388
 9921TIP3    H251255   6.001   2.586   2.868  0.4147 -0.7805 -0.0490
 9922TIP3   OH251256   1.493   2.804   5.088  0.1596  0.0845 -0.4416
 9922TIP3    H151257   1.473   2.819   5.180  0.1233  0.0667 -0.4468
 9922TIP3    H251258   1.489   2.709   5.077  3.3622 -0.2596  0.2798
 9923TIP3   OH251259   0.029   0.674  11.332  0.1492 -0.4376 -0.0438
 9923TIP3    H151260   0.042   0.729  11.409 -2.3677  0.1651  0.0347
 9923TIP3    H251261   0.079   0.717  11.262 -0.8818  1.3652  0.2904
 9924TIP3   OH251262   0.953   0.057  17.401  0.2965  0.2389 -0.3014
 9924TIP3    H151263   0.999   0.032  17.481 -0.2419 -0.2078 -0.1178
 9924TIP3    H251264   0.860   0.058  17.427 -0.0795 -1.7345 -1.3412
 9925TIP3   OH251265   3.929   6.452  13.913  0.6129 -0.2080 -0.2982
 9925TIP3    H151266   3.911   6.538  13.950  1.2301 -0.2139  0.0231
 9925TIP3    H251267   3.942   6.396  13.989  0.3056 -0.5669 -0.5083
 9926TIP3   OH251268   0.777   3.368   2.899  0.1445 -0.9708 -0.0347
 9926TIP3    H151269   0.736   3.369   2.986 -0.3813 -1.5827 -0.2740
 9926TIP3    H251270   0.705   3.351   2.839  0.2984  0.5675 -0.7157
 9927TIP3   OH251271   0.245   4.864  14.057  0.4494 -0.2704 -0.0451
 9927TIP3    H151272   0.242   4.953  14.091  1.3328 -0.0447 -0.5289
 9927TIP3    H251273   0.265   4.810  14.134 -2.7474 -0.4392  0.8281
 9928TIP3   OH251274   3.643   5.152  17.123 -0.0191  0.6580 -0.1929
 9928TIP3    H151275   3.668   5.222  17.062 -1.7257  0.5809 -1.0291
 9928TIP3    H251276   3.571   5.188  17.173 -0.5004 -0.2692 -0.1911
 9929TIP3   OH251277   6.410   5.102   2.534  0.1291  0.2939  0.0862
 9929TIP3    H151278   6.347   5.156   2.582 -1.5809 -1.0851 -0.5096
 9929TIP3    H251279   6.414   5.020   2.584  2.0865  0.5929  0.5401
 9930TIP3   OH251280   2.474   4.942   2.782  0.4032  0.2677 -0.6888
 9930TIP3    H151281   2.426   5.021   2.808 -0.0010  0.2087 -1.2468
 9930TIP3    H251282   2.420   4.903   2.713 -1.4917 -2.6074  2.1296
 9931TIP3   OH251283   6.654   4.150   6.159  0.2663 -0.4053 -0.7777
 9931TIP3    H151284   6.662   4.245   6.153 -0.1422 -0.3431 -0.3854
 9931TIP3    H251285   6.730   4.117   6.110  1.8554  0.1411  1.1720
 9932TIP3   OH251286   4.271   3.531  17.086 -0.8841  0.7853  0.5703
 9932TIP3    H151287   4.343   3.472  17.112 -2.2821 -0.9968  0.5814
 9932TIP3    H251288   4.313   3.596  17.029  0.3057 -2.1732 -2.2848
 9933TIP3   OH251289   0.641   4.691   0.487  0.0126 -0.6759  0.1186
 9933TIP3    H151290   0.555   4.733   0.494 -0.0860 -0.0996 -3.0466
 9933TIP3    H251291   0.703   4.764   0.490  0.1229 -0.7037 -0.9814
 9934TIP3   OH251292   4.168   3.092  12.510  0.4355  0.3604 -0.0140
 9934TIP3    H151293   4.082   3.053  12.526  0.2656 -0.0327 -1.6646
 9934TIP3    H251294   4.227   3.017  12.500  1.0363  0.6294  1.2552
 9935TIP3   OH251295   5.398   6.763   2.752 -0.2632 -0.2324 -0.3335
 9935TIP3    H151296   5.340   6.730   2.820 -1.2196  0.5881 -0.7307
 9935TIP3    H251297   5.485   6.764   2.794 -0.4109 -1.9596  0.0895
 9936TIP3   OH251298   2.484   3.205   0.606 -0.2252  0.4637 -0.3527
 9936TIP3    H151299   2.455   3.203   0.515 -0.2644 -0.0816 -0.3281
 9936TIP3    H251300   2.573   3.170   0.603  0.3784  1.9011 -0.3960
 9937TIP3   OH251301   5.188   2.431   2.770  0.3321 -0.0796  0.6835
 9937TIP3    H151302   5.238   2.351   2.791 -0.3450 -0.9798 -0.9041
 9937TIP3    H251303   5.215   2.452   2.680 -2.8490 -1.2420 -0.6964
 9938TIP3   OH251304   2.562   4.204  12.532  0.0617  0.3056  0.2398
 9938TIP3    H151305   2.534   4.214  12.442  0.5829  0.5807  0.1049
 9938TIP3    H251306   2.482   4.217  12.584  0.3016  3.6769  0.0254
 9939TIP3   OH251307   3.734   2.022  17.119  0.7525 -0.7323  0.3690
 9939TIP3    H151308   3.698   1.958  17.057  0.1808 -1.0533  1.0198
 9939TIP3    H251309   3.735   1.976  17.203 -0.1696  0.2918  0.9592
 9940TIP3   OH251310   2.017   3.647  14.545  0.7185  0.6983  0.1550
 9940TIP3    H151311   2.036   3.739  14.532 -1.2961  1.2024  0.4558
 9940TIP3    H251312   2.027   3.633  14.639  0.3634  0.7810  0.2063
 9941TIP3   OH251313   5.600   6.622  16.781 -0.3556 -0.1192 -0.5819
 9941TIP3    H151314   5.644   6.706  16.768 -0.1868  0.0301  0.8354
 9941TIP3    H251315   5.570   6.624  16.872  1.4877 -2.4148  0.1917
 9942TIP3   OH251316   0.075   1.168   5.717  0.3786  0.7820  0.0076
 9942TIP3    H151317   0.004   1.177   5.654 -1.8773  1.3523  2.4507
 9942TIP3    H251318   0.043   1.211   5.796  3.4761  1.0572  1.2705
 9943TIP3   OH251319   2.246   4.747   2.146 -0.3786 -0.3852 -0.5759
 9943TIP3    H151320   2.211   4.793   2.223 -2.6775 -0.3366 -1.5838
 9943TIP3    H251321   2.272   4.661   2.180  1.6326  0.6852  0.8290
 9944TIP3   OH251322   4.198   6.515   0.040 -0.2136 -1.1994  0.2473
 9944TIP3    H151323   4.243   6.473  -0.033 -0.1768 -0.3319 -0.2354
 9944TIP3    H251324   4.174   6.601   0.008  0.2187 -0.6158  1.4094
 9945TIP3   OH251325   2.119   0.171  14.465 -0.4914  0.4580  0.5081
 9945TIP3    H151326   2.175   0.115  14.412 -1.4575  0.5799 -0.7062
 9945TIP3    H251327   2.124   0.257  14.422 -1.9805  0.3463  0.0352
 9946TIP3   OH251328   0.924   1.347  15.925 -0.1651  0.5689  0.8375
 9946TIP3    H151329   0.902   1.287  15.996 -1.4560  0.5597  0.4465
 9946TIP3    H251330   0.857   1.332  15.859  1.7036 -0.3030 -0.9537
 9947TIP3   OH251331   0.226   2.986   5.724 -0.3153 -0.2681 -0.1654
 9947TIP3    H151332   0.274   2.953   5.649 -0.2509  0.9237 -0.6760
 9947TIP3    H251333   0.151   3.033   5.687 -1.3357 -1.2570  0.5893
 9948TIP3   OH251334   0.782   2.373   6.020  0.0682  0.2031  0.3689
 9948TIP3    H151335   0.825   2.309   5.963  0.6809  1.8800 -1.1640
 9948TIP3    H251336   0.771   2.328   6.103  0.4901 -1.8668 -0.6303
 9949TIP3   OH251337   5.373   2.298  15.690  0.1306  0.8795 -0.2998
 9949TIP3    H151338   5.444   2.234  15.685 -1.0902 -0.8192  2.1377
 9949TIP3    H251339   5.413   2.380  15.662  2.1059 -0.6316 -2.3051
 9950TIP3   OH251340   1.367   1.614   5.952 -0.4683  0.6385  0.2394
 9950TIP3    H151341   1.337   1.695   5.993 -2.6556 -1.0853  2.3207
 9950TIP3    H251342   1.418   1.570   6.019 -1.7368 -0.9689  0.2056
 9951TIP3   OH251343   1.104   2.018  13.806 -0.2352 -0.0936 -0.2042
 9951TIP3    H151344   1.145   1.960  13.742  0.7026  0.9138 -0.5498
 9951TIP3    H251345   1.030   1.968  13.840 -0.7281 -0.6835 -2.0262
 9952TIP3   OH251346   0.497   6.276   3.766 -0.1224 -0.0392 -0.7140
 9952TIP3    H151347   0.457   6.191   3.781 -1.1007  0.4094 -0.6732
 9952TIP3    H251348   0.423   6.337   3.767  0.7027  0.9983  0.6920
 9953TIP3   OH251349   5.834   1.556   2.376  0.0395 -0.2112 -0.4442
 9953TIP3    H151350   5.865   1.466   2.389  0.5236 -0.0408 -0.3959
 9953TIP3    H251351   5.881   1.607   2.441 -0.1900  0.0898 -0.5141
 9954TIP3   OH251352   3.972   0.225  11.848 -0.5784  0.7985  0.2925
 9954TIP3    H151353   4.062   0.212  11.819 -0.7702 -0.3019  0.1662
 9954TIP3    H251354   3.979   0.292  11.916  0.4246  0.2154  0.7868
 9955TIP3   OH251355   2.001   6.302   0.633 -0.1393 -0.1013 -0.3069
 9955TIP3    H151356   2.071   6.365   0.616 -0.3343 -0.0427 -0.9126
 9955TIP3    H251357   1.931   6.327   0.572 -0.1836 -0.9524 -0.6195
 9956TIP3   OH251358   6.574   5.379   4.001  0.0768  0.0619 -0.3819
 9956TIP3    H151359   6.618   5.464   3.993  1.8613 -0.8542 -1.0851
 9956TIP3    H251360   6.482   5.398   3.988  0.3822  1.9404 -0.1314
 9957TIP3   OH251361   4.482   3.993  13.041  0.2392  0.5965 -0.3242
 9957TIP3    H151362   4.395   3.953  13.045 -0.4156  2.0111  0.5562
 9957TIP3    H251363   4.543   3.919  13.048 -0.8628 -0.4806 -1.6415
 9958TIP3   OH251364   1.516   0.318   5.491 -0.0160 -0.2644 -0.3151
 9958TIP3    H151365   1.549   0.250   5.432  1.9472 -0.8362  1.3157
 9958TIP3    H251366   1.590   0.339   5.548 -0.6708  2.9620 -0.4309
 9959TIP3   OH251367   3.890   0.819   2.879 -0.2418 -0.1143  0.4964
 9959TIP3    H151368   3.941   0.779   2.809 -0.9875 -1.7587  0.8327
 9959TIP3    H251369   3.836   0.884   2.835  0.9856  0.5424 -0.0859
 9960TIP3   OH251370   3.504   4.286  13.082  0.4384  0.0921  0.8623
 9960TIP3    H151371   3.516   4.211  13.024 -0.9078  0.3868  0.1755
 9960TIP3    H251372   3.590   4.328  13.083  0.3182  0.5539 -1.6333
 9961TIP3   OH251373   5.713   1.708  14.565 -0.2016  0.6615  0.5449
 9961TIP3    H151374   5.665   1.760  14.501 -0.1782  0.6411  0.5105
 9961TIP3    H251375   5.705   1.757  14.646  1.5541  1.8086  0.0903
 9962TIP3   OH251376   2.542   2.694   3.627 -0.5446  1.0290  0.1290
 9962TIP3    H151377   2.602   2.622   3.604  0.2119  1.4421  0.7699
 9962TIP3    H251378   2.482   2.655   3.691  1.2855  1.5135  2.2651
 9963TIP3   OH251379   3.950   1.202   4.974 -0.1198 -0.3401 -0.3166
 9963TIP3    H151380   3.986   1.114   4.989 -2.0638 -1.0279  0.7364
 9963TIP3    H251381   4.020   1.249   4.930  1.0941 -2.3306 -0.6638
 9964TIP3   OH251382   0.335   5.792  17.337 -0.3830  0.5359  0.4346
 9964TIP3    H151383   0.320   5.856  17.406  0.5724 -0.7746  1.9546
 9964TIP3    H251384   0.263   5.730  17.345 -1.1511  1.2286 -0.8412
 9965TIP3   OH251385   6.432   5.294  14.463  0.5724 -0.3389 -0.5167
 9965TIP3    H151386   6.357   5.234  14.469 -1.5455  2.2043  0.5370
 9965TIP3    H251387   6.439   5.314  14.370 -1.0510  0.4543 -0.5084
 9966TIP3   OH251388   1.046   6.706  13.800  0.5278 -0.2836  0.3876
 9966TIP3    H151389   0.958   6.735  13.822  0.5752 -0.2323  0.5097
 9966TIP3    H251390   1.089   6.783  13.763 -0.1448 -0.8353 -1.6735
 9967TIP3   OH251391   5.767   4.479  17.190 -0.5738 -0.9768 -0.4939
 9967TIP3    H151392   5.775   4.547  17.257 -1.1321 -0.5648 -0.8383
 9967TIP3    H251393   5.674   4.477  17.168 -0.5535 -1.8040 -0.5464
 9968TIP3   OH251394   1.950   1.877   1.585 -0.1926 -0.3086 -0.0598
 9968TIP3    H151395   2.007   1.845   1.514  1.0482  0.3107  0.6173
 9968TIP3    H251396   1.985   1.964   1.606 -3.6623  1.7809 -2.0493
 9969TIP3   OH251397   2.282   1.361   2.626 -0.1668 -0.5449 -0.4086
 9969TIP3    H151398   2.214   1.418   2.661  0.3749  0.5742 -1.1203
 9969TIP3    H251399   2.359   1.418   2.615  0.4072 -1.4108 -1.0939
 9970TIP3   OH251400   3.342   4.278   2.733  0.0915  0.0586  0.0193
 9970TIP3    H151401   3.291   4.360   2.731  1.2535  0.8173  0.2680
 9970TIP3    H251402   3.363   4.261   2.642  1.5000  1.1389  0.1085
 9971TIP3   OH251403   5.900   5.551  17.155  0.3932 -0.3443  0.6781
 9971TIP3    H151404   5.841   5.480  17.130 -0.1582 -0.9504  3.3954
 9971TIP3    H251405   5.842   5.618  17.192  1.1520  0.4346  0.4820
 9972TIP3   OH251406   5.190   6.072  11.663 -0.1873 -0.5079 -0.9989
 9972TIP3    H151407   5.154   6.133  11.599 -0.1776  0.7514  0.1525
 9972TIP3    H251408   5.276   6.107  11.685  0.9416 -2.3541 -2.1663
 9973TIP3   OH251409   5.798   3.012  12.668 -0.1678  0.1342  0.2586
 9973TIP3    H151410   5.817   3.100  12.634  1.3887  0.2268  1.2805
 9973TIP3    H251411   5.816   2.953  12.594  1.5341  0.4664  0.3790
 9974TIP3   OH251412   3.063   1.638  14.107 -0.2940 -0.1098  0.0120
 9974TIP3    H151413   3.123   1.712  14.109  0.9885 -1.1320  1.0552
 9974TIP3    H251414   3.104   1.574  14.049 -0.8543 -0.4512 -0.0237
 9975TIP3   OH251415   0.768   5.822  14.312  0.3767 -0.0519  0.7655
 9975TIP3    H151416   0.827   5.750  14.292  0.5293  0.5902 -1.3935
 9975TIP3    H251417   0.824   5.890  14.350  0.9041  0.1879 -0.3827
 9976TIP3   OH251418   6.662   3.160   3.485 -0.5474 -0.0426 -0.8502
 9976TIP3    H151419   6.674   3.102   3.560 -0.6833 -2.1348 -2.3613
 9976TIP3    H251420   6.593   3.220   3.513 -1.8233 -1.8563  0.1420
 9977TIP3   OH251421   5.660   1.610   5.100 -0.1398 -0.1304 -0.8042
 9977TIP3    H151422   5.651   1.700   5.069 -2.1300 -0.6212 -1.7894
 9977TIP3    H251423   5.644   1.556   5.023  3.5551 -1.4267 -0.8894
 9978TIP3   OH251424   0.451   6.040  11.688 -0.0559 -0.3325 -0.0939
 9978TIP3    H151425   0.356   6.027  11.691 -0.4722  1.8035 -1.5747
 9978TIP3    H251426   0.470   6.057  11.595  2.1059 -2.5434 -0.1810
 9979TIP3   OH251427   1.211   2.155  15.775 -0.0349 -0.0919  0.6145
 9979TIP3    H151428   1.245   2.108  15.851 -0.4103 -0.1060  0.7749
 9979TIP3    H251429   1.183   2.240  15.809 -1.4770 -0.5913  0.7741
 9980TIP3   OH251430   1.048   4.140  15.532  0.1908  0.2041 -0.4318
 9980TIP3    H151431   0.956   4.142  15.558  0.8227  2.4906  2.0216
 9980TIP3    H251432   1.066   4.229  15.501  2.0643  0.4846  1.2574
 9981TIP3   OH251433   5.500   3.102  16.538  0.2849 -0.0244 -0.2457
 9981TIP3    H151434   5.543   3.107  16.453  0.7366  2.1222  0.0391
 9981TIP3    H251435   5.550   3.163  16.593 -0.8342 -0.3358  1.1762
 9982TIP3   OH251436   5.291   2.747  11.705 -0.0642 -0.0683 -0.6870
 9982TIP3    H151437   5.327   2.730  11.618  0.0973  1.6002 -0.9612
 9982TIP3    H251438   5.250   2.833  11.699  0.2528  0.2474  0.9800
 9983TIP3   OH251439   6.454   6.127   6.812 -0.0168 -0.6094  0.2282
 9983TIP3    H151440   6.536   6.111   6.766  0.0570  0.3574 -0.0039
 9983TIP3    H251441   6.386   6.116   6.746 -0.1603 -2.1977  0.5991
 9984TIP3   OH251442   3.505   0.151  11.713  0.0720  0.0536 -0.3467
 9984TIP3    H151443   3.517   0.243  11.735 -0.7389  0.1800 -0.3936
 9984TIP3    H251444   3.586   0.126  11.669 -0.0642  0.9978 -1.1727
 9985TIP3   OH251445   5.980   4.388   1.874 -0.2567 -0.4464 -0.0866
 9985TIP3    H151446   5.925   4.329   1.926  1.8839 -1.8955  0.6849
 9985TIP3    H251447   5.962   4.364   1.783 -2.1319  0.3312  0.0285
 9986TIP3   OH251448   5.948   6.643  12.875 -0.1457  0.2454 -0.2609
 9986TIP3    H151449   5.936   6.557  12.833 -3.4156  0.6721 -0.5023
 9986TIP3    H251450   6.005   6.625  12.949  1.0042 -1.7002 -1.5042
 9987TIP3   OH251451   4.522   1.890   4.112 -0.6386 -0.4277  0.0654
 9987TIP3    H151452   4.515   1.835   4.190 -1.1675 -1.1827 -0.5048
 9987TIP3    H251453   4.441   1.942   4.113  0.1280  0.8008  0.9260
 9988TIP3   OH251454   5.757   2.446  14.228  0.0229 -0.2918  0.2002
 9988TIP3    H151455   5.786   2.383  14.161 -0.8810 -0.9490  0.4027
 9988TIP3    H251456   5.830   2.449  14.290 -0.1866 -1.6881  0.5541
 9989TIP3   OH251457   4.731   1.890   3.111  0.1644  0.1760  0.1617
 9989TIP3    H151458   4.823   1.912   3.123  0.4926 -1.0310  0.0411
 9989TIP3    H251459   4.731   1.818   3.048 -0.9404  0.7888 -0.5719
 9990TIP3   OH251460   0.883   1.576   4.614  0.3029  0.0553 -0.0690
 9990TIP3    H151461   0.800   1.614   4.586  0.1258  0.5719  1.0817
 9990TIP3    H251462   0.860   1.489   4.647  0.1266  0.4040  0.7436
 9991TIP3   OH251463   0.897   2.721   1.911 -0.6492 -0.0592  0.2988
 9991TIP3    H151464   0.892   2.646   1.970 -1.8225 -1.1063 -1.0532
 9991TIP3    H251465   0.906   2.797   1.969  0.3051 -1.1991  1.7128
 9992TIP3   OH251466   4.905   2.859   2.516  0.2663  0.4536 -0.6117
 9992TIP3    H151467   4.878   2.786   2.572  0.6701  0.3725 -0.5200
 9992TIP3    H251468   4.836   2.865   2.449 -0.7182  1.1300  0.4054
 9993TIP3   OH251469   4.102   4.690   4.991  0.6093  0.5689  0.7699
 9993TIP3    H151470   4.041   4.733   4.931  1.2293 -0.0257 -0.3107
 9993TIP3    H251471   4.177   4.749   4.995  0.7233  0.4296  0.6756
 9994TIP3   OH251472   1.359   3.598  12.778  1.1727  0.7182  0.2067
 9994TIP3    H151473   1.331   3.573  12.866 -0.5423  0.6590 -0.3223
 9994TIP3    H251474   1.377   3.515  12.735 -0.3028  0.5825 -0.2046
 9995TIP3   OH251475   1.569   5.037   2.068 -0.1155  0.1633  0.2421
 9995TIP3    H151476   1.611   5.116   2.102  0.2198  0.5084 -0.9160
 9995TIP3    H251477   1.533   5.063   1.984  2.6195 -1.5684 -1.6715
 9996TIP3   OH251478   3.687   0.071   5.254 -0.3919  0.5312  0.6731
 9996TIP3    H151479   3.720   0.160   5.264  0.4052  0.3380 -0.1135
 9996TIP3    H251480   3.617   0.064   5.319  1.6844  0.6816  3.0494
 9997TIP3   OH251481   1.071   0.875   1.084 -0.1871 -0.3174 -0.0056
 9997TIP3    H151482   1.143   0.938   1.083  0.8145 -1.4305 -0.0119
 9997TIP3    H251483   1.106   0.798   1.040 -1.4165 -0.8638 -0.0691
 9998TIP3   OH251484   4.213   3.043   1.503  0.7081 -0.1622  0.6971
 9998TIP3    H151485   4.236   3.130   1.535  0.4542 -0.4567  1.7229
 9998TIP3    H251486   4.273   3.027   1.430  0.5118  1.0127  0.2602
 9999TIP3   OH251487   1.475   1.137  17.361 -0.0793  0.2730  0.2507
 9999TIP3    H151488   1.558   1.182  17.378 -0.5077  1.3724 -0.4101
 9999TIP3    H251489   1.487   1.050  17.398  1.5236  0.2610 -0.2002
10000TIP3   OH251490   4.784   0.368  13.418 -0.1472  0.2421 -0.5795
10000TIP3    H151491   4.753   0.361  13.509  0.6954  1.5541 -0.1739
10000TIP3    H251492   4.705   0.387  13.367 -0.7136 -1.0257 -0.2159
10001TIP3   OH251493   1.771   0.931   1.218 -0.3747 -0.6294  0.0146
10001TIP3    H151494   1.855   0.975   1.204 -0.9177  0.2265 -0.7170
10001TIP3    H251495   1.787   0.840   1.195  0.4111 -0.5177  0.0941
10002TIP3   OH251496   2.548   1.568   4.668  0.4346  0.2296 -0.0098
10002TIP3    H151497   2.489   1.629   4.624 -0.0902  0.1720  0.6141
10002TIP3    H251498   2.580   1.511   4.597 -0.8826 -0.2576 -0.2449
10003TIP3   OH251499   0.504   0.799   0.259  0.6632  0.1044 -0.3065
10003TIP3    H151500   0.477   0.791   0.350  2.4239  2.1486  0.5016
10003TIP3    H251501   0.437   0.855   0.219 -0.6290 -1.5706 -0.5750
10004TIP3   OH251502   2.942   3.006   2.802  0.3687 -0.0478  0.1041
10004TIP3    H151503   2.948   2.923   2.850 -1.1158  0.5315  1.3974
10004TIP3    H251504   2.881   2.989   2.731  3.1393 -1.1167 -2.1760
10005TIP3   OH251505   3.847   4.604   4.482 -0.1596 -0.0849  0.4385
10005TIP3    H151506   3.777   4.542   4.460 -0.4984 -0.2834  1.9724
10005TIP3    H251507   3.926   4.550   4.486 -0.1417 -0.0929 -0.0382
10006TIP3   OH251508   0.523   5.966  12.093 -0.2040 -0.0564 -0.5794
10006TIP3    H151509   0.433   5.996  12.106  0.2934  1.8994 -1.2057
10006TIP3    H251510   0.515   5.872  12.076 -1.9500 -0.2629  1.0492
10007TIP3   OH251511   1.727   4.356  14.744  0.1125 -0.6293  0.2692
10007TIP3    H151512   1.633   4.352  14.730  0.4461 -2.1635 -2.4231
10007TIP3    H251513   1.761   4.280  14.695  2.8692  0.9115 -0.4079
10008TIP3   OH251514   4.719   1.842  12.997 -0.6446  0.0097 -0.8828
10008TIP3    H151515   4.799   1.789  12.990  0.2956  1.4951 -2.0744
10008TIP3    H251516   4.749   1.927  13.027 -1.7645  0.6392 -1.4731
10009TIP3   OH251517   5.146   1.283  13.884  1.2524 -0.5270 -0.3780
10009TIP3    H151518   5.182   1.338  13.815  1.1216 -0.0216 -0.0486
10009TIP3    H251519   5.200   1.302  13.961 -0.0998  0.7534  0.3064
10010TIP3   OH251520   5.428   4.215   0.101 -0.2526  0.3249  0.1252
10010TIP3    H151521   5.345   4.193   0.060 -0.5657  0.6242  0.5989
10010TIP3    H251522   5.456   4.295   0.056  0.7474 -0.8191 -1.3965
10011TIP3   OH251523   3.834   0.986  15.633  0.1294 -0.5439  0.4661
10011TIP3    H151524   3.807   1.002  15.724  0.5387 -0.3399  0.5568
10011TIP3    H251525   3.915   0.935  15.641  0.4669 -0.0514  0.2277
10012TIP3   OH251526   4.362   5.215  12.045  0.0676  0.3916 -0.3513
10012TIP3    H151527   4.323   5.284  11.990  1.2474  0.9390 -0.5287
10012TIP3    H251528   4.441   5.189  11.998 -0.5431 -1.3921 -0.4841
10013TIP3   OH251529   6.570   1.161  16.510  0.0882 -0.8473 -0.0560
10013TIP3    H151530   6.477   1.141  16.524 -0.3878  0.2675 -1.3091
10013TIP3    H251531   6.600   1.197  16.593 -1.5868  2.0109 -0.5204
10014TIP3   OH251532   6.483   2.383  11.732 -0.1219 -0.8443 -0.2660
10014TIP3    H151533   6.434   2.414  11.808 -1.0231  0.4398 -1.3448
10014TIP3    H251534   6.574   2.404  11.753 -0.5279  1.1031 -0.2468
10015TIP3   OH251535   2.403   2.346   2.322 -0.1273  0.6521  0.1406
10015TIP3    H151536   2.419   2.336   2.228 -0.3380 -0.0557  0.1698
10015TIP3    H251537   2.487   2.373   2.358  0.4697 -0.9289  0.0041
10016TIP3   OH251538   4.482   5.922   6.666 -0.6319  0.0492  0.3825
10016TIP3    H151539   4.542   5.936   6.593 -1.5039  2.7583  0.0947
10016TIP3    H251540   4.488   5.828   6.684  2.2625 -0.0855 -0.8142
10017TIP3   OH251541   2.543   6.700  17.338 -0.2434  0.1770  0.4949
10017TIP3    H151542   2.570   6.664  17.422  2.6135  1.4440  0.2373
10017TIP3    H251543   2.581   6.641  17.273 -2.3971 -0.7708 -0.0095
10018TIP3   OH251544   1.822   5.510   6.321  0.3481  0.2760 -0.2517
10018TIP3    H151545   1.861   5.430   6.355  1.3824 -0.6491 -3.2618
10018TIP3    H251546   1.895   5.569   6.307 -0.0731  0.7407 -0.5459
10019TIP3   OH251547   1.991   2.068   1.943 -0.4224 -0.6759 -0.2117
10019TIP3    H151548   1.956   2.120   1.870  1.2237  0.4207 -0.2864
10019TIP3    H251549   1.978   1.977   1.916 -0.9002 -0.2975 -1.3403
10020TIP3   OH251550   6.227   5.868   6.330  0.1343  0.3856 -0.1721
10020TIP3    H151551   6.279   5.810   6.387  0.0143  0.9146  0.4848
10020TIP3    H251552   6.155   5.898   6.386  0.7326  1.9462 -0.1942
10021TIP3   OH251553   0.665   2.688   3.849  0.0008  0.1709 -0.6988
10021TIP3    H151554   0.609   2.698   3.772  1.6713  0.9870 -1.8663
10021TIP3    H251555   0.605   2.667   3.920 -1.7483  0.7988 -1.9330
10022TIP3   OH251556   1.269   4.083   0.006  0.3032  0.4512 -0.5390
10022TIP3    H151557   1.241   4.173   0.018  1.4983  0.7160  0.4424
10022TIP3    H251558   1.228   4.035   0.078  0.5476  0.4202 -0.4185
10023TIP3   OH251559   1.371   5.284   4.763  0.0987 -0.0606 -0.2555
10023TIP3    H151560   1.427   5.291   4.840  0.1526  0.1327 -0.3100
10023TIP3    H251561   1.343   5.193   4.760  2.7549 -0.9166 -1.8912
10024TIP3   OH251562   6.749   0.887  12.141 -0.0226 -0.2148  0.5145
10024TIP3    H151563   6.829   0.835  12.137  0.2196  0.2264 -1.0611
10024TIP3    H251564   6.715   0.887  12.052 -0.5833  1.4557  0.6819
10025TIP3   OH251565   5.070   0.415   1.722  0.0824 -0.1164  0.4144
10025TIP3    H151566   5.032   0.449   1.641  2.2050 -1.4103 -1.2358
10025TIP3    H251567   4.996   0.376   1.768 -1.1868  0.5833 -0.9190
10026TIP3   OH251568   5.801   2.065   0.600  0.5358  0.2903  0.8048
10026TIP3    H151569   5.715   2.024   0.608  1.8199 -3.2045 -1.0882
10026TIP3    H251570   5.840   2.057   0.687 -1.6353  3.8924  2.3195
10027TIP3   OH251571   0.852   4.725   5.513  0.3778 -0.2425  0.5019
10027TIP3    H151572   0.834   4.707   5.421 -1.8555  0.5962  0.7000
10027TIP3    H251573   0.939   4.689   5.528  1.1186  0.2061 -2.0995
10028TIP3   OH251574   3.134   3.229   0.201  0.1523  0.0643  0.6646
10028TIP3    H151575   3.087   3.147   0.185  1.4198 -0.2547 -1.9068
10028TIP3    H251576   3.087   3.269   0.274 -1.0417 -2.5220  1.4673
10029TIP3   OH251577   4.981   5.135  15.535 -0.0555 -0.8273  0.1387
10029TIP3    H151578   5.059   5.104  15.487 -2.3484 -1.0831 -3.8755
10029TIP3    H251579   4.943   5.055  15.572  0.6319 -0.9612  0.5719
10030TIP3   OH251580   0.231   3.330   2.273  0.4426  0.1791 -0.3015
10030TIP3    H151581   0.264   3.396   2.334  1.6664 -0.7560  0.0951
10030TIP3    H251582   0.308   3.305   2.221 -0.5164  0.7655 -2.0861
10031TIP3   OH251583   3.190   4.974  12.601 -0.2767  0.2662 -0.4198
10031TIP3    H151584   3.234   4.895  12.568  0.3739  0.6331 -0.4432
10031TIP3    H251585   3.097   4.957  12.587 -0.0673  0.0161 -1.5730
10032TIP3   OH251586   4.078   1.481  17.334  0.2872  0.3753  0.0377
10032TIP3    H151587   4.143   1.530  17.384  2.7677 -1.3136 -1.3075
10032TIP3    H251588   4.022   1.548  17.295  0.6700  1.8584  1.9347
10033TIP3   OH251589   5.180   3.024  12.540 -0.2179  0.2230  0.0433
10033TIP3    H151590   5.192   3.008  12.447 -1.5167  0.0270 -0.1203
10033TIP3    H251591   5.232   3.102  12.558  2.4724 -1.4176 -0.1660
10034TIP3   OH251592   0.496   2.050   6.630 -0.0039 -0.0135  0.4565
10034TIP3    H151593   0.491   2.127   6.687 -0.3506  0.4779 -0.2229
10034TIP3    H251594   0.534   2.083   6.549 -1.0045 -0.3552 -0.1703
10035TIP3   OH251595   0.192   2.879   4.844  0.6199 -0.4420 -0.2503
10035TIP3    H151596   0.121   2.889   4.907 -0.1169 -0.5243 -1.0514
10035TIP3    H251597   0.206   2.784   4.839  2.2822 -0.3549  1.5057
10036TIP3   OH251598   5.995   5.082   2.065  0.5577 -0.1455 -0.1832
10036TIP3    H151599   5.994   5.172   2.032 -0.4277  0.1224  0.5157
10036TIP3    H251600   6.043   5.087   2.147 -0.2654 -0.0777  0.3011
10037TIP3   OH251601   1.095   6.435   1.906 -0.1604 -0.6558  0.2652
10037TIP3    H151602   1.100   6.498   1.834  0.8888  0.8978  1.6090
10037TIP3    H251603   1.014   6.457   1.952 -0.1895 -0.8072  0.2862
10038TIP3   OH251604   3.131   3.513   0.985  0.6649  0.3071 -0.1887
10038TIP3    H151605   3.063   3.451   0.959 -1.0990  1.3816  1.6253
10038TIP3    H251606   3.163   3.548   0.901 -0.2818 -0.9602 -1.1322
10039TIP3   OH251607   0.136   4.091  12.243 -0.3268 -0.2528  0.3008
10039TIP3    H151608   0.218   4.109  12.290 -0.2262  0.8726 -0.2737
10039TIP3    H251609   0.163   4.082  12.152 -0.4917 -2.6292  0.4272
10040TIP3   OH251610   5.938   4.998   5.925 -0.5979  0.2201  0.2672
10040TIP3    H151611   6.005   5.059   5.895  2.0944 -2.5526  0.2060
10040TIP3    H251612   5.876   5.053   5.974  1.0536  3.0958 -0.6196
10041TIP3   OH251613   5.846   0.974   6.591  0.4923 -0.0434 -0.2876
10041TIP3    H151614   5.938   0.985   6.570 -0.0356  1.3153 -2.1464
10041TIP3    H251615   5.841   0.889   6.634  2.6187 -0.0285  0.0981
10042TIP3   OH251616   6.566   0.639  15.670 -0.4063  0.0923  0.7548
10042TIP3    H151617   6.570   0.569  15.605 -0.7091  0.5308  0.2535
10042TIP3    H251618   6.565   0.720  15.618  2.6357  0.6299  1.3577
10043TIP3   OH251619   3.843   2.068   5.003  0.2643  0.2659 -0.1425
10043TIP3    H151620   3.802   1.985   5.028 -0.1442  0.8752  1.3628
10043TIP3    H251621   3.929   2.044   4.970  0.4535 -0.7109  1.0115
10044TIP3   OH251622   1.869   1.825   6.300  0.0063 -0.5846 -0.6994
10044TIP3    H151623   1.841   1.779   6.379 -1.3731 -1.8170 -1.8574
10044TIP3    H251624   1.792   1.874   6.273  0.2973 -0.6112 -1.5933
10045TIP3   OH251625   5.973   2.793   0.619  0.2029  0.2826  0.2814
10045TIP3    H151626   5.958   2.759   0.707 -0.5268 -0.2751 -0.0502
10045TIP3    H251627   5.999   2.717   0.567 -0.7736  0.3444 -0.3107
10046TIP3   OH251628   2.671   4.877  11.136  0.1134 -0.0397 -0.2120
10046TIP3    H151629   2.743   4.916  11.086  0.2672  0.7963  0.6519
10046TIP3    H251630   2.592   4.912  11.095  0.2237  0.0398 -0.3578
10047TIP3   OH251631   1.531   0.265   9.932 -0.1074  0.2060  0.1438
10047TIP3    H151632   1.567   0.249  10.019  0.2279  1.4153  0.2525
10047TIP3    H251633   1.563   0.353   9.909 -3.0012  1.4110  0.2617
10048TIP3   OH251634   6.389   6.104   3.731  0.5401 -0.0851 -0.4917
10048TIP3    H151635   6.427   6.062   3.654  0.5849 -0.1290 -0.4454
10048TIP3    H251636   6.387   6.197   3.709  3.8108  0.4188  0.7980
10049TIP3   OH251637   3.700   3.443  13.347  0.9294 -0.0071 -0.4040
10049TIP3    H151638   3.627   3.442  13.409  2.2790  1.3543  1.3256
10049TIP3    H251639   3.700   3.532  13.312  0.4896 -0.6234 -2.0331
10050TIP3   OH251640   2.369   0.315  15.776  0.0030  0.6830 -0.0708
10050TIP3    H151641   2.395   0.296  15.866 -0.3787  0.7324  0.0535
10050TIP3    H251642   2.311   0.242  15.752  1.4122 -0.2176 -0.8560
10051TIP3   OH251643   6.238   2.939   4.063  0.5251 -0.3706 -0.6968
10051TIP3    H151644   6.210   2.863   4.115  0.2290 -0.6148 -1.2053
10051TIP3    H251645   6.156   2.980   4.035  0.6851  0.2646 -0.2442
10052TIP3   OH251646   4.757   4.405   4.728 -0.7267  0.3688  0.4907
10052TIP3    H151647   4.814   4.353   4.672  0.7573  0.5166  1.7893
10052TIP3    H251648   4.699   4.341   4.769 -0.0266 -0.0866  0.7988
10053TIP3   OH251649   3.284   5.250   1.903 -0.4952 -0.5666  0.3483
10053TIP3    H151650   3.339   5.174   1.920 -1.3537 -1.0574  1.0089
10053TIP3    H251651   3.208   5.216   1.856 -0.8726 -0.1190  0.6157
10054TIP3   OH251652   0.506   6.613   0.181  0.0450  0.3933 -0.3406
10054TIP3    H151653   0.505   6.546   0.250  0.4369  1.2619  0.5335
10054TIP3    H251654   0.449   6.682   0.214  3.3731  2.7447  1.1679
10055TIP3   OH251655   4.315   6.007   5.738 -0.4351  0.1986  0.4614
10055TIP3    H151656   4.370   6.069   5.785  0.3365 -0.8391  0.9604
10055TIP3    H251657   4.275   5.954   5.807 -0.8978 -0.0147  0.0315
10056TIP3   OH251658   6.742   2.083   1.140 -0.1726  0.2902 -0.5059
10056TIP3    H151659   6.766   2.174   1.154 -0.6562  0.4478 -0.6687
10056TIP3    H251660   6.648   2.079   1.161 -0.3649  0.0325 -1.3727
10057TIP3   OH251661   5.203   5.476  13.151 -0.2373 -0.2423 -0.1503
10057TIP3    H151662   5.124   5.506  13.196  0.4676 -0.0927  1.0271
10057TIP3    H251663   5.178   5.393  13.111 -1.2271  0.2134 -0.5030
10058TIP3   OH251664   3.452   3.220   5.071 -0.0719  0.0134 -0.6961
10058TIP3    H151665   3.369   3.212   5.022  0.5691  0.6475 -1.9349
10058TIP3    H251666   3.448   3.308   5.110 -0.2586 -0.2094 -0.2028
10059TIP3   OH251667   2.377   2.784  10.584  0.7525 -0.0567  0.1603
10059TIP3    H151668   2.404   2.749  10.669 -1.7896 -0.7725  0.7605
10059TIP3    H251669   2.365   2.706  10.529 -2.6674 -0.1670  0.8119
10060TIP3   OH251670   1.182   0.706   2.104 -0.6420  0.0511 -0.1970
10060TIP3    H151671   1.179   0.617   2.070 -2.4999  0.1933 -0.5398
10060TIP3    H251672   1.270   0.737   2.084  0.6145 -2.2490  1.4403
10061TIP3   OH251673   4.738   5.293   3.748  0.2495 -0.4246 -0.1604
10061TIP3    H151674   4.769   5.257   3.665 -0.2420  0.9469 -0.9649
10061TIP3    H251675   4.733   5.217   3.807  0.0485 -1.5060 -1.5381
10062TIP3   OH251676   5.510   0.365  12.176 -0.1426 -0.3725 -0.3993
10062TIP3    H151677   5.457   0.444  12.191  0.5663 -0.1893  1.4298
10062TIP3    H251678   5.448   0.293  12.189 -0.4369 -0.1334 -0.4435
10063TIP3   OH251679   4.111   6.448  14.643  0.0015  0.2657  0.3817
10063TIP3    H151680   4.080   6.362  14.671  2.4394 -0.5075  0.9625
10063TIP3    H251681   4.126   6.496  14.724  0.5306  0.5208  0.1402
10064TIP3   OH251682   3.515   3.016  17.162 -0.0978 -0.1810 -0.2147
10064TIP3    H151683   3.448   3.060  17.214 -0.5957 -2.0293  0.7915
10064TIP3    H251684   3.472   2.999  17.078  0.0412  1.0037 -0.5526
10065TIP3   OH251685   0.702   1.891   1.844  0.3860 -0.0285 -0.1374
10065TIP3    H151686   0.713   1.826   1.775 -1.5435  0.2863 -0.7948
10065TIP3    H251687   0.701   1.975   1.798 -0.2086  0.2412  0.3549
10066TIP3   OH251688   2.567   1.834   2.802  0.0200 -0.1312 -0.0954
10066TIP3    H151689   2.520   1.837   2.885 -0.5175 -1.7590 -0.3046
10066TIP3    H251690   2.658   1.849   2.825 -0.2686  0.5699  0.6338
10067TIP3   OH251691   5.785   0.908  16.787 -0.5104  0.4171 -0.0785
10067TIP3    H151692   5.831   0.992  16.786 -0.4926  0.4054 -0.2691
10067TIP3    H251693   5.769   0.891  16.880  1.1384 -0.2812  0.1058
10068TIP3   OH251694   6.733   3.909  16.224 -0.0785  0.4949 -0.1599
10068TIP3    H151695   6.718   3.932  16.316 -0.9744 -1.2919  0.1813
10068TIP3    H251696   6.694   3.822  16.214 -0.2174  0.7471 -2.3037
10069TIP3   OH251697   5.950   2.727   4.756 -0.4250 -0.4845  0.0985
10069TIP3    H151698   5.928   2.670   4.829 -0.6761  0.9723  1.2153
10069TIP3    H251699   6.024   2.780   4.788 -1.4703  1.1987 -0.1105
10070TIP3   OH251700   4.168   2.037   6.341 -0.1142 -0.4201  0.6528
10070TIP3    H151701   4.159   2.068   6.431 -0.4531 -1.0457  0.8375
10070TIP3    H251702   4.083   1.998   6.320 -0.6011  1.1817 -0.5104
10071TIP3   OH251703   4.764   0.247  10.953 -0.7661  0.4155 -0.2489
10071TIP3    H151704   4.835   0.191  10.924  0.8986  1.9060  0.7136
10071TIP3    H251705   4.761   0.235  11.048 -0.2669  1.9897  0.0046
10072TIP3   OH251706   5.735   0.389   2.687  0.0094  0.0661 -0.2280
10072TIP3    H151707   5.696   0.476   2.675 -0.3711  0.1564  1.4462
10072TIP3    H251708   5.720   0.345   2.603 -0.4983  1.3357 -0.8378
10073TIP3   OH251709   6.690   4.213   4.319 -0.3879 -0.1447  0.5574
10073TIP3    H151710   6.677   4.297   4.362 -0.9499  0.2447 -0.3430
10073TIP3    H251711   6.715   4.236   4.229 -0.7685 -0.9428  0.2405
10074TIP3   OH251712   5.812   0.545  16.250  0.3762  0.2787 -0.0105
10074TIP3    H151713   5.755   0.469  16.260 -0.0968  0.4020 -1.5197
10074TIP3    H251714   5.899   0.508  16.233 -0.1547 -0.0098 -2.4594
10075TIP3   OH251715   3.058   2.590  14.639 -0.8223  0.1079  0.1009
10075TIP3    H151716   3.005   2.593  14.718 -0.2334 -0.6545  0.5385
10075TIP3    H251717   3.116   2.665  14.645 -1.1103  0.3268  0.1509
10076TIP3   OH251718   1.186   2.864  15.749  0.5500 -0.5726 -0.2119
10076TIP3    H151719   1.220   2.937  15.802 -0.2964 -0.6983  0.5271
10076TIP3    H251720   1.223   2.786  15.788 -0.5929 -0.7173  0.6465
10077TIP3   OH251721   0.426   1.817   1.872  0.1875 -0.0914 -0.3277
10077TIP3    H151722   0.438   1.730   1.909  1.0762  1.1131  2.5033
10077TIP3    H251723   0.515   1.852   1.863 -0.2033  1.2656  0.6805
10078TIP3   OH251724   6.246   3.055   5.469 -0.2683  0.1594 -0.0448
10078TIP3    H151725   6.175   3.013   5.518 -2.0475  1.0007 -1.7655
10078TIP3    H251726   6.282   3.120   5.530 -3.0777  1.8837 -0.0411
10079TIP3   OH251727   6.526   3.129  10.809 -0.5883 -0.7743 -0.2182
10079TIP3    H151728   6.481   3.146  10.727  3.5030  1.2384 -2.3576
10079TIP3    H251729   6.582   3.053  10.790  1.3110  0.4502  0.1612
10080TIP3   OH251730   3.077   2.739   6.273  0.2820  0.2484 -0.1454
10080TIP3    H151731   3.012   2.702   6.333 -1.5699  0.0160 -2.1720
10080TIP3    H251732   3.028   2.802   6.221  1.5273 -0.3399 -2.1332
10081TIP3   OH251733   1.736   1.667   1.871 -0.7179  0.3220  0.2465
10081TIP3    H151734   1.666   1.602   1.865 -0.6589  0.0323  2.0194
10081TIP3    H251735   1.813   1.616   1.899 -0.3680  0.9528  0.4593
10082TIP3   OH251736   1.275   0.850  17.220  0.3936 -0.1439 -0.4410
10082TIP3    H151737   1.289   0.928  17.167 -0.8520  0.1253 -0.4168
10082TIP3    H251738   1.182   0.853  17.242  0.0963 -2.1261 -1.2307
10083TIP3   OH251739   4.003   2.853   6.773  0.4097  0.1398  0.2235
10083TIP3    H151740   4.037   2.764   6.779  0.7932  0.2356 -0.4261
10083TIP3    H251741   3.922   2.844   6.723 -0.9700 -0.1912  2.3862
10084TIP3   OH251742   5.972   0.897   3.253 -0.5270  0.4745 -0.2940
10084TIP3    H151743   5.950   0.850   3.333  0.7415 -0.4282 -0.4356
10084TIP3    H251744   6.063   0.924   3.265 -0.8014  1.6674 -0.8060
10085TIP3   OH251745   3.356   0.230  14.539 -0.2775  0.3748 -0.2961
10085TIP3    H151746   3.359   0.277  14.456 -0.2737 -1.3139 -1.2979
10085TIP3    H251747   3.375   0.139  14.515  0.4702 -0.0256  1.6565
10086TIP3   OH251748   3.875   6.437   2.563 -0.1213  0.0266 -0.6856
10086TIP3    H151749   3.789   6.442   2.605  0.7705  1.4890  1.0806
10086TIP3    H251750   3.915   6.357   2.599  0.6052  1.2200  1.3657
10087TIP3   OH251751   5.468   5.792  11.543 -0.2023  0.3254 -0.9125
10087TIP3    H151752   5.434   5.850  11.474  0.0270  1.1683 -0.3400
10087TIP3    H251753   5.559   5.776  11.519  0.3178  1.7993 -0.0945
10088TIP3   OH251754   1.899   5.226  14.059  0.7098 -0.0099 -0.2040
10088TIP3    H151755   1.935   5.281  14.128 -1.1117 -1.2529  1.9009
10088TIP3    H251756   1.807   5.254  14.051 -0.0516 -2.1302  0.3817
10089TIP3   OH251757   6.235   2.026   1.180  0.1355 -0.1334 -0.1561
10089TIP3    H151758   6.140   2.018   1.177  0.0418  0.4462  0.8164
10089TIP3    H251759   6.267   1.942   1.147 -0.7054 -0.2745 -0.6538
10090TIP3   OH251760   1.921   4.239  12.470 -0.2708 -0.6299  0.0785
10090TIP3    H151761   1.888   4.172  12.410  0.1070 -0.3324 -0.4705
10090TIP3    H251762   1.993   4.280  12.422  0.4815 -0.8372  0.9962
10091TIP3   OH251763   2.693   0.968   1.269 -0.4516 -0.3708 -1.0521
10091TIP3    H151764   2.750   0.893   1.251 -1.0488 -1.0864 -0.1247
10091TIP3    H251765   2.635   0.937   1.339 -0.1200  1.2551  0.0120
10092TIP3   OH251766   6.364   4.814  16.692 -0.0666  0.0907 -0.1812
10092TIP3    H151767   6.398   4.726  16.682 -0.6484 -0.0512 -1.0053
10092TIP3    H251768   6.274   4.802  16.725 -0.1943  0.3668 -0.4230
10093TIP3   OH251769   5.618   4.962   5.706 -0.1824 -0.3218  0.2865
10093TIP3    H151770   5.634   5.042   5.756  0.0713 -0.2969  0.1665
10093TIP3    H251771   5.562   4.991   5.633 -0.8925 -0.4353  0.7779
10094TIP3   OH251772   5.566   0.902  15.230 -0.4289  0.5282  0.2886
10094TIP3    H151773   5.551   0.940  15.316 -0.4325 -0.9218  0.9664
10094TIP3    H251774   5.553   0.808  15.243  0.8970  0.1298 -0.9852
10095TIP3   OH251775   5.153   1.300   6.489 -0.0802  0.6708 -0.3811
10095TIP3    H151776   5.129   1.250   6.411 -1.5826 -1.4457  1.3200
10095TIP3    H251777   5.075   1.352   6.510 -1.2050 -1.6045  1.6944
10096TIP3   OH251778   2.232   2.340   1.534 -0.5105  0.6867 -0.3116
10096TIP3    H151779   2.151   2.350   1.483  0.2305 -1.6536 -2.1252
10096TIP3    H251780   2.299   2.384   1.482 -0.1890  0.6542  0.0671
10097TIP3   OH251781   1.244   6.068  16.054  0.5580  0.1028  0.1286
10097TIP3    H151782   1.281   5.991  16.011 -0.5641 -0.0013 -0.6893
10097TIP3    H251783   1.320   6.119  16.082  1.3435  0.0651 -1.8067
10098TIP3   OH251784   2.968   6.169  15.811 -0.5677 -0.2486  0.1685
10098TIP3    H151785   2.938   6.107  15.744 -1.3717 -1.4044  1.5284
10098TIP3    H251786   2.896   6.232  15.820  0.0084  0.5761 -0.8079
10099TIP3   OH251787   6.342   3.459  16.516 -0.2264  0.0651  0.0782
10099TIP3    H151788   6.314   3.371  16.541 -0.5202 -0.5411 -2.1698
10099TIP3    H251789   6.437   3.459  16.531 -0.5459  0.3501  2.6662
10100TIP3   OH251790   5.091   2.009  15.839 -0.2777  0.7208 -0.0275
10100TIP3    H151791   5.080   1.918  15.865  0.3290  0.6763  0.0912
10100TIP3    H251792   5.121   2.053  15.919 -0.0104  0.9089 -0.2316
10101TIP3   OH251793   6.006   2.953  15.480 -0.4374 -0.0988  0.2526
10101TIP3    H151794   6.026   3.019  15.547  2.3618 -0.1528 -0.4031
10101TIP3    H251795   5.974   3.004  15.406 -0.4238  0.3010  0.5157
10102TIP3   OH251796   4.511   6.205  13.232 -0.0073 -0.3405 -0.5156
10102TIP3    H151797   4.449   6.276  13.248 -1.2461 -0.8879 -2.5326
10102TIP3    H251798   4.573   6.243  13.169 -1.1610 -1.2190 -2.2622
10103TIP3   OH251799   3.630   3.844  11.269  0.5293 -0.4364 -0.1978
10103TIP3    H151800   3.557   3.803  11.315 -0.2935  1.3619  0.2023
10103TIP3    H251801   3.681   3.771  11.233 -1.3815 -1.7303 -0.3859
10104TIP3   OH251802   0.139   6.323   2.266 -0.1263 -0.2201  0.4888
10104TIP3    H151803   0.135   6.263   2.191  0.7796  0.9021 -0.5109
10104TIP3    H251804   0.049   6.331   2.296 -0.0466 -3.7470  2.0795
10105TIP3   OH251805   1.323   0.614  11.464  0.1786 -0.2984 -0.4174
10105TIP3    H151806   1.350   0.580  11.379  1.2927  0.4689 -0.3854
10105TIP3    H251807   1.360   0.553  11.528 -1.0159 -1.1161 -0.4701
10106TIP3   OH251808   1.524   4.936   4.133 -0.0986  0.0992 -0.0576
10106TIP3    H151809   1.562   4.850   4.120 -0.8645 -0.3058  0.3129
10106TIP3    H251810   1.450   4.921   4.192  1.1024  1.3454  1.8796
10107TIP3   OH251811   5.497   1.762  14.322  0.1191 -0.4884 -0.6524
10107TIP3    H151812   5.482   1.667  14.325  1.4297 -0.7021 -0.1801
10107TIP3    H251813   5.409   1.800  14.326 -0.3560 -1.6371  2.4368
10108TIP3   OH251814   0.131   3.794   5.484 -0.5431  0.3460 -0.1102
10108TIP3    H151815   0.036   3.797   5.486 -0.5513  3.3098 -1.1181
10108TIP3    H251816   0.158   3.819   5.573 -0.6461 -0.8933  0.2953
10109TIP3   OH251817   2.201   1.692  16.132 -0.0151 -0.5868 -0.0832
10109TIP3    H151818   2.288   1.693  16.092 -0.3297  3.0908 -1.1135
10109TIP3    H251819   2.141   1.676  16.059 -0.2932 -1.7552  0.3830
10110TIP3   OH251820   0.692   1.542  13.365 -0.4979  0.0769 -0.0610
10110TIP3    H151821   0.663   1.451  13.362 -1.4153  0.3743 -0.5236
10110TIP3    H251822   0.765   1.546  13.303 -0.8658 -0.2156 -0.5210
10111TIP3   OH251823   5.411   6.157   0.607  0.0141 -0.0738 -0.5737
10111TIP3    H151824   5.365   6.240   0.594 -0.8737 -0.2701  1.0457
10111TIP3    H251825   5.398   6.136   0.700  1.1020 -1.5107 -0.7014
10112TIP3   OH251826   4.806   3.909   2.281 -0.2981  0.0573  0.5088
10112TIP3    H151827   4.743   3.959   2.332 -1.2840 -1.8653  1.2731
10112TIP3    H251828   4.772   3.911   2.191 -0.5838  0.3759  0.6247
10113TIP3   OH251829   4.537   0.597  16.143 -0.5249 -0.0877  0.1887
10113TIP3    H151830   4.487   0.525  16.182 -1.4377  0.0816 -0.6347
10113TIP3    H251831   4.509   0.598  16.051  0.0797  0.8110  0.0103
10114TIP3   OH251832   4.113   0.348   4.218  0.1174  0.1132 -0.0529
10114TIP3    H151833   4.181   0.336   4.284 -2.0145 -1.5573  2.0015
10114TIP3    H251834   4.064   0.425   4.246  0.5945  0.8006 -1.0453
10115TIP3   OH251835   5.085   6.404   3.001 -0.2971  0.3483  0.1194
10115TIP3    H151836   4.990   6.402   3.011 -0.1429  0.8479  2.0714
10115TIP3    H251837   5.110   6.313   2.984 -0.9153 -0.2314  2.1128
10116TIP3   OH251838   3.829   4.262   1.040  0.3065  0.5936 -0.6681
10116TIP3    H151839   3.797   4.173   1.022  1.0162  0.5140 -1.6372
10116TIP3    H251840   3.833   4.267   1.135 -1.5392  0.2511 -0.5335
10117TIP3   OH251841   0.635   2.554   5.308 -0.7809 -0.0779 -0.0421
10117TIP3    H151842   0.625   2.459   5.315  0.2095 -0.2111 -0.2818
10117TIP3    H251843   0.545   2.587   5.309 -1.1711 -1.0553 -0.5614
10118TIP3   OH251844   4.824   0.399   4.858  0.1992 -0.3191  0.2944
10118TIP3    H151845   4.801   0.492   4.853  0.0488 -0.3163  0.9064
10118TIP3    H251846   4.740   0.354   4.858  0.2484 -0.4151  0.6851
10119TIP3   OH251847   6.543   0.702  14.956  0.4061 -0.6560 -0.4230
10119TIP3    H151848   6.447   0.699  14.955  0.3330 -0.1559 -3.3275
10119TIP3    H251849   6.566   0.709  15.048 -2.3441 -0.9092  0.3610
10120TIP3   OH251850   1.685   1.550   0.684 -0.0603 -0.1403  0.0121
10120TIP3    H151851   1.688   1.484   0.754 -1.4766 -1.9823 -1.5350
10120TIP3    H251852   1.615   1.610   0.710  1.2581  0.8250  1.4525
10121TIP3   OH251853   3.410   6.049  12.561 -0.2182 -0.3757  0.0695
10121TIP3    H151854   3.430   6.122  12.619 -2.4386  1.4426 -1.2894
10121TIP3    H251855   3.337   6.079  12.508 -0.9484 -3.4521 -0.9068
10122TIP3   OH251856   4.082   0.571  14.884  0.1499  0.0887  0.1055
10122TIP3    H151857   4.154   0.634  14.881 -1.5772  2.2355  0.6778
10122TIP3    H251858   4.089   0.531  14.971  2.0573 -1.6100 -0.7587
10123TIP3   OH251859   3.808   0.989   5.924  0.3203  0.0597  0.1915
10123TIP3    H151860   3.840   1.032   6.003 -2.6633  0.1721  1.4437
10123TIP3    H251861   3.727   0.946   5.950  0.1788 -1.4806 -2.3959
10124TIP3   OH251862   4.612   5.093   2.260 -0.5869  0.0635  0.4551
10124TIP3    H151863   4.634   5.166   2.318  3.2372 -0.8047  0.3622
10124TIP3    H251864   4.632   5.125   2.172 -2.5180  0.0628 -0.0167
10125TIP3   OH251865   5.987   5.217  14.670 -0.2806  0.3391  0.0523
10125TIP3    H151866   6.005   5.123  14.679  0.5698  0.4724 -0.1547
10125TIP3    H251867   5.966   5.246  14.758 -4.6737 -0.8091 -0.3829
10126TIP3   OH251868   0.359   5.583   5.856 -0.0522 -0.3133  0.3730
10126TIP3    H151869   0.329   5.622   5.774  0.9781 -0.2905 -0.0062
10126TIP3    H251870   0.311   5.499   5.861 -0.8513  0.1236  0.2518
10127TIP3   OH251871   3.657   0.872  14.137 -0.3225  0.1017 -0.9177
10127TIP3    H151872   3.634   0.965  14.134 -1.7815 -0.0554  1.9526
10127TIP3    H251873   3.734   0.869  14.195 -0.6963 -0.5400 -0.4503
10128TIP3   OH251874   6.248   1.551   0.864  0.1063 -0.3864  0.2507
10128TIP3    H151875   6.260   1.566   0.958 -2.6966  0.2178  0.6208
10128TIP3    H251876   6.153   1.549   0.852  0.2831  1.8270 -2.8975
10129TIP3   OH251877   3.513   1.930  14.957  0.3406 -0.5765  0.5418
10129TIP3    H151878   3.434   1.884  14.985 -1.5590  2.0348 -0.1354
10129TIP3    H251879   3.551   1.963  15.038 -0.0990 -0.5931  0.7570
10130TIP3   OH251880   4.940   3.556   1.424  0.8448  0.2179  0.0985
10130TIP3    H151881   4.948   3.651   1.409 -0.9749  0.5147  0.6736
10130TIP3    H251882   4.975   3.542   1.511 -1.3371  0.8821  1.1622
10131TIP3   OH251883   0.284   2.316  13.679  0.4577  0.1961  0.5001
10131TIP3    H151884   0.369   2.338  13.718  0.5489 -1.6778  1.4815
10131TIP3    H251885   0.296   2.229  13.641 -1.1587 -0.3856  1.2034
10132TIP3   OH251886   4.242   5.526   1.148  0.4246  0.3905 -0.4672
10132TIP3    H151887   4.173   5.468   1.179  1.5114 -0.5208  0.3314
10132TIP3    H251888   4.265   5.493   1.061  1.4335 -0.7945  0.2094
10133TIP3   OH251889   1.608   0.554   4.871 -0.2122  0.4557 -0.2812
10133TIP3    H151890   1.530   0.506   4.900 -0.3371 -0.3073 -1.7716
10133TIP3    H251891   1.681   0.497   4.895 -0.1858  0.6651  0.1410
10134TIP3   OH251892   6.725   2.869  15.270  0.1752 -0.1272  0.1050
10134TIP3    H151893   6.767   2.791  15.306  1.1724  0.7795  0.9591
10134TIP3    H251894   6.736   2.861  15.175 -0.2590 -1.2980  0.1345
10135TIP3   OH251895   1.025   2.188  14.927 -0.0859  0.1636  0.3633
10135TIP3    H151896   1.050   2.134  14.852 -0.8549 -2.1246  1.6703
10135TIP3    H251897   0.935   2.215  14.909  0.1635  0.7073 -0.1052
10136TIP3   OH251898   6.086   3.925  15.832 -0.5690  0.1199 -0.1871
10136TIP3    H151899   6.043   3.903  15.749  0.1974 -0.2835 -0.4817
10136TIP3    H251900   6.041   3.872  15.897  0.0818 -1.0030 -0.6301
10137TIP3   OH251901   4.036   4.924   1.775  0.1875 -0.7939 -0.7351
10137TIP3    H151902   4.050   4.932   1.681 -0.8516  2.8592 -0.7385
10137TIP3    H251903   4.082   5.000   1.812 -0.2326 -1.6018  1.5893
10138TIP3   OH251904   0.881   3.069  16.178  0.3274  0.3624 -0.5614
10138TIP3    H151905   0.828   3.110  16.110  0.1987 -0.8895 -1.2539
10138TIP3    H251906   0.956   3.128  16.190  0.7066  0.2760 -2.2998
10139TIP3   OH251907   4.057   3.368   4.626  0.4823  0.1053 -0.3385
10139TIP3    H151908   4.141   3.394   4.664  0.4361 -0.7929  0.4193
10139TIP3    H251909   4.002   3.447   4.632  1.4616  0.9103 -1.4739
10140TIP3   OH251910   2.970   1.549   3.930  0.3652  0.4673  0.1644
10140TIP3    H151911   2.958   1.608   4.004  2.1740  0.1426  0.7769
10140TIP3    H251912   2.984   1.607   3.855 -2.4175  0.8108 -0.1793
10141TIP3   OH251913   4.613   4.415   4.114  0.2787  0.3193 -0.0101
10141TIP3    H151914   4.651   4.400   4.201 -0.2089  0.1569  0.1760
10141TIP3    H251915   4.520   4.428   4.131  0.4505  2.2719 -0.2913
10142TIP3   OH251916   6.272   5.622  11.601 -0.4877 -0.3529 -0.0986
10142TIP3    H151917   6.238   5.643  11.514 -1.7121  0.7267  0.5929
10142TIP3    H251918   6.205   5.565  11.640 -1.3969  1.4321  1.1140
10143TIP3   OH251919   2.574   4.903   1.249 -0.0574  0.4445  0.1370
10143TIP3    H151920   2.536   4.986   1.217 -1.6532 -0.2344  0.1639
10143TIP3    H251921   2.618   4.866   1.173 -0.4673  0.7116 -0.2362
10144TIP3   OH251922   5.655   1.322   2.776  0.2674  0.3552 -0.4268
10144TIP3    H151923   5.666   1.235   2.815 -0.0378  0.4105 -0.2183
10144TIP3    H251924   5.724   1.327   2.710  0.6214  0.1560 -0.0775
10145TIP3   OH251925   2.674   1.031   2.578  0.2849 -0.2559 -0.4306
10145TIP3    H151926   2.652   0.988   2.661 -1.3356 -0.7635 -1.0928
10145TIP3    H251927   2.703   1.119   2.604 -0.7948 -0.1934  0.6660
10146TIP3   OH251928   1.109   3.960   1.491 -0.0131  0.1015 -0.5353
10146TIP3    H151929   1.101   3.929   1.581 -1.2662 -0.6915 -0.8999
10146TIP3    H251930   1.022   3.992   1.468 -0.0226 -0.7621 -1.8418
10147TIP3   OH251931   4.007   5.248  15.139 -0.2777  0.3635 -0.0511
10147TIP3    H151932   4.096   5.256  15.173  0.2152  1.0660 -1.4416
10147TIP3    H251933   4.013   5.179  15.072 -0.5288  1.1239 -0.8739
10148TIP3   OH251934   4.442   1.127  16.847  0.0378  0.3257 -0.2218
10148TIP3    H151935   4.361   1.174  16.824 -0.4820 -0.4624 -0.0574
10148TIP3    H251936   4.460   1.154  16.937 -1.0227 -0.7893  0.3650
10149TIP3   OH251937   2.117   2.738   0.845  0.4872  0.2479  0.3655
10149TIP3    H151938   2.047   2.770   0.790  1.4876  1.3964 -0.2818
10149TIP3    H251939   2.198   2.767   0.801  1.3494 -0.4219  1.4477
10150TIP3   OH251940   1.912   2.916  16.073 -0.3445  0.5186  0.1662
10150TIP3    H151941   2.005   2.904  16.057 -0.6973  1.0335 -2.8376
10150TIP3    H251942   1.873   2.830  16.053 -0.5236  0.0482  2.2217
10151TIP3   OH251943   2.832   0.751  15.527 -0.0669  0.2547 -0.0428
10151TIP3    H151944   2.795   0.665  15.507  0.7664 -0.4675  1.3978
10151TIP3    H251945   2.794   0.809  15.461 -0.7703 -1.1764 -0.9463
10152TIP3   OH251946   3.633   4.700  15.925  0.3024  0.1078  0.5259
10152TIP3    H151947   3.687   4.621  15.938  1.0070  0.5386  0.2882
10152TIP3    H251948   3.553   4.682  15.974  0.9573 -0.2540  1.4960
10153TIP3   OH251949   1.515   5.427   2.894 -0.0334 -0.6625  0.1469
10153TIP3    H151950   1.609   5.408   2.888  0.2103  0.5724 -0.5389
10153TIP3    H251951   1.510   5.506   2.949 -0.2979  1.3056 -2.4803
10154TIP3   OH251952   4.145   1.983   0.244  0.2683  0.1011 -0.1344
10154TIP3    H151953   4.081   1.921   0.208  1.8881 -0.7899 -1.6270
10154TIP3    H251954   4.227   1.934   0.245  1.0402  1.3589  1.3383
10155TIP3   OH251955   6.358   2.300   2.168  0.5634 -0.0493  0.1850
10155TIP3    H151956   6.388   2.298   2.077 -1.7384  1.1234 -0.6774
10155TIP3    H251957   6.296   2.228   2.175  0.7582 -0.1638  0.8585
10156TIP3   OH251958   6.386   1.920  11.850  0.3197 -0.2218  0.7100
10156TIP3    H151959   6.346   2.005  11.831 -0.3889 -0.5341  0.7630
10156TIP3    H251960   6.390   1.916  11.945  1.2400  0.1442  0.6993
10157TIP3   OH251961   1.347   0.025   1.719 -0.2877 -0.1104  0.0944
10157TIP3    H151962   1.261  -0.002   1.752 -0.0846 -0.8373  0.0511
10157TIP3    H251963   1.371   0.100   1.773  0.0028 -1.2221  1.5851
10158TIP3   OH251964   3.318   0.420  15.424 -0.0722  0.0874  0.0951
10158TIP3    H151965   3.399   0.410  15.474 -0.1885 -2.2878 -0.1035
10158TIP3    H251966   3.263   0.477  15.479  0.7487 -0.3976  1.4695
10159TIP3   OH251967   2.671   0.045  17.061  0.4532  0.3347 -0.0654
10159TIP3    H151968   2.643   0.137  17.059  0.1388  0.2411  0.0668
10159TIP3    H251969   2.646   0.011  16.975 -0.5185  0.0493  0.3271
10160TIP3   OH251970   5.328   0.110  15.533  0.0868  0.5081 -0.1598
10160TIP3    H151971   5.304   0.190  15.579 -0.2404 -0.3773  1.2604
10160TIP3    H251972   5.390   0.066  15.591 -1.0325 -1.0845 -0.1052
10161TIP3   OH251973   3.633   2.676   3.990 -0.2714  0.3905  0.3702
10161TIP3    H151974   3.673   2.589   3.989 -0.2120  0.4229 -0.2791
10161TIP3    H251975   3.675   2.720   4.065  0.8048  0.3694 -0.2008
10162TIP3   OH251976   4.107   5.773   0.958  0.0796  0.3525  0.4453
10162TIP3    H151977   4.162   5.725   1.019  0.4356 -1.3439 -1.1221
10162TIP3    H251978   4.028   5.793   1.008  0.7734 -0.0650  1.7600
10163TIP3   OH251979   1.346   6.325  12.144  0.3010 -0.0715 -0.3803
10163TIP3    H151980   1.335   6.270  12.222  1.0948  1.4242  0.8487
10163TIP3    H251981   1.332   6.414  12.176  2.0407  0.7049 -1.6365
10164TIP3   OH251982   2.542   0.522   1.521  0.3133 -0.0578 -0.2968
10164TIP3    H151983   2.529   0.579   1.597 -1.0831  0.7811 -1.1246
10164TIP3    H251984   2.467   0.540   1.464  0.3954 -1.9712 -1.0795
10165TIP3   OH251985   6.013   3.369   4.905 -0.6942 -0.0116 -0.0702
10165TIP3    H151986   6.008   3.400   4.995  0.6620  0.9493 -0.2840
10165TIP3    H251987   6.035   3.276   4.913  2.4399  0.6688  0.6762
10166TIP3   OH251988   0.710   4.518  13.364  0.0237  0.5945  0.1572
10166TIP3    H151989   0.733   4.565  13.284 -0.9964  0.1336 -0.4211
10166TIP3    H251990   0.791   4.519  13.416  0.6755  0.9813 -0.8301
10167TIP3   OH251991   0.308   6.736  16.351  0.4161  0.3086  0.0954
10167TIP3    H151992   0.259   6.803  16.303 -0.1490  0.3071  0.6631
10167TIP3    H251993   0.398   6.747  16.321  0.6351  2.3932  1.3584
10168TIP3   OH251994   3.933   4.420  14.535  0.3434 -0.2499  0.0554
10168TIP3    H151995   3.896   4.415  14.623  0.7039  0.3150  0.2435
10168TIP3    H251996   3.979   4.336  14.524 -0.7617 -0.8506 -0.0858
10169TIP3   OH251997   3.820   5.146   1.208 -0.6204  0.0488 -0.0462
10169TIP3    H151998   3.756   5.092   1.162  0.1384  0.1684 -1.3100
10169TIP3    H251999   3.903   5.124   1.166  0.6761 -2.0032  3.1993
10170TIP3   OH252000   3.658   2.313   1.799  0.2534  0.0158 -0.0654
10170TIP3    H152001   3.740   2.353   1.830  0.4700 -0.4781  0.0026
10170TIP3    H252002   3.591   2.349   1.857  0.5121 -0.0691  0.2960
10171TIP3   OH252003   5.470   3.239  12.922 -0.2026  0.2440 -0.3511
10171TIP3    H152004   5.536   3.174  12.898  1.9777  1.9232  0.7270
10171TIP3    H252005   5.506   3.322  12.891 -1.0947  1.4023  1.5354
10172TIP3   OH252006   3.702   6.513  15.778 -0.5025 -0.2687  0.0003
10172TIP3    H152007   3.756   6.501  15.700  1.1779 -0.9313  1.2175
10172TIP3    H252008   3.713   6.605  15.801  0.1715 -0.4197  0.2858
10173TIP3   OH252009   3.771   3.154  14.336 -0.2551  0.5322 -0.0997
10173TIP3    H152010   3.797   3.188  14.421  0.3858 -1.0113  0.3574
10173TIP3    H252011   3.732   3.069  14.355  0.4502 -0.1092 -1.3895
10174TIP3   OH252012   5.353   1.491   3.820  0.1729 -0.6262 -0.2095
10174TIP3    H152013   5.295   1.567   3.828  0.2813 -0.6616  1.3182
10174TIP3    H252014   5.379   1.490   3.728  1.1535  1.9520 -0.0512
10175TIP3   OH252015   2.724   4.645  16.684 -0.1635 -0.2175  0.1569
10175TIP3    H152016   2.714   4.674  16.594 -0.9144 -0.1266  0.2640
10175TIP3    H252017   2.643   4.671  16.727  0.4121  0.2200  0.9961
10176TIP3   OH252018   1.862   4.960  16.279 -0.8190  0.5715  0.2982
10176TIP3    H152019   1.935   4.995  16.228  0.0379 -2.4057 -0.7316
10176TIP3    H252020   1.899   4.940  16.365 -0.8042  0.5113  0.2791
10177TIP3   OH252021   2.123   2.559  16.737 -0.0262 -0.4466 -0.5006
10177TIP3    H152022   2.118   2.655  16.739  0.7423 -0.3617 -1.4612
10177TIP3    H252023   2.092   2.535  16.650  3.5721 -0.7112 -1.8889
10178TIP3   OH252024   3.457   3.724  11.516 -0.1130 -0.1783  0.0480
10178TIP3    H152025   3.433   3.752  11.605  0.1505  0.1864  0.0082
10178TIP3    H252026   3.538   3.674  11.528  0.6998  1.0533 -0.1306
10179TIP3   OH252027   3.250   1.466   4.932  0.0710  0.2705  0.4193
10179TIP3    H152028   3.180   1.503   4.985  0.5804  3.5665 -0.9565
10179TIP3    H252029   3.320   1.448   4.995 -0.6966  0.4513  1.3492
10180TIP3   OH252030   0.985   4.913  12.510 -0.0648 -0.4189  0.3385
10180TIP3    H152031   0.900   4.924  12.468  0.1295  0.1733  0.0806
10180TIP3    H252032   1.044   4.890  12.438  0.1812  0.1646  0.3411
10181TIP3   OH252033   6.707   6.375   5.839 -0.3321 -0.2795 -0.1054
10181TIP3    H152034   6.738   6.316   5.908 -1.1203 -0.4133  0.1440
10181TIP3    H252035   6.635   6.327   5.797 -1.6083  0.8674  0.7057
10182TIP3   OH252036   4.436   5.432   4.404  0.1932 -0.0074  0.0206
10182TIP3    H152037   4.448   5.440   4.499  0.5484  2.0747 -0.1447
10182TIP3    H252038   4.513   5.474   4.366 -1.5441  2.4525 -1.1120
10183TIP3   OH252039   1.294   2.286  14.552  0.9386  0.1394  0.3037
10183TIP3    H152040   1.249   2.327  14.478 -0.1876 -1.5686 -0.0221
10183TIP3    H252041   1.302   2.356  14.617 -2.8702  0.4725  0.6523
10184TIP3   OH252042   1.891   1.559  16.622 -0.2601  0.4378 -0.6387
10184TIP3    H152043   1.864   1.498  16.691  2.3615 -1.3303 -1.0278
10184TIP3    H252044   1.809   1.585  16.580 -1.6574 -1.2712  0.8466
10185TIP3   OH252045   2.103   3.045   5.576 -0.1989 -0.1957  0.4515
10185TIP3    H152046   2.148   2.962   5.594 -0.4310 -0.4710 -0.2041
10185TIP3    H252047   2.010   3.023   5.582 -0.2621  0.2439  1.2346
10186TIP3   OH252048   1.520   1.364   5.287  0.2529  0.4559 -0.4881
10186TIP3    H152049   1.518   1.315   5.204  0.2571 -0.2877 -0.0507
10186TIP3    H252050   1.576   1.440   5.267  0.2903  0.2657 -1.1567
10187TIP3   OH252051   4.778   2.297   1.336  0.4517 -0.4793 -0.3904
10187TIP3    H152052   4.708   2.270   1.395  0.4147  1.6294  0.6026
10187TIP3    H252053   4.751   2.262   1.251 -1.4847 -0.2709  0.0782
10188TIP3   OH252054   6.571   6.243   0.727  0.1877 -0.1317 -0.2764
10188TIP3    H152055   6.557   6.241   0.632 -1.2457  1.5253 -0.1500
10188TIP3    H252056   6.521   6.319   0.757 -0.0703 -1.0907  1.9161
10189TIP3   OH252057   3.762   2.013  11.689 -0.3701  0.6903 -0.7187
10189TIP3    H152058   3.690   1.980  11.636 -0.7349 -0.3557  0.3750
10189TIP3    H252059   3.840   1.976  11.648 -0.4617  1.5047 -1.6690
10190TIP3   OH252060   0.886   4.447  15.803  0.1135  0.6893  0.0401
10190TIP3    H152061   0.970   4.411  15.774  0.4518  0.9762  0.6442
10190TIP3    H252062   0.826   4.429  15.731  0.5904  0.0880 -0.2143
10191TIP3   OH252063   3.943   0.666  15.837 -0.2689  0.1579  0.5982
10191TIP3    H152064   3.951   0.753  15.876 -1.3753 -0.2860  1.8791
10191TIP3    H252065   3.850   0.645  15.845 -0.2776 -0.5448 -1.0416
10192TIP3   OH252066   1.967   3.467  11.812 -0.7216  0.2768  0.3014
10192TIP3    H152067   1.885   3.516  11.817 -0.0304  1.3847  1.2160
10192TIP3    H252068   2.011   3.486  11.894  0.5762 -0.0892 -0.2933
10193TIP3   OH252069   1.375   6.528  14.449 -0.0635  0.0130 -0.3287
10193TIP3    H152070   1.295   6.579  14.434 -1.5241 -1.2522  2.4006
10193TIP3    H252071   1.349   6.437  14.434  1.7524 -0.2465 -2.3907
10194TIP3   OH252072   5.792   6.557   6.193 -0.1140  0.0453  0.1098
10194TIP3    H152073   5.758   6.643   6.170 -0.1454  0.0717  0.2550
10194TIP3    H252074   5.877   6.575   6.234 -0.8702  0.1398  1.7307
10195TIP3   OH252075   1.581   4.333  14.055 -0.6479  0.5051  0.0258
10195TIP3    H152076   1.664   4.343  14.009 -0.0094  0.3820  1.1161
10195TIP3    H252077   1.538   4.418  14.045 -1.6587 -0.2243 -2.8461
10196TIP3   OH252078   5.717   1.325  15.827  0.0697 -0.5254 -0.1646
10196TIP3    H152079   5.657   1.343  15.900 -0.3865 -0.9366 -0.4303
10196TIP3    H252080   5.668   1.264  15.771 -0.0990  0.7684 -1.4712
10197TIP3   OH252081   4.178   5.091  12.710 -0.0162 -0.3616 -0.0221
10197TIP3    H152082   4.244   5.147  12.751  0.1081  0.4731 -1.3203
10197TIP3    H252083   4.129   5.055  12.784  1.1439 -0.0843  0.9198
10198TIP3   OH252084   4.466   6.603  14.947  0.6299 -0.7685 -0.3366
10198TIP3    H152085   4.450   6.541  15.018  2.4221 -2.6220 -1.4445
10198TIP3    H252086   4.453   6.689  14.987 -0.8441 -1.8021  1.5573
10199TIP3   OH252087   0.590   3.907  11.747 -0.1754 -0.3927 -0.2033
10199TIP3    H152088   0.587   3.842  11.676 -1.5088 -1.1605  0.5011
10199TIP3    H252089   0.559   3.988  11.707  1.6434 -0.1027 -1.1331
10200TIP3   OH252090   3.997   6.700  15.221 -0.3323 -0.0005  0.4625
10200TIP3    H152091   3.964   6.611  15.218 -0.3769  0.0332 -0.2056
10200TIP3    H252092   3.937   6.746  15.281  0.0147 -0.5396  1.2313
10201TIP3   OH252093   1.963   1.183   3.237  0.4712 -0.0718  0.4244
10201TIP3    H152094   1.907   1.135   3.176  1.2407  0.4754 -0.7266
10201TIP3    H252095   1.923   1.270   3.243  0.4600 -0.0897  0.6287
10202TIP3   OH252096   4.094   0.449  14.258 -0.5201  0.0405  1.1364
10202TIP3    H152097   4.061   0.537  14.277 -2.0639 -0.5099  1.1420
10202TIP3    H252098   4.027   0.390  14.293 -0.4643 -1.1075 -0.5467
10203TIP3   OH252099   1.643   6.746  17.344 -0.1721  0.3257 -0.3335
10203TIP3    H152100   1.725   6.787  17.316  0.1548  0.8405  1.3240
10203TIP3    H252101   1.585   6.819  17.365 -1.2458 -0.0226 -1.8553
10204TIP3   OH252102   2.711   2.036   4.504  0.0371  0.5959 -0.1433
10204TIP3    H152103   2.689   2.030   4.597  0.3774  1.5939  0.0099
10204TIP3    H252104   2.628   2.055   4.461 -0.0205  0.7194  0.0218
10205TIP3   OH252105   4.076   0.096   3.264  0.7682  0.3768  0.1976
10205TIP3    H152106   4.034   0.173   3.227  0.2652  0.0670  0.1182
10205TIP3    H252107   4.125   0.058   3.191  0.0235 -0.0623 -0.0833
10206TIP3   OH252108   0.460   5.709  15.280  0.5816 -0.3198 -0.3218
10206TIP3    H152109   0.438   5.641  15.344 -0.8704  0.9100  0.5358
10206TIP3    H252110   0.376   5.731  15.239  1.0039  1.0374 -0.4927
10207TIP3   OH252111   2.995   1.519   5.085 -0.6102  0.1649  0.1936
10207TIP3    H152112   2.958   1.593   5.037 -0.2616  0.6854  0.7196
10207TIP3    H252113   2.961   1.528   5.174 -0.5478 -0.2972  0.2695
10208TIP3   OH252114   2.974   0.358  16.836 -0.4390  0.1363  0.3099
10208TIP3    H152115   2.995   0.373  16.928 -0.1568 -0.1650  0.3005
10208TIP3    H252116   2.931   0.438  16.807 -0.5366  0.2299  0.7053
10209TIP3   OH252117   1.350   5.413   3.354 -0.4322 -0.0328  0.1160
10209TIP3    H152118   1.352   5.425   3.449  0.9214  0.0296  0.0994
10209TIP3    H252119   1.268   5.367   3.337 -0.2123 -0.9788  1.4353
10210TIP3   OH252120   1.407   0.399   4.529 -0.1515 -0.1469  0.1209
10210TIP3    H152121   1.364   0.433   4.608  0.3743  0.9855 -0.0560
10210TIP3    H252122   1.388   0.463   4.461 -1.1443 -1.4408 -0.8725
10211TIP3   OH252123   4.247   0.292   2.659  0.0394  0.5672 -0.4350
10211TIP3    H152124   4.250   0.366   2.720 -1.7354  1.3674 -1.2429
10211TIP3    H252125   4.190   0.228   2.702 -2.2471  1.6401 -1.6658
10212TIP3   OH252126   5.633   3.511  17.372  0.6151 -0.1419  0.4818
10212TIP3    H152127   5.648   3.481  17.461  1.1793  1.3574  0.9250
10212TIP3    H252128   5.562   3.574  17.379  1.7623  1.2527  0.1825
10213TIP3   OH252129   0.256   3.568   4.608 -0.4024 -0.0238  0.1824
10213TIP3    H152130   0.209   3.641   4.568 -2.4802 -0.4084  1.7841
10213TIP3    H252131   0.256   3.500   4.540 -2.3557 -0.0651  0.1673
10214TIP3   OH252132   1.263   3.335   5.768  0.0462 -0.1837 -1.1688
10214TIP3    H152133   1.253   3.247   5.804 -1.9134  0.0030 -1.1646
10214TIP3    H252134   1.224   3.330   5.680  2.2876  0.0619 -2.2535
10215TIP3   OH252135   0.048   6.565  17.302  0.0621 -0.1838 -0.6466
10215TIP3    H152136  -0.008   6.541  17.375 -1.0068 -0.2856 -1.4845
10215TIP3    H252137  -0.010   6.608  17.239  1.1408  0.7998 -1.0223
10216TIP3   OH252138   0.517   4.310   2.908  0.1039 -0.4793 -0.0363
10216TIP3    H152139   0.568   4.264   2.975 -0.5492  0.0336  0.8408
10216TIP3    H252140   0.566   4.390   2.891 -1.0098  0.6654  1.7854
10217TIP3   OH252141   2.209   5.600   4.655  0.0100  0.2398 -0.8169
10217TIP3    H152142   2.268   5.556   4.716  0.4936  0.3451 -1.1989
10217TIP3    H252143   2.201   5.689   4.689  1.1193  0.6080 -1.4702
10218TIP3   OH252144   2.807   5.097   0.649  0.6362 -0.3367  0.1998
10218TIP3    H152145   2.853   5.105   0.733  0.5469 -0.0118  0.2211
10218TIP3    H252146   2.744   5.026   0.663 -1.2629  1.4614  1.3074
10219TIP3   OH252147   5.505   3.543   2.454  0.1196 -0.0724  0.0010
10219TIP3    H152148   5.514   3.565   2.362 -0.5989  0.8738  0.1408
10219TIP3    H252149   5.464   3.620   2.494  2.6078  0.5504  1.5967
10220TIP3   OH252150   3.582   4.644  11.425 -0.8894  0.0470 -0.0611
10220TIP3    H152151   3.567   4.574  11.361 -0.6934  0.8431 -1.0078
10220TIP3    H252152   3.531   4.718  11.391 -0.3681  0.6401  0.4336
10221TIP3   OH252153   4.782   4.972   2.022 -0.6740  0.5418  0.5295
10221TIP3    H152154   4.831   4.895   1.993 -1.4359  1.2052 -3.0662
10221TIP3    H252155   4.715   4.937   2.080 -0.3806 -1.3976 -0.2282
10222TIP3   OH252156   5.037   6.418  16.342 -0.4101  0.1158  0.3325
10222TIP3    H152157   4.968   6.433  16.277 -0.8823 -1.5800  0.3909
10222TIP3    H252158   5.062   6.505  16.371 -0.0171  0.9399 -2.2884
10223TIP3   OH252159   4.983   2.899  16.118 -0.0628  0.3805 -0.2379
10223TIP3    H152160   5.070   2.938  16.126 -0.8395  2.1442  0.1056
10223TIP3    H252161   4.998   2.805  16.121  1.7708  0.6652  0.4137
10224TIP3   OH252162   2.337   6.610   4.307 -0.5771  0.0872  0.2972
10224TIP3    H152163   2.325   6.554   4.230 -0.4886  1.4851 -0.7804
10224TIP3    H252164   2.366   6.550   4.376 -1.2516 -1.3046 -0.5764
10225TIP3   OH252165   5.300   6.163   6.007 -0.8112 -0.4405  0.0348
10225TIP3    H152166   5.311   6.258   6.002  0.2291 -0.5889 -1.3760
10225TIP3    H252167   5.318   6.141   6.098 -0.6120  0.6810  0.2816
10226TIP3   OH252168   6.146   5.243   5.508  0.4125  0.1903 -0.0625
10226TIP3    H152169   6.189   5.199   5.435  1.2897  0.3698  0.3356
10226TIP3    H252170   6.065   5.194   5.522  0.0737  0.3519 -1.3566
10227TIP3   OH252171   4.902   5.761   4.895 -0.6190 -0.2308 -0.3941
10227TIP3    H152172   4.827   5.807   4.934 -1.6574 -0.7413 -1.7223
10227TIP3    H252173   4.890   5.670   4.921  0.2141 -0.1400  0.3638
10228TIP3   OH252174   3.860   5.850  12.840  0.1471 -0.2405  0.4469
10228TIP3    H152175   3.953   5.870  12.834  0.0648  0.0535  0.0418
10228TIP3    H252176   3.819   5.934  12.861 -0.2644  0.1933 -1.8228
10229TIP3   OH252177   4.341   5.225   4.755 -0.0343  0.2983 -0.0357
10229TIP3    H152178   4.385   5.302   4.720  0.4101  1.6341  3.1078
10229TIP3    H252179   4.384   5.208   4.839  0.3441 -3.8769 -0.8478
10230TIP3   OH252180   1.095   0.776  16.328 -0.0119 -0.0130  0.6488
10230TIP3    H152181   1.128   0.755  16.240 -1.7001  0.2339 -0.0999
10230TIP3    H252182   1.030   0.708  16.345  0.2700 -0.0238  1.6997
10231TIP3   OH252183   4.641   0.061   0.154 -0.3665 -0.0349  0.1164
10231TIP3    H152184   4.673  -0.013   0.205  0.3961 -0.2200 -0.5949
10231TIP3    H252185   4.646   0.030   0.063 -1.8779  0.2115 -0.0629
10232TIP3   OH252186   3.213   3.116   5.020  0.2386  0.0536  0.5260
10232TIP3    H152187   3.155   3.172   5.071 -2.3182 -0.2766 -1.7835
10232TIP3    H252188   3.204   3.029   5.059 -1.1311 -0.0532  0.0206
10233TIP3   OH252189   0.097   3.039  12.211 -0.0841 -0.1602  0.1434
10233TIP3    H152190   0.112   3.113  12.152 -1.1365  0.3654  0.5156
10233TIP3    H252191   0.165   3.048  12.278 -0.0040  0.2742  0.0041
10234TIP3   OH252192   4.173   0.386  13.008 -0.0210 -0.1994  0.2921
10234TIP3    H152193   4.187   0.405  13.101 -1.1754  4.7072 -0.2769
10234TIP3    H252194   4.256   0.407  12.966 -0.7060  1.8454 -0.1402
10235TIP3   OH252195   1.655   5.910   0.759  0.1861 -0.0162 -0.1188
10235TIP3    H152196   1.653   5.852   0.683  0.2122 -1.5674  0.9958
10235TIP3    H252197   1.563   5.923   0.782  0.1531  0.9815 -0.7778
10236TIP3   OH252198   5.608   3.849   4.924 -0.2504 -0.4063  0.6625
10236TIP3    H152199   5.584   3.863   4.832 -0.1585 -0.4920  0.6259
10236TIP3    H252200   5.687   3.902   4.937 -0.6412  0.1399  0.8704
10237TIP3   OH252201   4.931   5.131  14.166 -0.7095 -0.1512 -0.3462
10237TIP3    H152202   4.976   5.072  14.105  3.3657 -0.6621  2.7488
10237TIP3    H252203   4.939   5.217  14.125  1.2508 -0.5780 -0.9939
10238TIP3   OH252204   5.809   1.343  16.953 -0.3144  0.6799  0.4304
10238TIP3    H152205   5.742   1.316  17.015 -1.0547 -0.3118 -0.7396
10238TIP3    H252206   5.878   1.382  17.006 -1.8011  1.7384  1.6746
10239TIP3   OH252207   1.758   5.856   1.243 -0.0680  0.0394  0.1042
10239TIP3    H152208   1.805   5.935   1.218 -0.9446  0.1382 -1.3506
10239TIP3    H252209   1.678   5.888   1.286  1.0227 -0.1250  2.4128
10240TIP3   OH252210   4.629   4.999  15.681 -0.1201  0.1311  0.7345
10240TIP3    H152211   4.603   4.998  15.773 -0.7779  0.8967  0.5718
10240TIP3    H252212   4.557   5.045  15.637  1.1942  1.7719  0.1675
10241TIP3   OH252213   6.645   0.262   5.211 -0.1739  0.3824 -0.1117
10241TIP3    H152214   6.688   0.179   5.231  0.0887  0.9173  1.6937
10241TIP3    H252215   6.705   0.307   5.152  0.8204  0.2790  0.7971
10242TIP3   OH252216   1.230   2.359  17.367 -0.4545 -0.3261 -0.3395
10242TIP3    H152217   1.153   2.416  17.355  0.8190  1.4285 -0.6020
10242TIP3    H252218   1.250   2.328  17.279  0.1228  0.5967 -0.5467
10243TIP3   OH252219   6.058   5.464  15.356  0.1988 -0.3064  0.4172
10243TIP3    H152220   6.076   5.398  15.423  0.5849 -2.4699 -1.6315
10243TIP3    H252221   5.985   5.427  15.305  1.8329 -0.3266 -2.1269
10244TIP3   OH252222   2.314   0.182   0.793  0.3958  0.4389  0.5445
10244TIP3    H152223   2.229   0.187   0.749  1.3480  2.0239 -1.2824
10244TIP3    H252224   2.294   0.145   0.879 -2.1272  0.6825  0.1556
10245TIP3   OH252225   6.669   5.149   2.927  0.1242 -0.3520  0.2506
10245TIP3    H152226   6.661   5.072   2.984 -0.7950 -0.9753 -0.6841
10245TIP3    H252227   6.737   5.125   2.864 -1.2771 -1.0906 -1.0433
10246TIP3   OH252228   0.405   6.362   5.524 -0.5916  0.3036  0.2258
10246TIP3    H152229   0.409   6.393   5.615  0.8208  1.6421 -0.2624
10246TIP3    H252230   0.340   6.291   5.526 -1.5460  1.1638  2.0166
10247TIP3   OH252231   4.216   1.327   1.362  1.3345  0.4601 -0.6271
10247TIP3    H152232   4.181   1.306   1.449  0.4096  0.5615 -0.9614
10247TIP3    H252233   4.284   1.392   1.379  2.0136 -0.4144  0.1290
10248TIP3   OH252234   5.245   2.977   1.343  0.0606  0.0664 -0.3460
10248TIP3    H152235   5.162   2.933   1.362 -0.2102  0.3039 -0.9812
10248TIP3    H252236   5.312   2.914   1.371 -0.2927  0.6066  1.9688
10249TIP3   OH252237   0.582   1.958  15.651 -0.4709  0.4923 -0.0200
10249TIP3    H152238   0.645   1.958  15.579 -2.0504  0.4331 -1.4683
10249TIP3    H252239   0.520   1.888  15.629 -0.3474 -0.3125  2.0214
10250TIP3   OH252240   4.685   3.326   4.839 -0.8564  0.3063 -0.0360
10250TIP3    H152241   4.703   3.264   4.768  1.3036  2.8976 -1.9683
10250TIP3    H252242   4.754   3.309   4.903 -0.1220  0.8469 -0.6741
10251TIP3   OH252243   6.356   4.980  11.658  0.4647  0.2292  0.1332
10251TIP3    H152244   6.268   5.006  11.633 -0.4091 -2.1686  0.4358
10251TIP3    H252245   6.388   4.928  11.584  0.7799 -0.6384  0.8553
10252TIP3   OH252246   5.663   0.088  10.860  0.8323  0.3419  0.1099
10252TIP3    H152247   5.604   0.129  10.924 -0.2913 -0.3549 -0.4464
10252TIP3    H252248   5.748   0.128  10.876  0.1422  1.5931  0.7395
10253TIP3   OH252249   0.733   5.680   6.492 -0.2761  0.3942 -0.1928
10253TIP3    H152250   0.685   5.757   6.524 -1.8042 -1.3357  1.9269
10253TIP3    H252251   0.665   5.616   6.472  1.0048 -0.7473 -1.0433
10254TIP3   OH252252   5.489   2.996   0.795 -0.4392  0.2584  0.5694
10254TIP3    H152253   5.448   2.942   0.863 -2.1594 -0.1648 -0.7438
10254TIP3    H252254   5.433   2.985   0.718  0.8966  1.5074 -0.6457
10255TIP3   OH252255   5.814   4.063   4.969 -0.5481 -0.0039  0.0558
10255TIP3    H152256   5.867   4.097   5.041 -0.2842 -0.2963  0.0031
10255TIP3    H252257   5.875   4.014   4.915 -0.8587 -0.2901 -0.0440
10256TIP3   OH252258   3.831   4.369   4.785  0.0393  0.2331 -0.0812
10256TIP3    H152259   3.881   4.370   4.703  1.9168 -1.5406  0.9194
10256TIP3    H252260   3.770   4.296   4.774  1.1674 -0.8334  0.5187
10257TIP3   OH252261   5.266   4.906  13.513  0.3103 -0.3444  0.2656
10257TIP3    H152262   5.205   4.902  13.587 -0.1652  2.4777  0.1254
10257TIP3    H252263   5.342   4.856  13.542 -0.6046 -0.8781  1.8927
10258TIP3   OH252264   2.087   6.454   4.225 -0.4308 -0.3053 -0.3819
10258TIP3    H152265   2.088   6.374   4.279  1.3447  0.2810  0.5500
10258TIP3    H252266   2.048   6.520   4.282  0.5264  0.0804 -0.1525
10259TIP3   OH252267   4.838   0.621  16.771  0.1112 -0.8738 -0.1233
10259TIP3    H152268   4.854   0.531  16.800 -0.9698 -0.2299  2.8133
10259TIP3    H252269   4.744   0.633  16.780 -0.0443  0.0249 -2.3168
10260TIP3   OH252270   5.825   5.438   1.391 -0.3124 -0.8123  0.3069
10260TIP3    H152271   5.820   5.384   1.312  1.0305  0.9134 -1.0019
10260TIP3    H252272   5.901   5.494   1.378 -1.2354  0.9324  1.9244
10261TIP3   OH252273   2.623   5.336  17.248 -0.0490 -0.3995 -0.1917
10261TIP3    H152274   2.580   5.297  17.172 -0.7245 -1.5306  0.7315
10261TIP3    H252275   2.700   5.282  17.263  0.0649 -0.2019 -0.0598
10262TIP3   OH252276   3.564   5.860  13.015 -0.2114 -0.3316  0.1884
10262TIP3    H152277   3.582   5.816  13.098 -0.0284  1.5715  1.2306
10262TIP3    H252278   3.469   5.876  13.017 -0.3847 -1.2019 -0.4815
10263TIP3   OH252279   1.666   6.495  14.457  0.3398 -0.1151 -0.8311
10263TIP3    H152280   1.571   6.486  14.463  0.4030 -1.2307 -1.3288
10263TIP3    H252281   1.691   6.541  14.538 -0.2428 -2.8536  1.0420
10264TIP3   OH252282   2.782   6.612  14.600 -0.2036  0.6563  0.2483
10264TIP3    H152283   2.741   6.671  14.537  0.1027  0.7012  0.0846
10264TIP3    H252284   2.742   6.634  14.684 -1.8276 -0.5358 -0.1790
10265TIP3   OH252285   5.684   2.628  16.321  0.2874 -0.0754  0.1730
10265TIP3    H152286   5.595   2.594  16.317 -0.4618  1.7959 -0.1223
10265TIP3    H252287   5.684   2.703  16.262  2.1746 -0.2435 -0.1175
10266TIP3   OH252288   4.419   4.097  12.132 -0.1925  0.1677  0.2139
10266TIP3    H152289   4.329   4.116  12.161 -0.5493 -1.4951  0.2785
10266TIP3    H252290   4.411   4.083  12.038  0.2092  1.1168  0.0281
10267TIP3   OH252291   3.307   4.641  12.198  0.1129 -0.0949 -0.0110
10267TIP3    H152292   3.304   4.548  12.178  0.7236 -0.6321  2.1661
10267TIP3    H252293   3.349   4.681  12.122 -1.3828 -1.3599 -1.5732
10268TIP3   OH252294   0.032   1.426   3.274 -0.3140 -0.6502 -0.1016
10268TIP3    H152295   0.107   1.403   3.328  0.0259  1.3263  0.3436
10268TIP3    H252296  -0.035   1.363   3.298 -0.4249  0.5601  3.2279
10269TIP3   OH252297   1.763   2.046   2.863 -0.1710 -0.3642  0.1703
10269TIP3    H152298   1.814   2.054   2.943  0.5440  0.4093 -0.3468
10269TIP3    H252299   1.826   2.019   2.796 -0.5484 -0.0052 -0.3434
10270TIP3   OH252300   0.483   1.314  10.187  0.0758  0.4126 -0.3649
10270TIP3    H152301   0.455   1.337  10.275  3.6679 -1.3292  1.4428
10270TIP3    H252302   0.408   1.266  10.150 -1.9271  2.1084  1.2395
10271TIP3   OH252303   1.339   2.127   0.723  0.4435 -0.4941 -0.0021
10271TIP3    H152304   1.431   2.154   0.727  0.6785 -1.3213  0.6864
10271TIP3    H252305   1.327   2.074   0.802  0.0419 -2.3878 -1.2616
10272TIP3   OH252306   3.878   6.178  15.116 -0.3884  0.4100 -0.0146
10272TIP3    H152307   3.912   6.248  15.059  1.4123  1.0709  1.7292
10272TIP3    H252308   3.954   6.122  15.132 -2.0205 -2.6457 -2.1886
10273TIP3   OH252309   1.969   0.489   3.497  0.1997  0.0415 -0.4170
10273TIP3    H152310   2.010   0.558   3.445 -0.2899  0.1803 -0.6266
10273TIP3    H252311   2.033   0.469   3.565 -0.3168  1.9224  0.7220
10274TIP3   OH252312   1.093   5.904  16.369  0.2294  0.1971 -0.2999
10274TIP3    H152313   1.158   5.873  16.306 -1.1749 -1.4985 -0.9995
10274TIP3    H252314   1.070   5.827  16.419 -0.1589  1.1049  0.9608
10275TIP3   OH252315   5.385   3.022  16.850  0.4884  0.3599  0.2606
10275TIP3    H152316   5.290   3.029  16.864  0.5571  2.2763  0.0483
10275TIP3    H252317   5.421   3.017  16.939  0.1539 -1.6675  0.3243
10276TIP3   OH252318   3.410   2.897  13.689 -0.4199  0.5309 -0.3328
10276TIP3    H152319   3.349   2.925  13.758 -0.2282  0.3648 -0.0931
10276TIP3    H252320   3.423   2.975  13.635 -0.0843  0.8392  0.1861
10277TIP3   OH252321   6.377   6.615  14.618  0.5126  0.3026 -0.5481
10277TIP3    H152322   6.419   6.537  14.582  0.6110 -0.0740  0.3714
10277TIP3    H252323   6.412   6.623  14.706 -0.4578  0.6694 -0.1850
10278TIP3   OH252324   0.900   1.582  12.148 -0.0843 -0.6641 -0.4411
10278TIP3    H152325   0.937   1.573  12.060 -0.5746 -0.3763 -0.6827
10278TIP3    H252326   0.921   1.499  12.192  1.9449 -0.0245 -0.1322
10279TIP3   OH252327   2.830   1.665  15.535 -0.1094  0.2869 -0.0004
10279TIP3    H152328   2.837   1.634  15.625 -1.2468  1.7142  0.6213
10279TIP3    H252329   2.800   1.589  15.486  0.3064 -0.4536  0.8499
10280TIP3   OH252330   4.336   1.400  16.862 -0.1199 -0.6109 -0.1390
10280TIP3    H152331   4.429   1.403  16.881 -0.5815 -2.1040  2.9033
10280TIP3    H252332   4.330   1.419  16.768  3.0234  1.3411 -0.0658
10281TIP3   OH252333   0.988   3.190   2.139 -0.0121  0.8171  0.5295
10281TIP3    H152334   1.052   3.226   2.078 -0.7309  0.8184 -0.2359
10281TIP3    H252335   1.032   3.192   2.224  1.9623 -1.5023 -0.3465
10282TIP3   OH252336   2.553   6.244  15.480  0.4281 -0.5394  0.0987
10282TIP3    H152337   2.558   6.150  15.495 -0.5975 -0.4729  1.0182
10282TIP3    H252338   2.598   6.283  15.555 -2.3466 -0.2611  1.7632
10283TIP3   OH252339   1.217   4.547   1.070 -0.5239  0.0161  0.4216
10283TIP3    H152340   1.298   4.498   1.085 -0.4892 -0.2750 -0.6180
10283TIP3    H252341   1.210   4.551   0.975 -0.2293  2.5475  0.4536
10284TIP3   OH252342   0.841   0.853   2.345 -0.6820  0.7635 -0.3066
10284TIP3    H152343   0.783   0.812   2.409  0.3368 -2.5593 -1.3014
10284TIP3    H252344   0.835   0.797   2.268  3.2143  0.6637 -0.7281
10285TIP3   OH252345   6.562   4.020   1.063 -0.2607 -0.3221 -0.4878
10285TIP3    H152346   6.504   4.072   1.118  1.0522 -1.3904  2.1224
10285TIP3    H252347   6.539   3.929   1.083  0.3188 -0.7645 -1.6958
10286TIP3   OH252348   2.170   1.978   3.131  0.1683  0.6881 -0.2646
10286TIP3    H152349   2.176   1.883   3.140 -1.4448  0.6403  0.6445
10286TIP3    H252350   2.240   2.000   3.070  1.8715 -0.8427  1.0153
10287TIP3   OH252351   3.981   4.654   6.576  0.1936 -0.0621 -0.3105
10287TIP3    H152352   3.971   4.575   6.523 -1.2589  0.1005 -0.3345
10287TIP3    H252353   4.056   4.636   6.633  1.0818 -0.6772 -1.6419
10288TIP3   OH252354   1.516   3.608  16.047  0.5113  0.2741  0.3205
10288TIP3    H152355   1.494   3.688  15.999 -1.0647 -0.7413 -0.7504
10288TIP3    H252356   1.499   3.630  16.138  1.0140  1.4400  0.1536
10289TIP3   OH252357   2.103   4.440   4.594 -0.2707 -0.0763  0.3378
10289TIP3    H152358   2.164   4.453   4.666  2.1571 -0.5958 -1.5118
10289TIP3    H252359   2.081   4.529   4.566 -1.1007  0.1265  1.5519
10290TIP3   OH252360   0.825   3.968   3.485  0.0401 -0.6199  0.0174
10290TIP3    H152361   0.875   4.047   3.506 -0.3851 -0.1531 -0.6717
10290TIP3    H252362   0.864   3.900   3.540 -0.2205  0.2665  1.3512
10291TIP3   OH252363   0.582   2.548  14.218 -0.1065  0.4006  0.3581
10291TIP3    H152364   0.601   2.585  14.132  1.0974 -0.1840  0.3564
10291TIP3    H252365   0.626   2.607  14.280 -0.3021  0.3764  0.5227
10292TIP3   OH252366   4.911   1.543   2.641 -0.5392  0.1869  0.3320
10292TIP3    H152367   4.851   1.470   2.627  0.0844 -0.3944  0.6337
10292TIP3    H252368   4.993   1.515   2.602 -0.2925  0.7334  0.4476
10293TIP3   OH252369   0.290   1.943  15.973 -0.2093  0.1692 -0.2269
10293TIP3    H152370   0.320   1.853  15.982 -0.4628  0.0923 -0.1393
10293TIP3    H252371   0.201   1.936  15.938  0.8698  0.4494 -3.3995
10294TIP3   OH252372   3.488   4.595   3.066 -0.0670 -0.1062 -0.5006
10294TIP3    H152373   3.492   4.538   3.143 -1.4625  0.5465  0.0850
10294TIP3    H252374   3.543   4.551   3.001  3.8698  0.8565  1.8053
10295TIP3   OH252375   2.505   0.961  12.901  0.3122  0.3131 -0.2642
10295TIP3    H152376   2.560   0.912  12.962  1.8578  2.5101  0.2152
10295TIP3    H252377   2.542   0.943  12.815 -0.9385 -1.5853 -0.4656
10296TIP3   OH252378   0.274   5.026   2.704  0.1768 -0.1402 -0.6222
10296TIP3    H152379   0.361   5.025   2.745  0.9763 -2.0754 -2.1798
10296TIP3    H252380   0.290   4.997   2.614 -1.9908  0.3737 -1.2268
10297TIP3   OH252381   0.553   0.938  11.889 -0.3992  0.2666  0.2963
10297TIP3    H152382   0.620   0.955  11.955 -0.2994  1.4570 -0.0932
10297TIP3    H252383   0.482   0.999  11.910 -1.2636 -0.7767  0.5329
10298TIP3   OH252384   2.403   1.814  11.644 -0.7039  0.2438 -0.1544
10298TIP3    H152385   2.471   1.880  11.656 -0.1337 -0.1972 -0.9456
10298TIP3    H252386   2.402   1.765  11.727 -1.3801  1.4500  0.5866
10299TIP3   OH252387   0.003   4.270  16.159  0.3480  0.6989  0.3449
10299TIP3    H152388   0.008   4.344  16.098 -0.8194 -0.0483 -0.6792
10299TIP3    H252389  -0.089   4.265  16.184  0.4178 -0.3701  0.4346
10300TIP3   OH252390   3.890   1.311  13.826  0.1465  0.4706 -0.2934
10300TIP3    H152391   3.841   1.317  13.908  0.6966  0.2786  0.0522
10300TIP3    H252392   3.962   1.251  13.845 -0.9977 -1.4215 -1.5524
10301TIP3   OH252393   0.179   0.605   4.981  0.1177 -0.1923  0.0142
10301TIP3    H152394   0.228   0.547   4.922 -1.1466  0.0598 -1.3542
10301TIP3    H252395   0.215   0.692   4.964  0.9729 -0.3382  0.9610
10302TIP3   OH252396   6.576   3.549  13.139 -0.2760 -0.1890  0.1380
10302TIP3    H152397   6.520   3.474  13.123  2.1316 -1.8719 -1.0079
10302TIP3    H252398   6.588   3.590  13.053  1.9048 -1.1858 -0.1043
10303TIP3   OH252399   0.552   3.397  15.158 -0.7907 -0.1642  0.1427
10303TIP3    H152400   0.506   3.332  15.210  0.2882  0.1189  1.5315
10303TIP3    H252401   0.628   3.351  15.123 -0.1275  0.2733  0.9721
10304TIP3   OH252402   6.025   0.448  15.462 -0.2355  0.5785  0.9488
10304TIP3    H152403   6.023   0.481  15.372 -1.8348 -1.0456  0.3347
10304TIP3    H252404   6.092   0.502  15.505  1.4151  0.6776 -1.4812
10305TIP3   OH252405   2.726   0.695  13.922 -0.6405 -0.0839  0.1655
10305TIP3    H152406   2.646   0.719  13.876  0.2616  1.5879 -0.6453
10305TIP3    H252407   2.761   0.620  13.873 -1.5646 -0.6601  0.3761
10306TIP3   OH252408   4.165   1.399  13.150 -0.1218 -0.2325  0.4245
10306TIP3    H152409   4.222   1.413  13.075 -1.8370 -1.0101 -1.1051
10306TIP3    H252410   4.130   1.311  13.137  0.0310 -0.6389  2.5069
10307TIP3   OH252411   0.557   3.768  16.947  0.2575 -0.0973 -0.5695
10307TIP3    H152412   0.530   3.698  16.887  0.2767  0.5999 -1.4113
10307TIP3    H252413   0.615   3.823  16.895  1.0978 -0.0359  0.4030
10308TIP3   OH252414   2.637   3.484   3.886 -0.3849  0.0048 -0.0421
10308TIP3    H152415   2.561   3.444   3.926 -0.3733 -1.2647 -1.2036
10308TIP3    H252416   2.712   3.434   3.920 -0.0360  1.2286  1.0797
10309TIP3   OH252417   2.631   0.632   4.555 -0.2189 -0.3185  0.3994
10309TIP3    H152418   2.721   0.600   4.551  0.2510  1.0254 -0.5489
10309TIP3    H252419   2.613   0.664   4.467 -0.4575  2.3596  1.3176
10310TIP3   OH252420   5.254   2.733   0.321 -0.1192 -0.3395 -0.4126
10310TIP3    H152421   5.275   2.725   0.415  0.6171  2.4364 -0.2552
10310TIP3    H252422   5.314   2.800   0.289  0.6760 -2.2425 -3.2819
10311TIP3   OH252423   3.230   3.239   1.215 -0.7501 -0.6769 -0.0245
10311TIP3    H152424   3.277   3.164   1.251  0.1134  0.0289  0.3485
10311TIP3    H252425   3.175   3.269   1.287  0.7883  0.5787  0.6814
10312TIP3   OH252426   1.766   2.602   4.932 -0.7040  0.3488  0.2082
10312TIP3    H152427   1.843   2.623   4.879 -0.5245 -0.3104  0.1971
10312TIP3    H252428   1.697   2.584   4.869 -0.9938  1.3444  0.2190
10313TIP3   OH252429   5.228   1.930   0.262 -0.4057  0.1156  0.2941
10313TIP3    H152430   5.317   1.924   0.298 -0.1454  0.8160 -0.2186
10313TIP3    H252431   5.221   1.854   0.204 -0.7679 -0.9346  1.6577
10314TIP3   OH252432   2.984   0.678  11.200  0.0812  0.2110  0.5270
10314TIP3    H152433   2.912   0.730  11.164 -0.0261 -0.5817 -0.4699
10314TIP3    H252434   3.041   0.662  11.124  1.2473  0.7111  1.2677
10315TIP3   OH252435   1.505   2.088   3.478  0.0325 -0.6887 -0.5330
10315TIP3    H152436   1.491   2.085   3.384  0.0730 -2.3890 -0.5172
10315TIP3    H252437   1.486   1.999   3.508  1.0805 -0.4637  0.9048
10316TIP3   OH252438   5.763   2.543  15.945  0.3437  0.2357 -0.4398
10316TIP3    H152439   5.715   2.626  15.943 -0.3576 -0.1661 -1.6439
10316TIP3    H252440   5.824   2.552  16.018 -1.1559  1.0030  0.7793
10317TIP3   OH252441   5.415   2.770   1.488  0.1929 -0.1630 -0.1058
10317TIP3    H152442   5.350   2.735   1.549  0.3098 -1.4144 -0.6680
10317TIP3    H252443   5.494   2.719   1.505  1.1733  1.5837  0.8221
10318TIP3   OH252444   1.080   6.265  10.895  0.1519  0.4810  0.3361
10318TIP3    H152445   1.128   6.224  10.823 -0.2440  1.3211 -0.4285
10318TIP3    H252446   1.109   6.357  10.893 -0.3800  0.6605  0.8116
10319TIP3   OH252447   1.573   0.272  13.414 -0.2949  0.0575  0.0823
10319TIP3    H152448   1.649   0.304  13.365  0.5409 -1.6357  0.2114
10319TIP3    H252449   1.506   0.257  13.347 -0.1351  0.4703 -0.1714
10320TIP3   OH252450   3.820   0.141   0.879 -0.0546 -0.2137 -0.2840
10320TIP3    H152451   3.732   0.105   0.891  0.0560 -0.3036  0.2556
10320TIP3    H252452   3.816   0.185   0.794 -0.7013  0.0159 -0.1444
10321TIP3   OH252453   5.839   6.515   5.260 -0.3528  0.1059  0.4701
10321TIP3    H152454   5.758   6.487   5.302  0.3146 -0.6761  1.2637
10321TIP3    H252455   5.907   6.458   5.296  0.2297 -0.8436 -1.9092
10322TIP3   OH252456   0.684   4.913  15.123 -0.5703 -0.5678 -0.1767
10322TIP3    H152457   0.644   4.902  15.037  0.5142  1.3390 -0.9842
10322TIP3    H252458   0.779   4.911  15.107 -0.3175  1.7772  0.6108
10323TIP3   OH252459   2.588   4.779  17.243  0.1524 -0.4632  0.3431
10323TIP3    H152460   2.591   4.870  17.273 -1.1729 -0.3014  0.0459
10323TIP3    H252461   2.653   4.775  17.173 -0.9991  0.7513 -0.8758
10324TIP3   OH252462   1.780   4.474   3.456 -0.0427 -0.8119  0.2064
10324TIP3    H152463   1.820   4.523   3.384  0.1482  0.8750  1.3826
10324TIP3    H252464   1.766   4.386   3.421  0.7703 -0.2693 -1.6107
10325TIP3   OH252465   1.159   4.610   0.489 -0.0419 -0.6576 -0.1293
10325TIP3    H152466   1.253   4.615   0.472 -0.1818  0.4069 -0.7173
10325TIP3    H252467   1.120   4.659   0.416 -1.0649 -1.3225 -0.0345
10326TIP3   OH252468   5.102   2.734  14.341 -0.5659  0.2276 -0.2130
10326TIP3    H152469   5.035   2.722  14.408 -0.5091  1.0503  0.0007
10326TIP3    H252470   5.122   2.828  14.343 -0.4116  0.2340 -1.2363
10327TIP3   OH252471   2.766   1.614   0.003  0.6809 -0.2523  0.0824
10327TIP3    H152472   2.851   1.656   0.014  0.4094  0.8737 -1.7397
10327TIP3    H252473   2.733   1.604   0.093  2.4194 -0.1120  0.7853
10328TIP3   OH252474   1.974   1.913  14.315 -0.7554  0.2953  0.4772
10328TIP3    H152475   2.059   1.869  14.318 -1.1703 -0.6882 -1.1565
10328TIP3    H252476   1.934   1.895  14.400  0.9898  1.5260  1.6357
10329TIP3   OH252477   2.793   4.321  11.943 -0.4657 -0.1896  0.2800
10329TIP3    H152478   2.765   4.312  11.852  1.0449 -3.3329  0.0031
10329TIP3    H252479   2.816   4.414  11.952 -3.1016  0.7881 -1.6990
10330TIP3   OH252480   2.235   1.842   1.116  0.1054  0.6832  0.5182
10330TIP3    H152481   2.300   1.776   1.140  0.0233  0.9245  1.4279
10330TIP3    H252482   2.177   1.798   1.055 -0.6755 -0.4924  2.0476
10331TIP3   OH252483   3.360   0.635   2.983 -0.3368  0.2300 -0.5509
10331TIP3    H152484   3.323   0.632   2.895 -0.0026 -1.2473 -0.6699
10331TIP3    H252485   3.384   0.545   3.002  2.3387  0.9523 -0.1149
10332TIP3   OH252486   1.604   1.990  17.138 -0.0032 -0.0447  0.0774
10332TIP3    H152487   1.611   2.043  17.217  2.5929  0.6772 -0.5764
10332TIP3    H252488   1.533   1.928  17.158 -0.5110  1.1505  2.3222
10333TIP3   OH252489   3.214   6.661  16.180 -0.0470 -0.6951 -0.0523
10333TIP3    H152490   3.249   6.591  16.125  2.0715 -0.0878  0.4077
10333TIP3    H252491   3.132   6.626  16.215  1.1722 -3.1771  0.5589
10334TIP3   OH252492   6.502   3.909  13.017 -0.4044 -0.3805 -0.0400
10334TIP3    H152493   6.533   3.821  12.998  0.8877 -0.2042  1.1425
10334TIP3    H252494   6.487   3.949  12.931  3.6284 -0.1450 -0.8165
10335TIP3   OH252495   6.622   2.556  17.051  0.4920  0.8788  0.2078
10335TIP3    H152496   6.527   2.544  17.042  0.6548 -0.9870  0.6404
10335TIP3    H252497   6.635   2.650  17.040 -1.5088  1.3033  0.9766
10336TIP3   OH252498   6.718   4.032   3.713  0.0945  0.8019  0.0243
10336TIP3    H152499   6.758   3.956   3.672 -1.5800 -0.9961  1.5778
10336TIP3    H252500   6.779   4.056   3.783 -0.4862 -0.6742  1.0865
10337TIP3   OH252501   0.182   4.458   0.310 -0.1775  0.2777  0.4559
10337TIP3    H152502   0.261   4.472   0.362  0.7144 -0.0919 -0.7572
10337TIP3    H252503   0.152   4.546   0.288 -0.7158  0.4403  1.7974
10338TIP3   OH252504   5.257   2.455  14.491 -0.0460 -0.4610  0.3408
10338TIP3    H152505   5.315   2.379  14.489 -1.0675 -1.2861  1.0748
10338TIP3    H252506   5.194   2.435  14.560 -1.3645  0.2811 -0.6088
10339TIP3   OH252507   4.631   5.173  11.904 -0.6430 -0.1702  0.3993
10339TIP3    H152508   4.613   5.083  11.879  1.0766 -0.7541  1.0840
10339TIP3    H252509   4.707   5.198  11.852 -1.0304  0.8583  0.2956
10340TIP3   OH252510   4.197   1.105  14.858 -0.0221  0.9098 -0.8337
10340TIP3    H152511   4.132   1.143  14.917  1.2900  1.2265  0.4731
10340TIP3    H252512   4.265   1.072  14.917  0.6208 -0.1486 -2.1234
10341TIP3   OH252513   4.524   1.325   5.790  0.5433 -0.1112 -0.0309
10341TIP3    H152514   4.570   1.298   5.870  1.8708  1.4396 -0.1990
10341TIP3    H252515   4.508   1.244   5.743 -1.3963 -1.2163  2.3344
10342TIP3   OH252516   0.791   6.049   0.144 -0.0733  0.4846  0.0968
10342TIP3    H152517   0.845   6.128   0.136 -0.7860  1.4912  3.6431
10342TIP3    H252518   0.718   6.064   0.083  0.5634  1.8558 -0.3760
10343TIP3   OH252519   6.257   5.473  12.583 -0.2173 -0.3199 -0.7187
10343TIP3    H152520   6.226   5.502  12.497 -2.5966 -1.6692 -0.3798
10343TIP3    H252521   6.328   5.411  12.563  1.2646  1.5369 -1.5595
10344TIP3   OH252522   5.852   6.399  14.371 -0.3891 -0.2331  0.0854
10344TIP3    H152523   5.940   6.401  14.334 -0.1415 -1.3158  0.5732
10344TIP3    H252524   5.793   6.401  14.295  0.0437  0.4349 -0.2427
10345TIP3   OH252525   4.470   3.299  17.095 -0.6799 -0.8219 -0.6038
10345TIP3    H152526   4.476   3.353  17.173 -0.9390 -0.2780 -0.9590
10345TIP3    H252527   4.377   3.273  17.091 -0.8589 -0.1125 -1.2172
10346TIP3   OH252528   1.764   4.026   0.606 -0.3106  0.3418  0.2222
10346TIP3    H152529   1.686   4.046   0.659  0.1263 -0.2653  1.1270
10346TIP3    H252530   1.777   3.932   0.618  0.8256  0.5154  0.4701
10347TIP3   OH252531   0.689   6.009   1.753  0.1005 -0.1459  0.3808
10347TIP3    H152532   0.698   6.084   1.694 -0.0266  0.7356  1.4607
10347TIP3    H252533   0.607   5.967   1.726  0.5103 -0.3090 -0.6662
10348TIP3   OH252534   2.746   3.674   5.405 -0.2487  0.1076 -0.3385
10348TIP3    H152535   2.829   3.628   5.414 -0.4300 -0.1003  0.3527
10348TIP3    H252536   2.754   3.751   5.462 -0.8458 -0.3820  0.4275
10349TIP3   OH252537   4.053   3.486  15.187  0.4470  0.1537 -1.0077
10349TIP3    H152538   4.021   3.509  15.274  2.1927  0.7108 -0.4664
10349TIP3    H252539   4.124   3.549  15.170  1.1698 -0.9194 -2.1639
10350TIP3   OH252540   1.827   1.001  11.532  0.1819  0.0785 -0.4397
10350TIP3    H152541   1.866   1.087  11.516 -2.1879  0.9414 -2.2342
10350TIP3    H252542   1.807   0.967  11.445 -0.0889 -1.7492  0.2926
10351TIP3   OH252543   0.299   2.102  12.266 -0.0241  0.8679  0.2056
10351TIP3    H152544   0.271   2.168  12.330  0.2069  0.3326  0.8648
10351TIP3    H252545   0.279   2.018  12.306  3.0958  0.3955  1.0520
10352TIP3   OH252546   5.721   0.599   0.238  0.4184 -0.4572  0.2942
10352TIP3    H152547   5.674   0.566   0.314 -1.0608  0.5177 -0.1509
10352TIP3    H252548   5.701   0.692   0.236  0.2363 -0.4985 -1.4091
10353TIP3   OH252549   4.082   2.299   6.449 -0.4922  0.3399 -0.3116
10353TIP3    H152550   3.989   2.308   6.427 -0.4207  0.4227 -0.5952
10353TIP3    H252551   4.088   2.220   6.502 -0.5106 -0.5747 -1.6121
10354TIP3   OH252552   0.961   2.414  15.194 -0.4478  0.1922  0.5135
10354TIP3    H152553   0.979   2.490  15.249 -2.1880  0.7755  0.3521
10354TIP3    H252554   1.044   2.396  15.150 -0.2009  2.5967 -0.1723
10355TIP3   OH252555   1.892   3.015  16.413  0.4070 -0.5552 -0.0155
10355TIP3    H152556   1.913   3.107  16.433  1.4698 -0.7640 -0.1387
10355TIP3    H252557   1.834   2.988  16.484 -2.0432  0.9396 -1.2999
10356TIP3   OH252558   4.735   2.979   0.851  0.0745  0.0106  0.9061
10356TIP3    H152559   4.687   2.916   0.905 -0.4498  0.2305  0.7015
10356TIP3    H252560   4.775   2.925   0.782 -1.4283  0.0293 -0.0273
10357TIP3   OH252561   6.784   0.044   5.169 -0.0337 -0.0112 -0.6087
10357TIP3    H152562   6.719   0.037   5.099 -1.6561  0.9935  0.7464
10357TIP3    H252563   6.816  -0.046   5.180 -3.3799 -1.1859  0.6874
10358TIP3   OH252564   1.830   0.755   5.863  0.1118  0.5348  0.5515
10358TIP3    H152565   1.875   0.828   5.905  0.9526  0.8021 -0.7596
10358TIP3    H252566   1.740   0.786   5.852  0.2942  1.1036  0.6207
10359TIP3   OH252567   4.427   6.442   5.126  0.1389 -0.7275  0.0806
10359TIP3    H152568   4.341   6.483   5.137 -0.3250 -1.8045  0.5237
10359TIP3    H252569   4.488   6.508   5.160 -0.4123  0.4216 -1.0836
10360TIP3   OH252570   4.791   6.147   6.123 -0.7049 -0.2744 -0.0399
10360TIP3    H152571   4.853   6.192   6.180 -0.6316  0.4879 -0.7034
10360TIP3    H252572   4.838   6.067   6.096 -0.1943  0.0495 -0.1386
10361TIP3   OH252573   0.046   5.916   5.911 -0.0112  0.3681  0.3397
10361TIP3    H152574  -0.008   5.843   5.940 -0.3164  0.8150  0.9083
10361TIP3    H252575   0.136   5.888   5.928 -0.1039 -0.0324  0.1826
10362TIP3   OH252576   1.187   4.888  15.551  0.5607 -0.5737 -0.0642
10362TIP3    H152577   1.254   4.853  15.491  1.0074 -2.9559  1.6656
10362TIP3    H252578   1.232   4.957  15.600  1.1945 -0.8904 -0.1880
10363TIP3   OH252579   3.337   4.090   2.496 -0.1780  0.5795 -0.2277
10363TIP3    H152580   3.283   4.011   2.501 -0.0829  0.5840  1.7164
10363TIP3    H252581   3.427   4.058   2.508 -0.1034  0.9161  0.1401
10364TIP3   OH252582   1.013   6.252  13.955  0.4111  0.0543  0.6230
10364TIP3    H152583   1.059   6.281  13.877 -0.2610 -1.0224 -0.2100
10364TIP3    H252584   1.052   6.167  13.976 -0.9151 -0.7275  0.0899
10365TIP3   OH252585   1.957   3.595  12.876 -0.1081  0.5106 -0.2882
10365TIP3    H152586   1.875   3.636  12.852  1.8421  3.8455 -1.9948
10365TIP3    H252587   2.016   3.613  12.803  3.1515  1.6490  2.3329
10366TIP3   OH252588   5.203   2.675   3.958 -0.1659 -0.2617  0.2312
10366TIP3    H152589   5.233   2.763   3.936  1.0741 -0.4924  0.9207
10366TIP3    H252590   5.135   2.656   3.893 -0.4626  1.1922  0.0744
10367TIP3   OH252591   3.806   2.110   1.015 -0.0808  0.1741  0.3262
10367TIP3    H152592   3.803   2.099   1.110 -0.1242  0.4918  0.3638
10367TIP3    H252593   3.809   2.021   0.980 -0.4946  0.0470  0.6081
10368TIP3   OH252594   0.123   1.368   6.712  0.6900 -0.1406  0.4120
10368TIP3    H152595   0.110   1.296   6.650  1.3361  1.1533 -1.2932
10368TIP3    H252596   0.218   1.370   6.725  0.7643  0.9331 -0.2344
10369TIP3   OH252597   3.910   5.006  16.235  0.0295 -0.0196  0.0781
10369TIP3    H152598   3.873   4.968  16.155  1.0674  0.2101 -0.5323
10369TIP3    H252599   3.922   5.098  16.214  1.8046 -0.2534 -0.1024
10370TIP3   OH252600   6.459   5.405  17.242 -0.5244 -0.3148 -0.4864
10370TIP3    H152601   6.420   5.426  17.327  0.4676  0.3341 -0.1682
10370TIP3    H252602   6.464   5.489  17.196 -0.2699 -0.5190 -0.8403
10371TIP3   OH252603   4.514   6.174  16.887 -0.2170 -0.4472  0.5070
10371TIP3    H152604   4.479   6.120  16.817 -0.0533 -0.9953  0.8425
10371TIP3    H252605   4.438   6.200  16.938 -0.6096  1.6639 -1.0170
10372TIP3   OH252606   6.701   4.862   5.889 -0.0939  0.4771 -1.1195
10372TIP3    H152607   6.792   4.831   5.886  0.0744  1.0088 -2.6321
10372TIP3    H252608   6.692   4.905   5.974  0.2080 -2.0265  0.2817
10373TIP3   OH252609   1.249   6.360   1.195 -0.0390  0.2016 -0.1698
10373TIP3    H152610   1.256   6.276   1.239  0.4280 -0.0047 -0.6302
10373TIP3    H252611   1.294   6.421   1.253  0.6305 -0.0812 -0.3782
10374TIP3   OH252612   0.969   1.354  10.738 -0.3112 -0.2596  0.4709
10374TIP3    H152613   1.058   1.367  10.705  0.0536 -1.1165  1.0653
10374TIP3    H252614   0.912   1.383  10.667  0.4541 -0.9982 -0.4780
10375TIP3   OH252615   4.970   4.243   1.378  0.0779  0.3278  0.1669
10375TIP3    H152616   4.937   4.199   1.299 -0.7799  0.0075  0.6866
10375TIP3    H252617   4.900   4.303   1.403  0.7352  1.1126  0.1605
10376TIP3   OH252618   1.285   2.098   4.350  0.5517  0.9028 -0.2991
10376TIP3    H152619   1.294   2.192   4.335 -0.2859  1.4588  2.2588
10376TIP3    H252620   1.217   2.071   4.288  0.5904  2.0397 -0.8689
10377TIP3   OH252621   3.704   5.610  11.716  0.0446  0.3477 -0.0843
10377TIP3    H152622   3.624   5.641  11.757 -1.2647 -1.0877 -1.4196
10377TIP3    H252623   3.728   5.678  11.654 -0.7981  0.2817 -0.4877
10378TIP3   OH252624   2.867   1.458  14.592 -0.0506  0.8111 -0.0059
10378TIP3    H152625   2.860   1.484  14.684  0.7757  0.8337  0.0556
10378TIP3    H252626   2.894   1.538  14.546  0.5214  0.5617 -0.1139
10379TIP3   OH252627   4.151   6.670  11.699 -0.4151  0.0830  0.5053
10379TIP3    H152628   4.086   6.739  11.712 -0.6588  0.0293 -0.3852
10379TIP3    H252629   4.209   6.704  11.630 -1.3958 -1.1664 -1.0046
10380TIP3   OH252630   4.323   1.094   3.354 -0.3306  0.5085  0.1308
10380TIP3    H152631   4.400   1.056   3.397 -0.6277  0.3079  0.4825
10380TIP3    H252632   4.326   1.186   3.379 -0.3651  0.4426  0.3772
10381TIP3   OH252633   0.746   5.164  15.438  0.0455 -0.2086  0.2317
10381TIP3    H152634   0.664   5.195  15.400  0.8911  1.7278 -0.1246
10381TIP3    H252635   0.811   5.179  15.369  1.0117  0.0663  1.1750
10382TIP3   OH252636   5.605   2.449  16.663  0.3258 -0.6107  0.1283
10382TIP3    H152637   5.693   2.468  16.697 -0.0586 -1.9951  2.0589
10382TIP3    H252638   5.546   2.497  16.721 -0.2430 -0.2300 -0.7481
10383TIP3   OH252639   3.296   4.081  12.418 -0.6712 -0.4711 -0.0907
10383TIP3    H152640   3.345   4.040  12.488 -0.0196 -0.3654 -0.4748
10383TIP3    H252641   3.209   4.098  12.455 -0.0052  0.5831  1.0445
10384TIP3   OH252642   2.871   3.134   3.027  0.5897  0.9768 -0.1578
10384TIP3    H152643   2.886   3.097   2.941  2.1120  0.2457  0.3829
10384TIP3    H252644   2.808   3.076   3.069  2.9050 -1.1027  0.6629
10385TIP3   OH252645   5.639   2.417   3.000 -0.7845 -0.3617  0.4139
10385TIP3    H152646   5.697   2.450   3.069 -1.5919 -0.7291  1.3044
10385TIP3    H252647   5.618   2.327   3.027 -1.5335 -0.3331 -0.0324
10386TIP3   OH252648   2.658   3.092   4.968  0.1924  0.1732  0.2702
10386TIP3    H152649   2.582   3.053   5.012 -0.1621  1.4145  0.8316
10386TIP3    H252650   2.655   3.057   4.879  0.5032 -1.8299  1.0159
10387TIP3   OH252651   0.276   6.433   3.691 -0.0985  0.4235  0.3307
10387TIP3    H152652   0.252   6.468   3.606 -1.2691 -0.4728  0.2592
10387TIP3    H252653   0.271   6.508   3.751 -0.3670  0.8205 -0.1860
10388TIP3   OH252654   1.944   6.354   5.120  0.3791  0.1381 -0.4499
10388TIP3    H152655   1.884   6.319   5.053  3.4694 -1.1207 -2.8355
10388TIP3    H252656   1.922   6.306   5.199 -3.0823  1.2884 -0.5193
10389TIP3   OH252657   6.504   1.117   4.390  0.5353 -0.6179 -0.1966
10389TIP3    H152658   6.547   1.051   4.337  0.6450 -0.0679 -0.8065
10389TIP3    H252659   6.535   1.201   4.354  1.1039 -0.2259  1.1239
10390TIP3   OH252660   1.534   1.175  14.783 -0.0650  0.1821 -0.1464
10390TIP3    H152661   1.618   1.133  14.772 -0.0090 -0.6249  2.5203
10390TIP3    H252662   1.546   1.233  14.859 -1.1251  2.3772 -1.5313
10391TIP3   OH252663   0.321   2.050   1.525  0.1485 -0.4130 -0.2664
10391TIP3    H152664   0.354   1.962   1.544  1.0597 -0.4352 -1.7710
10391TIP3    H252665   0.241   2.035   1.474 -0.9891 -0.3407  1.4056
10392TIP3   OH252666   3.361   1.230   1.890 -0.9344  0.1519  0.1249
10392TIP3    H152667   3.285   1.195   1.844 -1.0918  2.7421 -1.8648
10392TIP3    H252668   3.385   1.308   1.840  1.4087  0.9318  2.2387
10393TIP3   OH252669   2.535   5.515   0.744  0.0327  0.1247 -0.6039
10393TIP3    H152670   2.574   5.492   0.659 -0.7548  0.4001 -1.0543
10393TIP3    H252671   2.441   5.500   0.731 -0.0740  0.0144  0.2788
10394TIP3   OH252672   6.124   5.822  14.891  0.0386  0.3615  0.5616
10394TIP3    H152673   6.108   5.873  14.812 -1.8785  0.1782  0.7930
10394TIP3    H252674   6.159   5.885  14.954  0.0735  0.8364  0.0722
10395TIP3   OH252675   1.884   4.301  10.448  0.5424  0.1090  0.2632
10395TIP3    H152676   1.795   4.335  10.450  0.3670 -0.3245 -0.0512
10395TIP3    H252677   1.876   4.213  10.409  1.1334  0.1609  0.0078
10396TIP3   OH252678   2.418   2.266  11.946  0.5355  0.2771  0.6006
10396TIP3    H152679   2.399   2.271  11.853  1.2288 -0.0551  0.4325
10396TIP3    H252680   2.507   2.231  11.951  0.0668 -0.8596  1.4162
10397TIP3   OH252681   1.280   0.307   6.526 -0.1366 -0.3637 -0.3708
10397TIP3    H152682   1.328   0.356   6.459  0.3528 -0.7249 -0.2860
10397TIP3    H252683   1.346   0.255   6.571 -0.5929 -0.8078 -0.1972
10398TIP3   OH252684   1.201   3.562  15.441  0.0137 -0.3580  0.0726
10398TIP3    H152685   1.181   3.474  15.409 -0.3214 -0.4800  0.6094
10398TIP3    H252686   1.283   3.585  15.397 -0.2070 -0.6976 -0.5303
10399TIP3   OH252687   0.503   6.694  13.212 -0.4316  0.2859  0.4341
10399TIP3    H152688   0.427   6.681  13.269  0.8734 -1.9087  1.7850
10399TIP3    H252689   0.535   6.606  13.193  1.0103  1.0973 -1.2159
10400TIP3   OH252690   3.551   1.842  16.609  0.1845  0.8857 -0.6112
10400TIP3    H152691   3.568   1.749  16.625  0.7484  1.3854  2.3864
10400TIP3    H252692   3.625   1.871  16.556  0.4939 -0.1982 -0.7903
10401TIP3   OH252693   3.625   4.229   2.846  0.4308  0.0191  0.1979
10401TIP3    H152694   3.543   4.179   2.843  0.3130  0.0627  1.7516
10401TIP3    H252695   3.597   4.321   2.847  0.5870  0.0981 -0.9387
10402TIP3   OH252696   1.315   4.272   0.494 -0.2202 -0.1824 -0.2231
10402TIP3    H152697   1.381   4.333   0.460 -1.0155  0.1554 -1.2274
10402TIP3    H252698   1.240   4.285   0.436 -1.3196 -0.2569  1.1421
10403TIP3   OH252699   5.320   3.445  12.142  0.1293 -0.0533 -0.2652
10403TIP3    H152700   5.251   3.503  12.174  0.4624  1.3196 -1.8917
10403TIP3    H252701   5.289   3.418  12.055  1.2729 -0.0299 -0.6975
10404TIP3   OH252702   3.718   4.948   2.637 -0.2530  0.0488 -0.1919
10404TIP3    H152703   3.733   5.031   2.592 -0.6427 -0.0608 -0.5362
10404TIP3    H252704   3.635   4.961   2.683  0.9498  0.7381  1.8878
10405TIP3   OH252705   0.476   6.147   5.156 -0.3171 -0.5572 -0.0525
10405TIP3    H152706   0.388   6.122   5.184 -1.0438  2.0089  0.1968
10405TIP3    H252707   0.531   6.135   5.233 -0.9138 -0.0826  0.4520
10406TIP3   OH252708   4.577   1.097   5.315 -0.3105  0.3744 -0.2955
10406TIP3    H152709   4.484   1.075   5.317 -0.2775  0.1944 -0.8319
10406TIP3    H252710   4.579   1.189   5.288 -0.3348  0.3927 -0.2355
10407TIP3   OH252711   4.595   0.533   5.035 -0.2833 -0.4059 -0.0365
10407TIP3    H152712   4.514   0.542   5.086  0.1667  0.7158  0.5191
10407TIP3    H252713   4.652   0.480   5.091 -0.5474 -1.0370 -0.3474
10408TIP3   OH252714   1.684   0.551  17.093 -0.5801 -0.0364  0.0815
10408TIP3    H152715   1.703   0.607  17.017 -0.3248 -0.3144 -0.0616
10408TIP3    H252716   1.763   0.498  17.104  0.3729  1.6195  1.9862
10409TIP3   OH252717   4.311   3.784  14.195  0.5775 -0.0685  0.0525
10409TIP3    H152718   4.329   3.829  14.112  0.4813  1.1903  0.6926
10409TIP3    H252719   4.256   3.710  14.170 -0.9281  1.2769 -0.8384
10410TIP3   OH252720   6.319   1.247   5.964 -0.0431  0.5669 -0.6617
10410TIP3    H152721   6.388   1.208   5.911  0.4755 -0.6250  0.8350
10410TIP3    H252722   6.286   1.319   5.910  1.7251  0.5921 -1.8104
10411TIP3   OH252723   6.545   6.454   3.821 -0.2307  0.1006  0.5227
10411TIP3    H152724   6.478   6.510   3.861 -0.4786  0.4233 -0.3232
10411TIP3    H252725   6.599   6.515   3.771  1.3037 -0.0114  1.9647
10412TIP3   OH252726   2.617   1.618  16.710 -1.0924 -0.4807  0.0452
10412TIP3    H152727   2.613   1.605  16.615  1.4992  1.7836 -0.4874
10412TIP3    H252728   2.701   1.660  16.726 -1.7536 -0.0782  3.2995
10413TIP3   OH252729   0.867   6.148  16.354  0.0244  0.0590  0.1411
10413TIP3    H152730   0.771   6.154  16.354 -0.0186 -0.5872  0.1747
10413TIP3    H252731   0.886   6.081  16.419  0.5507  0.8782  0.8491
10414TIP3   OH252732   2.088   1.109   2.956 -0.1056  0.1539  0.0586
10414TIP3    H152733   2.086   1.204   2.967 -0.3968  0.0809  0.6729
10414TIP3    H252734   2.085   1.096   2.861  1.6136  0.7895 -0.1308
10415TIP3   OH252735   0.022   1.103   3.155 -0.2810  0.1224 -0.2610
10415TIP3    H152736  -0.068   1.131   3.136  0.2247  1.6243 -0.6130
10415TIP3    H252737   0.050   1.058   3.076 -0.9384 -0.9626  0.1073
10416TIP3   OH252738   5.069   0.175  14.345  0.0988 -0.0970 -0.7458
10416TIP3    H152739   4.978   0.154  14.324  0.7194 -3.0794 -0.8935
10416TIP3    H252740   5.116   0.093  14.331  2.1718  0.2162  3.1117
10417TIP3   OH252741   0.059   1.496  15.718 -0.2643  0.3432 -0.1542
10417TIP3    H152742   0.123   1.470  15.651  0.2569  1.5088 -0.1357
10417TIP3    H252743   0.083   1.585  15.741 -0.4697 -0.0076  1.5722
10418TIP3   OH252744   1.127   2.838  12.491  0.6579  0.3508  0.0287
10418TIP3    H152745   1.123   2.874  12.580  0.4545 -1.7985  0.9349
10418TIP3    H252746   1.035   2.837  12.462  0.5637 -0.1849  0.3307
10419TIP3   OH252747   4.209   4.604   1.765  1.1632  0.1736 -0.1507
10419TIP3    H152748   4.244   4.525   1.805  3.7595  1.2104 -0.2172
10419TIP3    H252749   4.159   4.647   1.835  1.1285 -0.6805  0.3605
10420TIP3   OH252750   3.546   3.415   2.109  0.6556 -0.3787 -0.4036
10420TIP3    H152751   3.589   3.443   2.028  2.4995  3.4847  1.6255
10420TIP3    H252752   3.615   3.416   2.175 -1.1607 -1.4332  1.6511
10421TIP3   OH252753   5.413   3.377   3.355  0.6709  0.1816  0.4063
10421TIP3    H152754   5.384   3.290   3.379  1.4103  0.1499  1.2461
10421TIP3    H252755   5.429   3.372   3.261 -1.1207 -0.0331  0.0825
10422TIP3   OH252756   3.161   1.361  15.318 -0.4381 -0.2165  0.1937
10422TIP3    H152757   3.099   1.288  15.323 -1.2690  0.2591 -1.9185
10422TIP3    H252758   3.113   1.429  15.270  0.4813  1.5571  1.6787
10423TIP3   OH252759   0.763   4.323   5.709 -0.3787  0.3904  0.3105
10423TIP3    H152760   0.709   4.309   5.632 -0.3770  0.4372  0.3012
10423TIP3    H252761   0.746   4.246   5.764  0.5304 -0.2494 -0.2677
10424TIP3   OH252762   4.932   3.520   2.605  0.6256  0.5590  0.0375
10424TIP3    H152763   4.877   3.593   2.575  0.2666 -0.1390 -1.0513
10424TIP3    H252764   5.003   3.516   2.541 -0.4809 -1.3485 -1.1533
10425TIP3   OH252765   1.844   4.795  14.663  0.2381  0.5725  0.1475
10425TIP3    H152766   1.893   4.858  14.609  0.8387  1.3294  1.5238
10425TIP3    H252767   1.807   4.848  14.734 -0.7477 -0.3586  0.3569
10426TIP3   OH252768   6.025   3.413   5.189 -0.3877  0.1819  0.6486
10426TIP3    H152769   6.066   3.482   5.242 -0.6722 -0.1732  1.3396
10426TIP3    H252770   5.991   3.351   5.253 -0.3844 -0.4604  0.0337
10427TIP3   OH252771   4.142   6.180   3.505 -0.4942 -0.1420  0.0842
10427TIP3    H152772   4.166   6.268   3.534 -0.4351 -0.0119 -0.3553
10427TIP3    H252773   4.201   6.122   3.552 -1.9051 -0.1239  2.0095
10428TIP3   OH252774   1.592   4.482  11.397  0.0691 -0.1598  0.0979
10428TIP3    H152775   1.681   4.505  11.372  0.0552  0.0838  0.2722
10428TIP3    H252776   1.541   4.491  11.316  0.1890 -0.2369  0.0138
10429TIP3   OH252777   5.991   5.811  17.317 -0.1657  0.0364 -0.0367
10429TIP3    H152778   5.988   5.720  17.346 -2.1789  0.4735  1.3152
10429TIP3    H252779   6.082   5.838  17.332  0.5264 -1.7657 -0.6633
10430TIP3   OH252780   5.473   4.310   6.546  0.9343  0.1917  0.0558
10430TIP3    H152781   5.475   4.339   6.454  1.2995 -1.9731 -0.6833
10430TIP3    H252782   5.522   4.378   6.593 -0.8378  2.3241 -0.9840
10431TIP3   OH252783   1.128   2.096   3.498 -0.2463 -0.5140 -0.6886
10431TIP3    H152784   1.163   2.059   3.579  0.5422 -1.3165 -1.3745
10431TIP3    H252785   1.054   2.039   3.476 -1.4705  0.6367  0.2717
10432TIP3   OH252786   4.457   2.194   3.210  0.0214  0.4168 -0.0318
10432TIP3    H152787   4.428   2.285   3.215  1.5718  0.9791 -0.7689
10432TIP3    H252788   4.498   2.187   3.124 -0.3790 -1.0895 -0.1302
10433TIP3   OH252789   0.109   1.257   4.385 -0.1287  0.0895 -0.4513
10433TIP3    H152790   0.146   1.191   4.327 -0.5904  0.0231 -0.6770
10433TIP3    H252791   0.054   1.208   4.446 -0.8932  0.3043 -0.9518
10434TIP3   OH252792   6.496   1.721   3.737  0.4397 -0.4642 -0.1177
10434TIP3    H152793   6.510   1.723   3.832  0.7530 -0.9708 -0.1458
10434TIP3    H252794   6.401   1.713   3.727  0.5122 -2.5637  0.2300
10435TIP3   OH252795   1.338   2.508   3.491 -0.0478  0.0451  0.1170
10435TIP3    H152796   1.321   2.597   3.461 -0.3547  0.5487  1.6983
10435TIP3    H252797   1.254   2.463   3.481  0.2246 -0.2233 -1.1195
10436TIP3   OH252798   4.253   2.434   5.128 -0.3046  0.3437  0.1309
10436TIP3    H152799   4.213   2.395   5.206 -1.8567 -0.1949 -0.8956
10436TIP3    H252800   4.347   2.426   5.143 -0.5797 -0.3024  1.6698
10437TIP3   OH252801   3.977   3.737  16.246  0.8650  0.2288 -0.4826
10437TIP3    H152802   3.935   3.822  16.228  1.7029  0.9784  0.8871
10437TIP3    H252803   3.904   3.678  16.266  0.3733  1.3297  1.1801
10438TIP3   OH252804   2.525   1.592  15.383 -0.8931  0.0987 -0.3178
10438TIP3    H152805   2.456   1.529  15.361  0.6175 -1.2523 -1.5129
10438TIP3    H252806   2.558   1.562  15.468 -0.9516 -0.0229 -0.3378
10439TIP3   OH252807   6.073   3.873   2.839 -0.3813 -0.0179 -0.0200
10439TIP3    H152808   6.143   3.935   2.860 -1.9046  1.7622  0.0860
10439TIP3    H252809   6.062   3.822   2.919  1.2048 -0.7592 -0.2560
10440TIP3   OH252810   6.308   4.411   5.469  0.2430 -0.3135  0.5209
10440TIP3    H152811   6.336   4.498   5.441  0.6742 -0.1728  1.3431
10440TIP3    H252812   6.370   4.387   5.538  0.0240 -1.2008  0.4253
10441TIP3   OH252813   1.451   0.748   2.050  0.2089 -0.0987  0.0691
10441TIP3    H152814   1.448   0.653   2.058  0.4089 -0.2959 -1.6992
10441TIP3    H252815   1.539   0.766   2.017  1.0069  0.9369  2.5830
10442TIP3   OH252816   1.215   1.858  14.983  0.2039 -0.2105  0.8391
10442TIP3    H152817   1.125   1.875  15.009  0.5310 -0.9780  2.5837
10442TIP3    H252818   1.261   1.940  15.003 -0.0838  0.1732 -0.0308
10443TIP3   OH252819   3.485   1.135   5.242  0.5042 -0.5179  0.2101
10443TIP3    H152820   3.571   1.177   5.235  1.3297 -1.5176  2.8203
10443TIP3    H252821   3.453   1.128   5.152  3.2468 -0.3011 -0.8612
10444TIP3   OH252822   1.914   4.021  14.289  0.2065  0.7145 -0.2073
10444TIP3    H152823   1.836   4.061  14.251 -0.0926  0.9255  0.6136
10444TIP3    H252824   1.986   4.057  14.238 -0.3012 -0.9761 -2.3074
10445TIP3   OH252825   3.396   0.017  12.394 -0.6631  0.5141  0.4783
10445TIP3    H152826   3.315  -0.033  12.385  0.3625 -1.3859  1.2589
10445TIP3    H252827   3.460  -0.046  12.428  1.9541  1.1380 -2.7899
10446TIP3   OH252828   5.183   3.614  16.200  0.5304 -0.3323 -0.2822
10446TIP3    H152829   5.227   3.592  16.283  1.8725  1.1755 -0.5370
10446TIP3    H252830   5.111   3.671  16.226 -0.1343 -1.2730 -0.0220
10447TIP3   OH252831   2.823   0.772   6.129  0.1550  0.1000  0.0077
10447TIP3    H152832   2.742   0.743   6.088 -0.3090  1.2790  0.0634
10447TIP3    H252833   2.817   0.741   6.219 -0.4175  0.5200  0.1186
10448TIP3   OH252834   2.122   6.104  11.383 -0.0394 -0.5452 -0.0233
10448TIP3    H152835   2.058   6.167  11.351 -0.5221 -1.1759 -0.3200
10448TIP3    H252836   2.151   6.139  11.467 -0.3733  0.0126 -0.1391
10449TIP3   OH252837   1.411   6.626  14.687 -0.0327  0.3421 -0.5690
10449TIP3    H152838   1.393   6.587  14.601  0.0646 -1.3867  0.1455
10449TIP3    H252839   1.503   6.605  14.704 -0.5113 -0.9560  0.6963
10450TIP3   OH252840   6.569   3.213  16.767  0.1797  0.5569 -0.4604
10450TIP3    H152841   6.571   3.261  16.685 -2.5224  1.3462 -0.1470
10450TIP3    H252842   6.518   3.134  16.747  1.2415 -0.2691 -0.0072
10451TIP3   OH252843   2.425   1.338  16.246  0.5315 -0.3828 -0.4662
10451TIP3    H152844   2.485   1.296  16.185  1.1866 -1.1117  0.6458
10451TIP3    H252845   2.341   1.294  16.231  0.5219 -0.1230 -1.2496
10452TIP3   OH252846   1.773   5.655   4.420  0.0971  0.6652 -0.6473
10452TIP3    H152847   1.825   5.638   4.499 -0.6246  3.5458  0.6008
10452TIP3    H252848   1.834   5.698   4.360  0.0660  0.6739 -0.6727
10453TIP3   OH252849   2.583   1.625  13.809  0.2815 -0.6424  0.1075
10453TIP3    H152850   2.510   1.594  13.756  0.6169 -1.1170 -0.0774
10453TIP3    H252851   2.647   1.554  13.808  0.3997 -0.5616  0.9482
10454TIP3   OH252852   2.572   4.049   3.637  0.0290 -0.2015  0.1879
10454TIP3    H152853   2.654   4.080   3.597  0.0264  1.1207  1.1432
10454TIP3    H252854   2.507   4.058   3.567  0.3711  0.3724 -0.0660
10455TIP3   OH252855   5.795   4.034  15.763  0.4407 -0.0507  0.0575
10455TIP3    H152856   5.736   3.997  15.828 -1.1778  2.6750  0.3086
10455TIP3    H252857   5.821   4.119  15.800 -0.4626  1.5712 -2.7377
10456TIP3   OH252858   4.308   2.654  12.385 -0.0395  0.3871 -0.0065
10456TIP3    H152859   4.286   2.718  12.452 -1.3329  1.3078 -1.2543
10456TIP3    H252860   4.267   2.573  12.416  0.1459  0.5715  0.7453
10457TIP3   OH252861   5.361   1.238   4.853  0.2032  0.3363 -0.2365
10457TIP3    H152862   5.338   1.156   4.895  0.7834 -0.3644 -1.2521
10457TIP3    H252863   5.415   1.284   4.917  0.6035 -0.4608  0.0033
10458TIP3   OH252864   0.260   0.840  17.130 -0.4703  0.1060 -0.5427
10458TIP3    H152865   0.346   0.839  17.086 -0.1276 -1.4251  0.1053
10458TIP3    H252866   0.197   0.829  17.058  0.0014 -0.8118 -0.8374
10459TIP3   OH252867   5.337   3.389   4.145  0.3768 -0.0417  0.1431
10459TIP3    H152868   5.364   3.306   4.105 -0.6395 -0.2179 -0.2057
10459TIP3    H252869   5.334   3.450   4.072  0.9240  0.2643  0.3680
10460TIP3   OH252870   3.940   0.612  13.718 -0.0152 -0.3158 -0.0925
10460TIP3    H152871   3.872   0.666  13.760  0.9938  1.0889 -0.2213
10460TIP3    H252872   4.022   0.658  13.736  1.1067 -2.5742  1.0760
10461TIP3   OH252873   1.416   2.478   3.109 -0.1232  0.1813  0.3418
10461TIP3    H152874   1.398   2.384   3.116  0.6442 -0.0083 -0.0273
10461TIP3    H252875   1.511   2.482   3.095 -0.2311  0.9773 -0.2092
10462TIP3   OH252876   6.465   1.593   0.605 -0.1963 -0.3234 -0.2750
10462TIP3    H152877   6.473   1.682   0.569 -0.5534  0.7071  2.0394
10462TIP3    H252878   6.466   1.605   0.700  0.0689 -2.8509  0.1120
10463TIP3   OH252879   4.342   2.286  14.533 -0.3414  0.1259 -0.8411
10463TIP3    H152880   4.331   2.274  14.439  0.5016  0.7387 -1.0266
10463TIP3    H252881   4.355   2.197  14.567  0.1348 -0.0216 -1.4046
10464TIP3   OH252882   1.933   2.661  14.746 -0.2697  0.3161  0.1648
10464TIP3    H152883   1.843   2.671  14.775 -0.7074 -1.1075 -0.6437
10464TIP3    H252884   1.931   2.589  14.684  1.3317  0.6548 -0.3275
10465TIP3   OH252885   4.986   3.693   5.303  0.7326 -0.1031  0.6280
10465TIP3    H152886   5.009   3.762   5.242 -0.0236  0.1523  0.6163
10465TIP3    H252887   4.946   3.625   5.249 -0.3249  0.3026  0.8711
10466TIP3   OH252888   4.130   4.087  12.917 -0.5429  0.3697  0.4382
10466TIP3    H152889   4.169   4.165  12.958 -0.5198  0.9240 -0.6025
10466TIP3    H252890   4.187   4.015  12.943 -0.0108  0.8579  0.6383
10467TIP3   OH252891   2.721   5.987   5.002  0.0655 -0.4781  0.0906
10467TIP3    H152892   2.769   5.934   4.939  0.6504 -1.1491  1.0568
10467TIP3    H252893   2.723   5.935   5.083  1.6888  1.5006  1.4396
10468TIP3   OH252894   4.028   4.428   0.196  0.1280  0.2732  0.1832
10468TIP3    H152895   3.983   4.463   0.272 -0.2441 -2.4895  1.3363
10468TIP3    H252896   3.958   4.402   0.136  0.3036 -0.4369  0.2783
10469TIP3   OH252897   0.540   1.818  11.565  0.7727 -0.6202  0.5055
10469TIP3    H152898   0.484   1.846  11.638 -0.6264  1.4360 -1.2355
10469TIP3    H252899   0.478   1.791  11.497  1.9261  0.5259 -1.0462
10470TIP3   OH252900   3.852   5.877   5.341 -0.2023  0.4257  0.1478
10470TIP3    H152901   3.885   5.787   5.339 -1.0079  0.1333 -1.0460
10470TIP3    H252902   3.909   5.922   5.403  0.8014 -0.6836  0.0616
10471TIP3   OH252903   1.501   3.667  11.447  0.3599 -0.0851 -0.1433
10471TIP3    H152904   1.521   3.601  11.380  0.4164  1.3787 -1.6478
10471TIP3    H252905   1.577   3.666  11.505  0.0494 -1.8067  0.2710
10472TIP3   OH252906   5.514   1.340   2.086 -0.3215 -0.5880 -0.4017
10472TIP3    H152907   5.496   1.246   2.079 -1.7423 -0.2392 -1.8708
10472TIP3    H252908   5.428   1.381   2.097  0.3850  0.4724  1.7798
10473TIP3   OH252909   5.604   3.743  14.237 -0.0787 -0.1617  0.2068
10473TIP3    H152910   5.613   3.837  14.221 -1.7816  0.0532  0.3078
10473TIP3    H252911   5.653   3.701  14.166 -1.0496  0.8160 -1.0929
10474TIP3   OH252912   2.991   3.117  14.646 -0.5220  0.1861 -0.1405
10474TIP3    H152913   3.014   3.029  14.615 -2.1212 -0.5006  0.5320
10474TIP3    H252914   2.903   3.132  14.614 -0.8260  0.9407  0.9889
10475TIP3   OH252915   0.855   2.365   1.755  0.0403 -0.3002  0.3891
10475TIP3    H152916   0.788   2.434   1.754  1.1279  0.7989  0.9231
10475TIP3    H252917   0.901   2.377   1.838 -0.6899 -2.6509  1.2237
10476TIP3   OH252918   5.032   6.780  11.551 -0.2186 -0.2336 -0.2269
10476TIP3    H152919   4.983   6.816  11.477  1.5485 -1.2762 -2.0254
10476TIP3    H252920   5.034   6.850  11.615  0.3525  1.7191 -2.2420
10477TIP3   OH252921   4.308   5.701   4.658 -0.3822  0.1969 -0.3450
10477TIP3    H152922   4.348   5.781   4.625 -0.5930  0.1602 -0.7033
10477TIP3    H252923   4.349   5.686   4.743 -0.2192  0.5903 -0.3541
10478TIP3   OH252924   6.270   6.769  15.179 -0.2235 -0.4849 -0.2461
10478TIP3    H152925   6.337   6.700  15.180 -0.1607 -0.4230  1.1567
10478TIP3    H252926   6.306   6.838  15.234 -0.3869  0.6160 -1.4597
10479TIP3   OH252927   5.056   0.857  12.753  0.1782 -0.2118 -0.6783
10479TIP3    H152928   5.147   0.855  12.780 -0.0909  0.6127  0.3313
10479TIP3    H252929   5.042   0.945  12.718 -1.2143  1.2247  2.9561
10480TIP3   OH252930   0.809   1.981   1.063  0.2757 -0.2067  0.5572
10480TIP3    H152931   0.872   2.021   1.004 -2.3084 -0.3073 -2.5274
10480TIP3    H252932   0.807   1.889   1.037  0.0414 -0.5720  1.7917
10481TIP3   OH252933   0.240   6.373   0.816 -0.2730  0.1579  0.3637
10481TIP3    H152934   0.186   6.295   0.825  1.2476 -0.8127  1.3759
10481TIP3    H252935   0.177   6.444   0.806 -1.6928 -1.2574 -1.6440
10482TIP3   OH252936   4.112   3.493  12.302 -0.6091  0.0602 -0.1126
10482TIP3    H152937   4.100   3.558  12.232 -1.9502 -1.0848 -0.9886
10482TIP3    H252938   4.088   3.410  12.262 -1.7197 -0.6062  1.8059
10483TIP3   OH252939   0.512   3.536   0.814 -0.4438  0.0109 -0.0160
10483TIP3    H152940   0.426   3.524   0.773 -0.2754  1.3240 -0.8261
10483TIP3    H252941   0.494   3.540   0.908 -1.3243  0.6812 -0.1999
10484TIP3   OH252942   6.180   5.790   3.629 -0.6026 -0.1120 -0.0133
10484TIP3    H152943   6.225   5.822   3.550  0.7042  0.8329  1.0664
10484TIP3    H252944   6.234   5.717   3.660 -0.8018 -0.1206  0.3222
10485TIP3   OH252945   0.977   0.648   0.859 -0.1216  0.0630 -0.3492
10485TIP3    H152946   0.944   0.728   0.817 -0.8131 -0.1090 -0.1450
10485TIP3    H252947   0.998   0.590   0.786 -1.2064 -0.1896 -0.4767
10486TIP3   OH252948   1.397   3.157  14.264  0.0297 -0.1776  0.3892
10486TIP3    H152949   1.445   3.099  14.324  0.5082 -0.0838  0.1011
10486TIP3    H252950   1.458   3.172  14.192 -1.4062 -2.2504 -1.3792
10487TIP3   OH252951   3.294   2.862  14.049 -0.0051  0.1367  0.0787
10487TIP3    H152952   3.377   2.828  14.081 -0.3654 -0.3307  0.5306
10487TIP3    H252953   3.246   2.785  14.018 -1.0485  0.1210  1.6202
10488TIP3   OH252954   1.920   5.812  13.517  0.0309 -0.5215  0.2050
10488TIP3    H152955   1.962   5.772  13.593 -0.3964 -1.8935 -0.2461
10488TIP3    H252956   1.988   5.867  13.478  0.7934 -1.1552  0.6084
10489TIP3   OH252957   6.769   5.334   0.949  0.7447  0.0211 -0.0154
10489TIP3    H152958   6.792   5.426   0.963 -0.4926  0.2907  0.3464
10489TIP3    H252959   6.845   5.298   0.903  0.8324  1.4556 -1.0793
10490TIP3   OH252960   3.323   3.226  13.383 -0.4852 -0.5077  0.8510
10490TIP3    H152961   3.238   3.253  13.351 -0.1839 -0.6838 -0.1297
10490TIP3    H252962   3.371   3.199  13.305  0.1336 -1.3416  1.4948
10491TIP3   OH252963   2.543   6.258  11.576 -0.6718 -0.2276  0.2477
10491TIP3    H152964   2.572   6.172  11.547  0.3515  0.4535 -0.8323
10491TIP3    H252965   2.550   6.255  11.671 -1.5280 -1.6255  0.2889
10492TIP3   OH252966   0.209   5.212  15.643  0.2147  0.4925  0.4758
10492TIP3    H152967   0.218   5.149  15.571  0.8725  0.2748  0.7449
10492TIP3    H252968   0.216   5.159  15.722  1.5692  0.9916  0.7142
10493TIP3   OH252969   5.701   2.733  11.807 -0.0069  0.5733  1.2015
10493TIP3    H152970   5.663   2.663  11.860  1.2211 -0.3373  0.9394
10493TIP3    H252971   5.694   2.701  11.717 -0.0240  1.0790  1.0201
10494TIP3   OH252972   3.438   4.802  11.714 -0.2169 -0.4946 -0.3774
10494TIP3    H152973   3.530   4.777  11.713 -0.0543 -0.7763 -5.4559
10494TIP3    H252974   3.438   4.893  11.742  1.6094 -0.4606 -0.3893
10495TIP3   OH252975   5.385   0.821   0.567 -0.4352 -0.1528 -0.0680
10495TIP3    H152976   5.431   0.833   0.483 -0.8274  1.7615 -0.0549
10495TIP3    H252977   5.300   0.863   0.554 -0.9681 -0.8856  0.9275
10496TIP3   OH252978   0.641   4.646  16.730  0.3084  0.1150 -0.2931
10496TIP3    H152979   0.549   4.650  16.704  0.8964 -0.2619 -2.5933
10496TIP3    H252980   0.690   4.652  16.648  2.3735  0.7705  0.9048
10497TIP3   OH252981   0.814   4.662  17.313  0.2231 -0.0360 -0.0124
10497TIP3    H152982   0.898   4.622  17.333  0.2499  0.1545  0.2644
10497TIP3    H252983   0.835   4.755  17.300  0.1578 -0.1045 -0.6141
10498TIP3   OH252984   1.146   2.003  12.854 -0.1879 -0.3448  0.3338
10498TIP3    H152985   1.070   2.062  12.858  0.2653  0.5738 -2.4178
10498TIP3    H252986   1.108   1.916  12.839 -0.8522  0.3912 -3.3763
10499TIP3   OH252987   0.356   5.132  12.643  0.1844 -0.2205 -0.2440
10499TIP3    H152988   0.432   5.079  12.667  0.4959 -0.3854 -1.5339
10499TIP3    H252989   0.374   5.161  12.554 -1.3439 -0.4094 -0.6476
10500TIP3   OH252990   2.367   5.602   6.015 -0.1808 -0.8003  0.2680
10500TIP3    H152991   2.380   5.520   6.064 -0.4332 -0.5346  0.7963
10500TIP3    H252992   2.349   5.667   6.083 -0.2781 -0.3659 -0.1694
10501TIP3   OH252993   0.030   4.483   2.402  0.2042  0.1718  0.5848
10501TIP3    H152994   0.106   4.480   2.460  0.8577  0.0318 -0.2620
10501TIP3    H252995   0.060   4.531   2.325  0.2679 -2.1033 -0.9209
10502TIP3   OH252996   1.511   0.604  13.937  0.0919  0.0538  0.1568
10502TIP3    H152997   1.506   0.697  13.916 -2.0277 -0.1896 -0.7016
10502TIP3    H252998   1.540   0.562  13.856 -0.9653 -0.2050 -0.1016
10503TIP3   OH252999   1.486   4.899  15.470 -0.6440  0.3432  0.4333
10503TIP3    H153000   1.567   4.951  15.478  2.3917 -4.0363  1.7702
10503TIP3    H253001   1.467   4.898  15.377  3.8656 -2.1939 -0.7353
10504TIP3   OH253002   5.832   5.416   4.307 -0.5116  0.3199 -0.0842
10504TIP3    H153003   5.871   5.330   4.288 -1.2427 -0.6241  2.4145
10504TIP3    H253004   5.907   5.476   4.306  0.3513 -0.7155  0.2442
10505TIP3   OH253005   0.581   4.303   0.240  0.2398 -0.1655 -0.2642
10505TIP3    H153006   0.641   4.348   0.181  0.4553 -1.9260 -1.4714
10505TIP3    H253007   0.538   4.373   0.289  0.6047  1.3295 -1.9755
10506TIP3   OH253008   3.081   5.500   4.676  0.2953 -0.4163  0.0741
10506TIP3    H153009   3.012   5.565   4.688 -0.9188 -1.5579 -0.5520
10506TIP3    H253010   3.068   5.466   4.587  0.7279 -1.7185  0.4832
10507TIP3   OH253011   1.597   0.276  12.834 -0.1770 -0.5846  0.1023
10507TIP3    H153012   1.548   0.274  12.752 -0.3372 -4.3377  0.1150
10507TIP3    H253013   1.679   0.321  12.811 -0.8015 -0.2708 -1.7217
10508TIP3   OH253014   3.439   0.993  13.939  0.3882 -0.0489 -0.0608
10508TIP3    H153015   3.496   1.047  13.993 -0.8714  0.5057  0.7701
10508TIP3    H253016   3.387   0.943  14.002 -1.6119  1.1255 -0.6671
10509TIP3   OH253017   2.554   1.645  14.271 -0.0360 -0.4302 -0.7930
10509TIP3    H153018   2.630   1.689  14.308  0.7502 -2.1492 -0.2937
10509TIP3    H253019   2.588   1.595  14.197 -0.3937 -2.2330  0.1963
10510TIP3   OH253020   1.021   5.335  14.589  0.3701  0.1113 -0.0552
10510TIP3    H153021   1.015   5.420  14.634  0.4478  0.4584 -0.6784
10510TIP3    H253022   0.939   5.328  14.541  0.9780  0.5429 -1.1956
10511TIP3   OH253023   6.211   0.859   6.199  0.6147  0.1128  0.1548
10511TIP3    H153024   6.300   0.891   6.212  1.8373 -2.7611 -0.4186
10511TIP3    H253025   6.203   0.787   6.262 -1.3215  0.2943  0.1691
10512TIP3   OH253026   1.948   6.261  11.233  0.1610  0.2039  0.2274
10512TIP3    H153027   1.893   6.214  11.171 -0.9038 -0.7405  1.8112
10512TIP3    H253028   1.892   6.330  11.268  1.1397  1.5347 -0.7146
10513TIP3   OH253029   3.367   5.155   5.841  0.0539  0.4574 -0.1949
10513TIP3    H153030   3.305   5.208   5.791  0.3824 -0.3626 -1.5017
10513TIP3    H253031   3.404   5.094   5.778  1.9135  0.6491  0.6448
10514TIP3   OH253032   0.511   2.080  16.067  0.2394  0.0535 -0.1397
10514TIP3    H153033   0.429   2.041  16.037  0.1323  0.3980 -0.3030
10514TIP3    H253034   0.575   2.055  16.001 -0.2248  1.7607 -1.3269
10515TIP3   OH253035   6.476   4.040   4.413 -0.0840 -0.1882  0.2305
10515TIP3    H153036   6.547   4.104   4.403 -0.5830  0.1500 -1.5450
10515TIP3    H253037   6.403   4.090   4.448 -0.4424  0.2438 -1.0620
10516TIP3   OH253038   4.810   5.969  11.685 -0.5975  0.0290 -0.1205
10516TIP3    H153039   4.887   5.956  11.741  0.2851  0.1813 -1.2580
10516TIP3    H253040   4.740   5.923  11.730  0.2117 -0.3218  0.8282
10517TIP3   OH253041   4.436   4.712   1.183 -0.6846  0.0129 -0.2967
10517TIP3    H153042   4.394   4.741   1.102 -0.3392  0.0821 -0.4530
10517TIP3    H253043   4.415   4.780   1.247 -1.8587 -0.5695 -0.0424
10518TIP3   OH253044   5.007   6.636  12.343  0.3488 -0.7283  0.8869
10518TIP3    H153045   4.926   6.661  12.387  0.6367 -0.5105  1.2956
10518TIP3    H253046   4.982   6.561  12.289 -0.5784  0.5187 -0.5056
10519TIP3   OH253047   0.679   3.597   3.235 -0.2157 -0.4027  0.0243
10519TIP3    H153048   0.754   3.629   3.185  0.2768 -0.7629  0.5268
10519TIP3    H253049   0.670   3.506   3.209  0.7618 -0.9259  1.4299
10520TIP3   OH253050   2.631   2.495   3.253  0.0266 -0.6458 -0.0562
10520TIP3    H153051   2.536   2.505   3.264  0.2528 -0.4977  2.3513
10520TIP3    H253052   2.660   2.454   3.334  2.0002 -1.0581 -0.9138
10521TIP3   OH253053   5.731   6.574  15.101 -0.2281  0.3350  0.3697
10521TIP3    H153054   5.741   6.586  15.006 -1.1859  1.9447  0.4327
10521TIP3    H253055   5.803   6.624  15.139  0.5298 -0.8237  0.5074
10522TIP3   OH253056   4.793   0.671  16.241  0.1895  0.0525  0.3926
10522TIP3    H153057   4.821   0.604  16.304 -0.5927  0.1775  0.8867
10522TIP3    H253058   4.710   0.640  16.207 -0.7409  1.2597  1.4370
10523TIP3   OH253059   1.262   1.087   1.650 -0.0410 -0.1665 -0.2482
10523TIP3    H153060   1.327   1.027   1.686  0.2075 -0.7873 -1.6382
10523TIP3    H253061   1.310   1.169   1.635  0.6856 -0.8735 -2.0382
10524TIP3   OH253062   0.876   1.214  14.589 -0.3391  0.2773 -0.0277
10524TIP3    H153063   0.955   1.234  14.638 -1.1596  1.2975  0.9255
10524TIP3    H253064   0.826   1.157  14.648 -0.6868  0.3233 -0.2770
10525TIP3   OH253065   2.838   2.634  13.440  0.3552 -0.1486  0.0214
10525TIP3    H153066   2.857   2.680  13.522  0.2451 -0.4679  0.2265
10525TIP3    H253067   2.911   2.573  13.429  0.2169 -0.3174  0.0375
10526TIP3   OH253068   0.613   1.529   3.496  0.1547  0.3463 -0.4485
10526TIP3    H153069   0.531   1.571   3.521 -1.3645 -1.0247 -2.8031
10526TIP3    H253070   0.641   1.576   3.417  0.2893 -0.8086 -1.1033
10527TIP3   OH253071   2.008   1.784   1.921 -0.5899 -0.8163 -0.2294
10527TIP3    H153072   1.986   1.692   1.903  0.0961 -0.5991 -2.5593
10527TIP3    H253073   2.072   1.806   1.853  2.6450  0.1610  2.7831
10528TIP3   OH253074   1.331   2.054   4.848  0.4883 -0.2829  0.4042
10528TIP3    H153075   1.346   2.060   4.754 -1.4545 -0.2596  0.0434
10528TIP3    H253076   1.398   2.110   4.887  0.8456  0.3340 -1.0268
10529TIP3   OH253077   2.872   3.295  14.815 -0.0638 -0.2782 -0.5931
10529TIP3    H153078   2.938   3.354  14.853  1.1459 -0.7763 -1.8595
10529TIP3    H253079   2.923   3.223  14.778 -1.4987 -2.0625  0.7234
10530TIP3   OH253080   1.954   5.482  16.487  0.1594 -0.3090  0.0859
10530TIP3    H153081   1.862   5.509  16.489  0.0574 -0.5141 -1.1747
10530TIP3    H253082   2.002   5.564  16.479 -0.1071 -0.3269 -2.7253
10531TIP3   OH253083   2.667   5.012  11.381  0.3760 -0.2534 -0.8859
10531TIP3    H153084   2.707   4.993  11.296 -0.8357 -3.1161 -0.9134
10531TIP3    H253085   2.586   4.962  11.381 -0.2835  0.6862  1.4944
10532TIP3   OH253086   4.379   1.810  15.840 -0.6922  0.1955  0.0157
10532TIP3    H153087   4.453   1.870  15.847 -2.5482  2.8305 -0.9985
10532TIP3    H253088   4.400   1.753  15.767  1.4188 -0.9255  1.4039
10533TIP3   OH253089   5.020   3.534  17.329 -0.2641  0.1138 -0.1012
10533TIP3    H153090   5.083   3.465  17.310 -0.9465 -0.4329 -0.4204
10533TIP3    H253091   5.041   3.603  17.267 -0.2151 -0.2170 -0.4545
10534TIP3   OH253092   6.675   5.206  11.714 -0.0140  0.1720  0.3475
10534TIP3    H153093   6.718   5.251  11.787 -0.0384  2.3185 -0.8796
10534TIP3    H253094   6.583   5.232  11.721 -0.9722 -3.0781  1.9902
10535TIP3   OH253095   2.655   4.947   3.016 -0.0655  0.9741  0.3897
10535TIP3    H153096   2.736   4.929   2.968 -0.3968  0.6536 -0.0596
10535TIP3    H253097   2.586   4.929   2.953 -0.4723  1.9327  0.5438
10536TIP3   OH253098   4.282   5.045  10.826  0.4685  0.0576  0.1047
10536TIP3    H153099   4.297   5.074  10.737 -1.3812  0.4217 -0.1282
10536TIP3    H253100   4.267   5.125  10.876 -1.4209 -0.2422  0.1077
10537TIP3   OH253101   0.985   5.093  11.551  0.4104 -0.0972  0.1423
10537TIP3    H153102   1.014   5.155  11.618 -0.6963  2.7661 -1.8485
10537TIP3    H253103   0.890   5.090  11.560  0.1440  1.0330 -1.7639
10538TIP3   OH253104   0.093   3.383   4.953 -0.9343 -0.8817 -0.4219
10538TIP3    H153105   0.136   3.443   4.892 -0.1767  0.4475  1.3669
10538TIP3    H253106  -0.001   3.396   4.937 -0.9060  2.4475  1.3588
10539TIP3   OH253107   0.955   2.505  16.496 -0.2650 -0.2033  0.4796
10539TIP3    H153108   0.996   2.427  16.456  1.9595  0.5087  1.2116
10539TIP3    H253109   0.985   2.504  16.586 -0.2165  1.4974  0.5023
10540TIP3   OH253110   1.958   3.923   0.126 -0.3808 -0.3025 -0.1983
10540TIP3    H153111   2.027   3.983   0.097  0.1640 -0.6920  0.2674
10540TIP3    H253112   1.913   3.970   0.197 -1.0230  0.2144 -0.9338
10541TIP3   OH253113   6.118   5.625  13.894  0.1197  0.1176 -0.0909
10541TIP3    H153114   6.023   5.632  13.886  0.1456  0.5721 -0.0212
10541TIP3    H253115   6.152   5.702  13.848  0.3838  1.1290  1.7152
10542TIP3   OH253116   4.986   5.360  15.700 -0.4150  0.1525  0.4912
10542TIP3    H153117   4.989   5.299  15.626  0.2329  0.6399  0.1052
10542TIP3    H253118   4.924   5.428  15.673 -0.3703  0.1979  0.5025
10543TIP3   OH253119   2.105   0.409  15.511 -0.5009 -0.2564 -0.7089
10543TIP3    H153120   2.193   0.392  15.478  0.2316 -0.5962  1.2693
10543TIP3    H253121   2.048   0.358  15.454  0.3079  1.5143 -3.2893
10544TIP3   OH253122   1.250   3.143   0.139  0.7749 -0.3508 -0.4879
10544TIP3    H153123   1.281   3.202   0.208  0.8811  0.5744 -1.3063
10544TIP3    H253124   1.207   3.072   0.186  0.9367  0.2079  0.5363
10545TIP3   OH253125   4.746   2.955  14.547 -0.0076  0.0924  0.1897
10545TIP3    H153126   4.740   2.970  14.453 -0.7944  3.2444  0.6517
10545TIP3    H253127   4.656   2.956  14.577  0.3464  2.1376  1.3215
10546TIP3   OH253128   0.358   6.777   3.304  0.4397  0.0231  0.4047
10546TIP3    H153129   0.432   6.826   3.267 -1.6017  2.4759 -0.7539
10546TIP3    H253130   0.354   6.697   3.251  0.4620  1.2689 -1.5899
10547TIP3   OH253131   6.487   2.079   1.254  0.2316 -0.0068 -0.0979
10547TIP3    H153132   6.530   2.031   1.325  0.3056  0.5347  0.2213
10547TIP3    H253133   6.394   2.062   1.267  0.1392  1.2457  0.9766
10548TIP3   OH253134   3.863   6.015  14.182  0.1165 -0.3781 -0.8300
10548TIP3    H153135   3.782   6.005  14.232 -1.3125  2.9072 -2.1699
10548TIP3    H253136   3.838   5.997  14.092  0.4194  2.0220 -1.4605
10549TIP3   OH253137   2.569   6.281   4.193 -0.2595 -0.2891 -0.0409
10549TIP3    H153138   2.512   6.311   4.122  0.5920 -0.5188 -0.8462
10549TIP3    H253139   2.642   6.342   4.193  0.5244 -1.1960 -0.4171
10550TIP3   OH253140   4.229   4.917   4.716  0.2357 -0.4531 -0.1335
10550TIP3    H153141   4.296   4.849   4.716  0.7622  0.0435 -1.1772
10550TIP3    H253142   4.147   4.870   4.726  0.6094 -1.2341 -0.6345
10551TIP3   OH253143   5.758   3.433  15.715 -0.4060  0.1492 -0.6489
10551TIP3    H153144   5.773   3.507  15.774 -1.3812 -0.3467  0.2447
10551TIP3    H253145   5.831   3.374  15.733 -0.6101  0.0735 -0.0529
10552TIP3   OH253146   0.944   1.809  12.345 -0.4213  0.2915 -0.3772
10552TIP3    H153147   0.933   1.735  12.285 -0.0960 -0.0694 -0.0059
10552TIP3    H253148   0.863   1.811  12.396 -0.4281  0.1827 -0.3829
10553TIP3   OH253149   1.409   6.023   3.454 -0.2778 -0.2604  0.2044
10553TIP3    H153150   1.473   6.093   3.464 -0.4185 -0.1540  0.3633
10553TIP3    H253151   1.324   6.067   3.455 -0.3098 -0.1686 -1.9354
10554TIP3   OH253152   3.886   4.901   0.323  0.3397 -0.1637 -0.2409
10554TIP3    H153153   3.942   4.887   0.399  0.0674 -0.0187 -0.0168
10554TIP3    H253154   3.935   4.964   0.269  0.7555 -0.6311 -0.4206
10555TIP3   OH253155   6.726   5.938   5.651  0.2879  0.6782 -0.0571
10555TIP3    H153156   6.766   5.947   5.737 -0.0088 -0.1327  0.1744
10555TIP3    H253157   6.641   5.982   5.659  0.6070  1.3293 -0.1886
10556TIP3   OH253158   2.016   2.103   5.910 -0.0557  0.5372  0.6774
10556TIP3    H153159   1.924   2.126   5.900 -0.3286 -0.7167  0.2333
10556TIP3    H253160   2.017   2.034   5.977  0.5294  0.3489  0.4834
10557TIP3   OH253161   4.784   3.429   4.279 -0.0111 -0.1284  0.3976
10557TIP3    H153162   4.708   3.372   4.288 -0.5311  0.6804  1.3710
10557TIP3    H253163   4.851   3.389   4.333 -0.0183 -0.4018  0.2035
10558TIP3   OH253164   3.996   0.897  12.872 -1.3521 -0.1775  1.0433
10558TIP3    H153165   3.987   0.815  12.921  1.9883 -0.9607  0.6011
10558TIP3    H253166   4.004   0.869  12.780  2.5231  0.2176  1.0997
10559TIP3   OH253167   1.404   3.792  11.975  0.1627 -0.0580  0.2274
10559TIP3    H153168   1.349   3.729  11.930  1.0949 -0.0781 -0.9140
10559TIP3    H253169   1.432   3.747  12.055 -2.1901  0.2852  1.3129
10560TIP3   OH253170   2.359   5.366  16.640  0.0287 -0.5183  0.0323
10560TIP3    H153171   2.336   5.408  16.557 -0.4390 -1.4352 -0.3185
10560TIP3    H253172   2.441   5.408  16.666  0.2795 -0.3356 -0.9905
10561TIP3   OH253173   1.381   5.833   2.388 -0.5255  0.0039  0.5550
10561TIP3    H153174   1.366   5.781   2.309 -1.5255  2.1044 -0.7149
10561TIP3    H253175   1.452   5.892   2.364 -1.5616  1.3995  0.8214
10562TIP3   OH253176   0.805   6.751   4.105 -0.5644 -0.3754  0.5647
10562TIP3    H153177   0.788   6.728   4.197 -0.1786  0.3719  0.8291
10562TIP3    H253178   0.775   6.675   4.056  0.3974 -1.3253  1.3928
10563TIP3   OH253179   1.376   0.755   2.697 -0.2286  0.2543  0.3626
10563TIP3    H153180   1.295   0.756   2.747 -0.6397 -0.2925 -0.2698
10563TIP3    H253181   1.441   0.716   2.755 -0.9142 -1.2064  0.1671
10564TIP3   OH253182   2.906   1.449   2.803 -0.2814 -0.2005  0.1801
10564TIP3    H153183   2.844   1.522   2.811 -0.8019 -0.8250  2.8545
10564TIP3    H253184   2.992   1.489   2.818 -0.2836  0.2202 -0.8324
10565TIP3   OH253185   1.109   2.913   5.044 -0.6100 -0.3048 -0.4012
10565TIP3    H153186   1.025   2.958   5.031  0.5262  1.6575 -1.5431
10565TIP3    H253187   1.167   2.982   5.078  0.1363 -2.0336  2.0717
10566TIP3   OH253188   4.825   6.609  12.536 -0.2912  0.0179  0.0149
10566TIP3    H153189   4.844   6.631  12.627  0.5191  0.4579 -0.2493
10566TIP3    H253190   4.753   6.547  12.541  1.2411 -1.7688  1.0822
10567TIP3   OH253191   3.902   4.159   1.554  0.0656  0.1078  0.0012
10567TIP3    H153192   3.976   4.099   1.559 -1.5528 -1.9155  1.4251
10567TIP3    H253193   3.918   4.223   1.623  0.8248  0.1305 -0.1915
10568TIP3   OH253194   0.242   5.720  11.542 -0.1988 -0.0230 -0.2775
10568TIP3    H153195   0.188   5.764  11.607 -0.9821 -0.8295 -0.3672
10568TIP3    H253196   0.180   5.672  11.488  0.5819 -0.6886 -0.6031
10569TIP3   OH253197   1.038   3.586  11.533  0.3618  1.2799 -0.2189
10569TIP3    H153198   1.001   3.498  11.522  1.4700  0.9711 -2.0319
10569TIP3    H253199   0.968   3.638  11.572 -1.3387  0.2820 -1.8157
10570TIP3   OH253200   0.560   0.281  14.683  1.2984 -0.3350  0.3260
10570TIP3    H153201   0.469   0.293  14.711  0.3318  1.5429 -3.0189
10570TIP3    H253202   0.558   0.205  14.626  1.7839 -0.1957  0.1196
10571TIP3   OH253203   4.840   1.795   2.674  1.0602  0.3638 -0.1204
10571TIP3    H153204   4.752   1.821   2.646  1.1129  1.7765  0.9203
10571TIP3    H253205   4.853   1.709   2.634 -0.8437  0.0536 -0.1917
10572TIP3   OH253206   0.657   0.123   3.741 -0.0379 -0.2396  0.2328
10572TIP3    H153207   0.567   0.101   3.766  0.1525  0.1030  1.2983
10572TIP3    H253208   0.656   0.129   3.646 -1.1186 -0.3294  0.2331
10573TIP3   OH253209   4.180   0.088   3.520 -0.0491  0.2273 -0.1956
10573TIP3    H153210   4.160   0.104   3.428 -0.7807 -0.6394 -0.2118
10573TIP3    H253211   4.274   0.076   3.523 -0.2264 -1.8602 -1.2197
10574TIP3   OH253212   2.920   0.351  11.364  0.4822 -0.3818 -1.1298
10574TIP3    H153213   2.942   0.443  11.347 -0.2175 -0.5848 -3.3771
10574TIP3    H253214   2.958   0.302  11.292  0.5195 -1.8468 -0.1667
10575TIP3   OH253215   5.848   5.253   3.645  0.0098  0.0391 -0.2855
10575TIP3    H153216   5.757   5.229   3.626 -0.4774  0.6881  1.1343
10575TIP3    H253217   5.852   5.347   3.631  0.4357  0.0389 -0.1834
10576TIP3   OH253218   1.437   2.689   1.886 -0.0114 -0.3867 -0.5431
10576TIP3    H153219   1.501   2.667   1.954 -0.0959  2.6687  0.6597
10576TIP3    H253220   1.378   2.613   1.884  1.2442 -1.4872  1.2719
10577TIP3   OH253221   6.127   5.069   2.294  0.3080  0.9971  0.0005
10577TIP3    H153222   6.220   5.081   2.313  0.7422 -1.9145  0.1945
10577TIP3    H253223   6.108   4.979   2.321 -1.9099  0.5384 -2.6279
10578TIP3   OH253224   5.859   3.376  16.709  0.1015  0.0871 -0.1323
10578TIP3    H153225   5.819   3.435  16.774 -0.9929  1.0737 -1.6439
10578TIP3    H253226   5.921   3.324  16.760  0.1739  1.6621  1.5028
10579TIP3   OH253227   1.034   4.539  14.993 -0.2678 -0.0006 -0.0957
10579TIP3    H153228   1.095   4.478  15.035  1.2652  1.4455 -0.1009
10579TIP3    H253229   1.036   4.514  14.901  2.5736  1.6765 -0.6300
10580TIP3   OH253230   1.789   3.910  16.737 -0.0068 -0.2967 -0.3625
10580TIP3    H153231   1.846   3.849  16.691  0.6877 -0.3365  0.5207
10580TIP3    H253232   1.700   3.878  16.720  0.3129 -1.1383 -0.4961
10581TIP3   OH253233   3.062   0.191  14.010  0.2815  0.0242 -0.3587
10581TIP3    H153234   3.075   0.278  14.048 -0.5988  0.7170 -1.5688
10581TIP3    H253235   2.968   0.185  13.996  0.5034 -0.4414 -1.8187
10582TIP3   OH253236   2.550   6.336   5.720  0.1679 -0.5666  0.1878
10582TIP3    H153237   2.518   6.258   5.765 -0.6829 -0.2650  0.1318
10582TIP3    H253238   2.481   6.358   5.658  0.9559 -0.4866 -0.6760
10583TIP3   OH253239   6.550   0.008   0.924  0.2132 -0.0616 -0.1676
10583TIP3    H153240   6.493   0.085   0.921  1.0279  0.6038  0.9361
10583TIP3    H253241   6.635   0.041   0.952  0.5720 -1.3619  0.3668
10584TIP3   OH253242   0.503   5.104   3.852  0.5893 -0.1436 -0.3661
10584TIP3    H153243   0.466   5.181   3.895 -2.5750 -1.5291 -0.3331
10584TIP3    H253244   0.531   5.047   3.924 -1.0728 -0.7855 -0.1773
10585TIP3   OH253245   0.677   4.912   4.319  0.2365 -0.3267  0.2405
10585TIP3    H153246   0.702   4.889   4.408 -1.0756 -2.0171  0.2193
10585TIP3    H253247   0.646   5.003   4.326 -0.4395 -0.6396  1.6372
10586TIP3   OH253248   4.244   6.483   2.174  0.7658  0.1460 -0.4531
10586TIP3    H153249   4.269   6.392   2.155  0.6418  0.0609 -0.2076
10586TIP3    H253250   4.201   6.479   2.259  1.0061  0.4785 -0.3144
10587TIP3   OH253251   3.674   5.735   2.548 -0.0307  0.1039 -0.3937
10587TIP3    H153252   3.634   5.788   2.617  1.3587 -0.3589  0.8140
10587TIP3    H253253   3.608   5.734   2.478 -0.0951  3.4383 -0.5396
10588TIP3   OH253254   2.948   0.091  16.866  0.2437  0.2089 -0.2406
10588TIP3    H153255   3.043   0.082  16.854  0.0882  0.6569 -2.0177
10588TIP3    H253256   2.926   0.174  16.824 -1.0376 -0.2015 -0.4241
10589TIP3   OH253257   5.105   3.284   4.256 -0.1398  0.4239 -0.8405
10589TIP3    H153258   5.187   3.306   4.211 -0.2162 -1.1569 -1.8248
10589TIP3    H253259   5.103   3.343   4.332  2.9314 -0.8235  0.3744
10590TIP3   OH253260   0.680   4.753  11.912  0.0405 -0.2581  0.4648
10590TIP3    H153261   0.633   4.695  11.851 -0.6590 -0.6577  1.3502
10590TIP3    H253262   0.642   4.839  11.897 -0.5189 -0.4543  0.6871
10591TIP3   OH253263   1.466   0.529  16.708 -0.3994  0.7149  0.4322
10591TIP3    H153264   1.425   0.613  16.689  1.2944  1.8907  1.6533
10591TIP3    H253265   1.522   0.512  16.632 -0.9579  0.5205  0.0560
10592TIP3   OH253266   4.760   2.245   5.916  0.1105 -0.2522  0.0914
10592TIP3    H153267   4.811   2.235   5.835 -3.5259  0.0397 -2.4565
10592TIP3    H253268   4.754   2.340   5.927 -2.3278 -0.1354 -1.4945
10593TIP3   OH253269   0.421   5.709   0.981 -0.3501  0.4562 -0.6555
10593TIP3    H153270   0.495   5.766   0.963  0.7972 -1.0879 -1.0455
10593TIP3    H253271   0.365   5.760   1.040  2.6719  0.5374  2.5025
10594TIP3   OH253272   2.060   6.392   1.075 -0.1273  0.6292  0.6060
10594TIP3    H153273   2.041   6.350   0.992 -0.5048  1.1429  0.4247
10594TIP3    H253274   2.155   6.400   1.077  0.0258 -0.9753  1.0294
10595TIP3   OH253275   6.341   0.773  11.941  0.7246  0.3278 -0.2983
10595TIP3    H153276   6.246   0.775  11.935  0.3145 -0.6223  3.5129
10595TIP3    H253277   6.367   0.865  11.941 -0.4193  0.6724  0.6573
10596TIP3   OH253278   0.978   6.577   3.264  0.1849 -0.4494 -0.0385
10596TIP3    H153279   0.997   6.670   3.252  0.9835 -0.7885 -1.6149
10596TIP3    H253280   0.891   6.576   3.304  0.9465  0.9951  1.8343
10597TIP3   OH253281   5.484   3.620  16.070 -0.2211  0.0311 -0.1530
10597TIP3    H153282   5.476   3.657  15.982 -0.9972  2.2182  0.7477
10597TIP3    H253283   5.549   3.675  16.113 -0.8774 -0.1125  1.0509
10598TIP3   OH253284   0.686   4.056   0.358 -0.3827 -0.0201 -0.0507
10598TIP3    H153285   0.655   4.118   0.292 -1.2016 -0.3307  0.0259
10598TIP3    H253286   0.638   4.079   0.437  0.8639  0.5822  0.5495
10599TIP3   OH253287   6.785   6.683   3.979 -0.0064  0.3255 -0.4249
10599TIP3    H153288   6.704   6.693   4.029  0.7832  0.3327  0.8912
10599TIP3    H253289   6.756   6.651   3.894 -1.2385 -1.9344  0.7451
10600TIP3   OH253290   6.029   2.844  12.373 -0.5759 -0.3564  0.3558
10600TIP3    H153291   5.963   2.904  12.339 -1.1665 -2.0032 -1.6341
10600TIP3    H253292   6.078   2.816  12.296  1.5991 -0.2176  1.6152
10601TIP3   OH253293   1.777   1.316   0.326 -0.5587  0.0799  0.3149
10601TIP3    H153294   1.856   1.287   0.280  0.6438 -0.1857  2.4357
10601TIP3    H253295   1.787   1.411   0.334 -0.0656 -0.0442  1.2449
10602TIP3   OH253296   6.003   2.666   5.645 -0.0261 -0.1039 -0.4088
10602TIP3    H153297   6.000   2.655   5.740 -2.2054 -0.1709 -0.4357
10602TIP3    H253298   5.952   2.593   5.611  0.5330  0.0574 -1.6338
10603TIP3   OH253299   3.389   0.383   3.727  0.0930  0.0260 -0.1034
10603TIP3    H153300   3.443   0.355   3.653  1.2814 -1.3860  1.2262
10603TIP3    H253301   3.450   0.432   3.783 -1.0019  1.8559 -0.4310
10604TIP3   OH253302   1.582   2.657  11.772 -0.1284  0.0554 -0.2753
10604TIP3    H153303   1.501   2.693  11.808 -0.5840  0.7150 -1.8818
10604TIP3    H253304   1.588   2.569  11.810 -1.6282 -0.0335 -0.1701
10605TIP3   OH253305   3.758   0.618  16.368 -0.0425  0.0577  0.3606
10605TIP3    H153306   3.846   0.621  16.406  0.2949 -0.1701 -0.3869
10605TIP3    H253307   3.724   0.532  16.392 -0.2098  0.2891  0.9660
10606TIP3   OH253308   2.970   6.524   5.313  0.3809 -0.5770  0.6488
10606TIP3    H153309   2.899   6.481   5.361 -0.2969  1.6647  1.8172
10606TIP3    H253310   2.931   6.605   5.279  1.6065 -0.7486 -1.3654
10607TIP3   OH253311   5.122   3.226   3.328  0.1921 -0.5696 -0.1497
10607TIP3    H153312   5.201   3.188   3.365  0.7932  1.0629  0.3221
10607TIP3    H253313   5.055   3.158   3.337  1.5777 -2.0680 -0.7929
10608TIP3   OH253314   3.216   6.360  15.639  0.1560 -0.1820 -0.5254
10608TIP3    H153315   3.299   6.345  15.592 -0.1238  0.5306 -1.2753
10608TIP3    H253316   3.149   6.324  15.580 -0.1239 -0.1547 -0.2230
10609TIP3   OH253317   2.524   6.388   4.789 -0.1230  0.8326  0.0153
10609TIP3    H153318   2.539   6.368   4.882 -0.1010  0.4295 -0.0729
10609TIP3    H253319   2.546   6.481   4.781  3.4664  0.0821 -0.3557
10610TIP3   OH253320   4.968   5.212  14.531  0.4515 -0.5741 -0.1303
10610TIP3    H153321   5.048   5.230  14.481 -0.0823 -0.0318 -0.8164
10610TIP3    H253322   4.944   5.297  14.569  0.6033 -0.8891  0.6922
10611TIP3   OH253323   1.958   0.324   3.817  0.8919 -0.1549  0.4943
10611TIP3    H153324   1.943   0.354   3.907  1.0565 -2.4535  1.3405
10611TIP3    H253325   2.020   0.387   3.781 -0.0892  1.5116  1.5561
10612TIP3   OH253326   0.875   3.855  14.504 -0.2918  0.1652  0.2056
10612TIP3    H153327   0.830   3.795  14.444 -2.1071  0.4772  1.1631
10612TIP3    H253328   0.880   3.807  14.587  0.2856  0.5072  0.3705
10613TIP3   OH253329   3.818   0.611  17.407  0.5349 -0.3904  0.2290
10613TIP3    H153330   3.910   0.590  17.419  0.8411 -0.0523 -1.3563
10613TIP3    H253331   3.804   0.608  17.312 -1.2329 -1.0319  0.4650
10614TIP3   OH253332   2.519   1.817  16.867 -0.4589 -0.5815 -0.1318
10614TIP3    H153333   2.567   1.757  16.810 -2.1098 -1.6637 -0.4471
10614TIP3    H253334   2.450   1.853  16.812  0.0965  1.1502  0.2412
10615TIP3   OH253335   2.232   6.243  14.912 -0.3160 -0.2865 -0.1220
10615TIP3    H153336   2.209   6.253  14.820 -1.1651  0.5165  0.1664
10615TIP3    H253337   2.285   6.163  14.915  0.6228  0.2577 -1.4530
10616TIP3   OH253338   2.709   6.691   0.715 -0.6378 -0.4855  0.1202
10616TIP3    H153339   2.694   6.703   0.808 -1.7722 -0.7955 -0.0057
10616TIP3    H253340   2.753   6.771   0.686  2.0051 -1.3932  1.3684
10617TIP3   OH253341   5.324   2.901  16.565  0.3259  0.0345 -0.5414
10617TIP3    H153342   5.400   2.959  16.560  0.7131 -0.1665  1.9311
10617TIP3    H253343   5.284   2.921  16.650 -2.1548 -0.1966 -1.5803
10618TIP3   OH253344   6.345   0.990   3.115  0.5029  0.1163  0.2378
10618TIP3    H153345   6.262   1.022   3.078  0.7405 -1.1657 -1.5315
10618TIP3    H253346   6.329   0.898   3.134  1.5132 -0.1418 -0.1161
10619TIP3   OH253347   2.611   5.498  15.701 -0.0029  0.1506  0.3530
10619TIP3    H153348   2.620   5.406  15.674 -0.8999  0.1692 -0.0529
10619TIP3    H253349   2.596   5.494  15.795  3.8926  0.1203  1.1259
10620TIP3   OH253350   5.021   6.477   1.779 -0.0494  0.1603  0.0977
10620TIP3    H153351   5.078   6.553   1.767  1.0971 -0.8118 -0.9563
10620TIP3    H253352   5.069   6.421   1.840  0.0047 -0.5346 -0.5704
10621TIP3   OH253353   1.550   0.933  15.068  0.4442 -0.4245 -0.4350
10621TIP3    H153354   1.546   0.840  15.092 -1.3729 -0.4556 -0.7229
10621TIP3    H253355   1.632   0.942  15.021  1.5437 -1.4845  1.1682
10622TIP3   OH253356   3.715   3.885   3.453  0.3132  0.5139 -0.2323
10622TIP3    H153357   3.733   3.829   3.378 -0.3753 -0.9356  0.6422
10622TIP3    H253358   3.639   3.938   3.426 -1.1379 -1.3245  0.0547
10623TIP3   OH253359   5.220   2.134   6.661  0.0956 -0.0170  0.1965
10623TIP3    H153360   5.308   2.108   6.634  0.8926  1.2720  1.4045
10623TIP3    H253361   5.198   2.207   6.603 -0.2310 -0.4159 -0.1834
10624TIP3   OH253362   4.716   5.925  13.829  0.2057  0.2619  0.2078
10624TIP3    H153363   4.802   5.921  13.787 -0.7995 -3.8577 -1.9570
10624TIP3    H253364   4.712   6.014  13.865  4.8487  1.0487 -0.4966
10625TIP3   OH253365   0.928   4.714   4.455 -0.2769  1.1329  0.1335
10625TIP3    H153366   0.849   4.751   4.492 -0.6595 -0.3531  0.8873
10625TIP3    H253367   0.946   4.767   4.377 -1.9374  1.5589  0.0149
10626TIP3   OH253368   2.994   1.803   1.829 -0.0041  0.3510  0.0955
10626TIP3    H153369   3.074   1.815   1.880  0.2438  0.7031 -0.3696
10626TIP3    H253370   2.927   1.782   1.894  0.4916 -0.0928  0.4751
10627TIP3   OH253371   1.683   4.758   4.317  0.1307 -0.7390  0.2752
10627TIP3    H153372   1.652   4.672   4.344  1.1126 -0.8676  1.0242
10627TIP3    H253373   1.692   4.807   4.399 -0.9022  0.2520 -0.1778
10628TIP3   OH253374   6.029   4.996  13.284 -0.2353  0.1362 -0.2815
10628TIP3    H153375   5.978   4.993  13.365 -0.0083 -0.3558 -0.1570
10628TIP3    H253376   6.018   5.086  13.253 -0.5564  0.2491  0.1420
10629TIP3   OH253377   3.162   1.581   2.079  0.2334 -0.4404 -0.2882
10629TIP3    H153378   3.213   1.501   2.095  1.1051  0.1872  0.1695
10629TIP3    H253379   3.071   1.553   2.085  0.5156 -1.5376 -0.8486
10630TIP3   OH253380   1.779   6.357   0.514 -0.5322  0.4387  0.5388
10630TIP3    H153381   1.724   6.297   0.565  0.1948  0.1648  1.0108
10630TIP3    H253382   1.717   6.420   0.477 -1.2602 -0.3495  0.3760
10631TIP3   OH253383   2.386   1.275   3.207  0.0612 -0.1457  0.5612
10631TIP3    H153384   2.351   1.362   3.226  0.6036  0.5700 -1.5318
10631TIP3    H253385   2.473   1.275   3.248  1.1195  1.2837 -1.5467
10632TIP3   OH253386   6.520   5.570  15.398  0.2719  0.3212 -0.2254
10632TIP3    H153387   6.615   5.585  15.395  0.4511 -0.8545 -0.7013
10632TIP3    H253388   6.483   5.656  15.420  1.5421  0.4703  1.5756
10633TIP3   OH253389   3.514   1.598  16.752  0.1440  0.1657 -0.4686
10633TIP3    H153390   3.502   1.525  16.812  2.8655  0.1196  0.1444
10633TIP3    H253391   3.494   1.562  16.665 -1.2076 -0.5044  0.0906
10634TIP3   OH253392   2.126   5.522  12.335 -0.0285  0.1459  0.4299
10634TIP3    H153393   2.222   5.525  12.326  0.0375  1.0125  1.1918
10634TIP3    H253394   2.104   5.607  12.373 -1.4225  1.1555 -2.3734
10635TIP3   OH253395   4.315   0.220   0.375  0.4206  0.1652  0.0530
10635TIP3    H153396   4.278   0.139   0.339  0.0613  0.1004  0.5674
10635TIP3    H253397   4.405   0.221   0.342 -0.4928  1.2192 -2.7329
10636TIP3   OH253398   2.352   5.865  15.473 -0.5040 -0.4751 -0.3005
10636TIP3    H153399   2.320   5.878  15.562 -0.4340 -0.5439 -0.2640
10636TIP3    H253400   2.277   5.830  15.425 -0.5674 -0.3529 -0.2909
10637TIP3   OH253401   3.375   5.036   4.471  0.0114  0.1125  0.0867
10637TIP3    H153402   3.282   5.017   4.462  0.1923 -0.7916 -0.0084
10637TIP3    H253403   3.413   4.955   4.507  0.9798 -0.0750 -1.2664
10638TIP3   OH253404   0.779   3.601  14.970 -0.3140 -0.6000  0.6275
10638TIP3    H153405   0.812   3.518  15.005 -0.4024 -0.8415  0.1415
10638TIP3    H253406   0.780   3.660  15.046  1.2870 -0.5771  0.6278
10639TIP3   OH253407   5.974   2.873  10.842  0.5114 -0.1118 -0.2981
10639TIP3    H153408   5.914   2.922  10.898  2.1456 -0.5437  1.9333
10639TIP3    H253409   5.942   2.783  10.847  0.1653 -0.0288 -0.8101
10640TIP3   OH253410   1.422   5.143  15.099  0.0982 -0.2920  0.4175
10640TIP3    H153411   1.418   5.174  15.189 -2.7724  0.8460  0.0054
10640TIP3    H253412   1.477   5.207  15.054 -0.3193  0.4274  0.9147
10641TIP3   OH253413   5.312   6.059  15.898 -0.3253  0.1591 -0.0330
10641TIP3    H153414   5.395   6.042  15.853 -0.3519 -0.3036  0.0853
10641TIP3    H253415   5.246   6.050  15.830 -0.1768  2.1214 -0.4931
10642TIP3   OH253416   4.360   3.885  12.741  0.5485  0.3881 -0.3804
10642TIP3    H153417   4.296   3.866  12.811  0.0929 -2.3568 -1.4259
10642TIP3    H253418   4.317   3.951  12.687 -0.6214 -0.0527 -0.0223
10643TIP3   OH253419   3.156   5.627   4.124 -0.5564 -0.3256 -0.3162
10643TIP3    H153420   3.179   5.678   4.046 -1.2745  0.4784 -0.0196
10643TIP3    H253421   3.061   5.630   4.128 -0.4923  0.7099  1.2683
10644TIP3   OH253422   5.255   0.453   2.958  0.5837 -0.6171 -0.1609
10644TIP3    H153423   5.298   0.445   2.873 -3.0784 -0.5389 -2.2411
10644TIP3    H253424   5.216   0.367   2.973  0.6008 -0.4237  1.1703
10645TIP3   OH253425   5.557   0.629  12.690  0.2130 -0.0740  0.2770
10645TIP3    H153426   5.515   0.543  12.678 -0.2638  0.3428 -1.2479
10645TIP3    H253427   5.603   0.645  12.608 -0.4658  1.5460  0.1784
10646TIP3   OH253428   1.950   2.031   4.993 -0.5246 -0.1027 -0.3051
10646TIP3    H153429   1.983   1.953   4.951 -0.3274 -0.3372  0.2747
10646TIP3    H253430   1.931   2.091   4.921  1.3680  0.1342 -0.6684
10647TIP3   OH253431   0.715   5.333   5.015 -0.0075  0.6260 -0.3787
10647TIP3    H153432   0.787   5.316   4.954  0.1784  0.6427 -0.1654
10647TIP3    H253433   0.690   5.423   4.997  0.1337  0.6733 -0.3437
10648TIP3   OH253434   0.215   2.499   0.979  0.7609  0.1958 -0.1925
10648TIP3    H153435   0.296   2.551   0.981  0.6642  0.3741 -0.6824
10648TIP3    H253436   0.243   2.410   1.002  1.1786  0.1612 -0.7881
10649TIP3   OH253437   0.246   3.582   3.463 -0.5693 -0.3985  0.3421
10649TIP3    H153438   0.262   3.493   3.496 -0.9146 -0.6516 -0.1732
10649TIP3    H253439   0.196   3.569   3.383  0.1316  0.2237 -0.2059
10650TIP3   OH253440   5.596   2.595  11.577 -0.3267  0.1083 -0.1126
10650TIP3    H153441   5.572   2.510  11.613 -2.3674  0.5532 -0.3186
10650TIP3    H253442   5.574   2.589  11.484  0.4661  0.5475 -0.3431
10651TIP3   OH253443   1.605   0.976  13.444  0.6284  0.1726  0.4085
10651TIP3    H153444   1.636   0.913  13.509  1.8941 -1.1517 -1.3851
10651TIP3    H253445   1.575   0.923  13.371 -1.4624  1.5956  0.1200
10652TIP3   OH253446   0.891   3.467   4.425  0.0593  0.4635  0.3255
10652TIP3    H153447   0.962   3.524   4.394 -0.3758  0.2104 -1.1848
10652TIP3    H253448   0.845   3.520   4.490 -1.9031  2.9479 -2.8120
10653TIP3   OH253449   4.719   6.031   3.047 -0.1138 -0.0866  0.3686
10653TIP3    H153450   4.813   6.027   3.028 -0.2672  2.1785 -1.3207
10653TIP3    H253451   4.708   6.115   3.092 -1.3510 -0.2455  0.3898
10654TIP3   OH253452   4.292   4.968   6.416 -0.1691 -0.1652 -0.2800
10654TIP3    H153453   4.313   5.014   6.497 -0.5303 -1.8842  0.8376
10654TIP3    H253454   4.214   5.013   6.383  0.0982  0.6734  0.1933
10655TIP3   OH253455   4.722   3.405  12.497  0.4046  0.1160  0.3498
10655TIP3    H153456   4.635   3.375  12.470  0.6273 -0.0378 -0.2094
10655TIP3    H253457   4.721   3.399  12.593 -0.6208  1.2640  0.4317
10656TIP3   OH253458   3.488   3.525  13.103 -0.0084  0.7178  0.4112
10656TIP3    H153459   3.542   3.572  13.166 -0.5200  1.2390  0.4688
10656TIP3    H253460   3.464   3.444  13.148  1.8838 -0.1999 -0.1384
10657TIP3   OH253461   1.480   3.624  12.471 -0.1346 -0.2327  0.1302
10657TIP3    H153462   1.452   3.559  12.535 -2.0041 -0.7312 -1.1073
10657TIP3    H253463   1.437   3.705  12.498  3.2649  1.0098  2.4663
10658TIP3   OH253464   4.436   6.253  14.424 -0.4821  0.0366 -0.1178
10658TIP3    H153465   4.422   6.221  14.513 -0.1876 -1.6478 -0.6422
10658TIP3    H253466   4.504   6.320  14.432 -2.0349  1.5291  1.1967
10659TIP3   OH253467   2.465   5.618   2.896 -0.7871 -0.0771 -0.7039
10659TIP3    H153468   2.442   5.566   2.819 -1.7031 -0.0805 -0.4396
10659TIP3    H253469   2.529   5.565   2.943 -2.0299 -1.1919 -0.2090
10660TIP3   OH253470   1.060   4.451   2.525 -0.0263 -0.4436 -0.4707
10660TIP3    H153471   1.051   4.470   2.432  0.4480  1.1969 -0.2126
10660TIP3    H253472   0.973   4.423   2.553 -0.1961 -0.8410 -1.3737
10661TIP3   OH253473   5.046   0.288  13.928 -0.2250 -0.2055 -0.1196
10661TIP3    H153474   5.061   0.196  13.905 -2.3266 -0.5500 -0.3316
10661TIP3    H253475   5.031   0.332  13.844 -1.8924 -0.2393  0.1355
10662TIP3   OH253476   2.393   4.639   3.052 -0.1222  0.0167  0.5650
10662TIP3    H153477   2.302   4.666   3.064 -1.0053 -0.5037 -3.4894
10662TIP3    H253478   2.401   4.558   3.101 -1.5493  0.5254  1.7077
10663TIP3   OH253479   1.096   0.006   3.180 -0.2426 -0.2511  0.1713
10663TIP3    H153480   1.015   0.047   3.151  0.8268  2.3286  0.5965
10663TIP3    H253481   1.162   0.032   3.116  0.8071  0.0866  1.3332
10664TIP3   OH253482   5.508   1.340  11.222 -0.0968 -0.5714  0.1954
10664TIP3    H153483   5.472   1.258  11.256 -0.7879 -0.4575 -0.2342
10664TIP3    H253484   5.593   1.349  11.265 -0.0371 -1.4816  0.2888
10665TIP3   OH253485   6.125   1.374  12.834 -0.3336  0.2579  0.7049
10665TIP3    H153486   6.050   1.329  12.874 -0.2470  1.9344  2.9400
10665TIP3    H253487   6.147   1.321  12.758 -1.7263 -2.0954  1.8409
10666TIP3   OH253488   1.458   2.011  14.639 -0.3777 -0.5966  0.9341
10666TIP3    H153489   1.425   1.968  14.561  0.9695 -0.2810  0.1581
10666TIP3    H253490   1.404   2.090  14.647  0.9370  0.5933 -1.0604
10667TIP3   OH253491   3.323   6.082   0.945  0.3415  0.2546 -0.3250
10667TIP3    H153492   3.268   6.097   0.869  0.1529 -0.5800 -0.3657
10667TIP3    H253493   3.412   6.102   0.915  0.5349 -1.9124 -1.3671
10668TIP3   OH253494   1.875   6.625   4.705 -0.2461 -0.1765  0.6620
10668TIP3    H153495   1.936   6.686   4.746 -0.9370  1.8618 -1.0946
10668TIP3    H253496   1.930   6.569   4.650  0.2159  0.5677  0.3471
10669TIP3   OH253497   0.313   0.363   5.550 -0.0753  0.2033 -0.2973
10669TIP3    H153498   0.340   0.345   5.460  0.3829 -1.1446  0.0903
10669TIP3    H253499   0.230   0.317   5.560  0.5149 -0.7353  0.3513
10670TIP3   OH253500   3.646   2.727  12.280 -0.3148  0.1418  0.0741
10670TIP3    H153501   3.578   2.772  12.330  0.3966  0.8195  0.4541
10670TIP3    H253502   3.707   2.694  12.347  1.6129  2.6042 -0.3323
10671TIP3   OH253503   6.558   4.431   2.453  0.1561 -0.2259  0.0243
10671TIP3    H153504   6.645   4.458   2.424  0.3958 -0.0042  0.9327
10671TIP3    H253505   6.506   4.428   2.372  1.2701 -1.4161 -0.6893
10672TIP3   OH253506   5.505   4.163  16.607  0.1413 -0.1797  0.5100
10672TIP3    H153507   5.567   4.235  16.599 -1.1663  1.2838  2.5111
10672TIP3    H253508   5.455   4.166  16.525 -0.0023  1.3305  0.6230
10673TIP3   OH253509   5.390   5.599   1.294 -0.1531 -0.2084 -0.5621
10673TIP3    H153510   5.447   5.582   1.220 -0.9756  0.2930 -1.3260
10673TIP3    H253511   5.367   5.512   1.328  1.5507 -0.4200  0.1748
10674TIP3   OH253512   1.675   6.401   5.885 -0.1471  0.1987 -0.0169
10674TIP3    H153513   1.766   6.432   5.881 -0.7391  2.0487  0.0043
10674TIP3    H253514   1.622   6.481   5.889 -1.7816 -0.8401  0.1744
10675TIP3   OH253515   1.425   6.256   1.416  0.5653  0.0366  0.7368
10675TIP3    H153516   1.402   6.187   1.353  0.1678  0.8808 -0.0744
10675TIP3    H253517   1.521   6.258   1.415  0.5662  0.4660 -0.3524
10676TIP3   OH253518   6.693   6.288  12.680  0.0527 -0.6069 -0.3997
10676TIP3    H153519   6.780   6.326  12.690  1.3730 -3.7565  1.6502
10676TIP3    H253520   6.633   6.359  12.702  2.0690  1.4412 -1.1057
10677TIP3   OH253521   2.415   5.295   3.933  0.8309 -0.3746 -0.2412
10677TIP3    H153522   2.384   5.382   3.907  0.6229 -0.4881 -0.3747
10677TIP3    H253523   2.377   5.280   4.019  0.6058 -0.4664 -0.3559
10678TIP3   OH253524   6.642   3.886  12.149  0.5245 -0.4192 -0.2714
10678TIP3    H153525   6.650   3.929  12.234  2.4551 -2.1826  0.5371
10678TIP3    H253526   6.676   3.798  12.163 -0.7171 -1.3500 -2.4881
10679TIP3   OH253527   4.302   1.127   4.347 -0.2611  0.2955  0.1053
10679TIP3    H153528   4.328   1.093   4.262 -1.0279  1.7913 -0.7586
10679TIP3    H253529   4.263   1.212   4.329 -0.6524  0.5578  1.9318
10680TIP3   OH253530   4.686   0.584  15.485  0.3697  0.1548 -0.0907
10680TIP3    H153531   4.683   0.491  15.508 -0.0884 -0.1326 -1.2769
10680TIP3    H253532   4.602   0.619  15.515  0.1941  0.0066 -0.4136
10681TIP3   OH253533   4.297   6.397  13.296  0.5204  0.2835 -0.7024
10681TIP3    H153534   4.263   6.484  13.278 -1.2748 -0.2812 -0.2861
10681TIP3    H253535   4.268   6.377  13.385  1.2290 -0.5998 -0.6478
10682TIP3   OH253536   2.787   2.836   3.459  0.2329 -0.5392 -0.1977
10682TIP3    H153537   2.746   2.792   3.533  2.4459  1.3222  2.3528
10682TIP3    H253538   2.723   2.902   3.431 -0.0930 -0.2991  1.0659
10683TIP3   OH253539   6.723   5.385   3.358  0.1871 -0.1576 -0.8698
10683TIP3    H153540   6.696   5.306   3.404 -0.7348 -1.1495 -2.9993
10683TIP3    H253541   6.804   5.360   3.312  2.6949  1.5979  2.1750
10684TIP3   OH253542   0.137   4.568   4.250 -0.3919  0.5080 -0.0033
10684TIP3    H153543   0.130   4.476   4.225  1.2425  0.4633 -0.4626
10684TIP3    H253544   0.165   4.566   4.342 -0.8909  0.5514  0.1479
10685TIP3   OH253545   5.266   6.172  17.208 -0.3423 -0.4440 -0.0449
10685TIP3    H153546   5.300   6.116  17.278 -1.0542 -0.2964  0.4356
10685TIP3    H253547   5.305   6.137  17.128  1.1923 -0.0534  0.5099
10686TIP3   OH253548   5.009   6.740   3.173 -0.2380 -0.0645  0.0912
10686TIP3    H153549   5.066   6.816   3.178  0.0059 -0.1985 -0.4631
10686TIP3    H253550   4.920   6.775   3.175 -0.1331  0.1781  0.5279
10687TIP3   OH253551   3.224   0.381   5.399 -0.7559  0.0878  0.1936
10687TIP3    H153552   3.264   0.348   5.319 -1.1352 -0.2342  0.1382
10687TIP3    H253553   3.131   0.363   5.390 -0.5392 -2.2047  1.7739
10688TIP3   OH253554   1.694   4.063  11.940  0.1464  0.8209  0.0655
10688TIP3    H153555   1.638   4.137  11.916  0.0755  1.0786  0.9987
10688TIP3    H253556   1.766   4.102  11.991 -1.0033  0.0499  2.4104
10689TIP3   OH253557   2.933   5.677  11.394 -0.5472  0.4542  0.4748
10689TIP3    H153558   3.014   5.646  11.435 -2.5095 -1.7897  3.0258
10689TIP3    H253559   2.901   5.746  11.452 -1.0597  0.5013  0.1397
10690TIP3   OH253560   0.278   1.604  16.898 -0.0223 -0.3742  0.1536
10690TIP3    H153561   0.332   1.670  16.940  0.6745  0.3572 -1.7788
10690TIP3    H253562   0.223   1.653  16.837  0.0265 -1.4948 -0.8326
10691TIP3   OH253563   6.131   4.992   3.108 -0.3077  0.7860 -0.0716
10691TIP3    H153564   6.197   5.006   3.040 -1.8278  1.0546 -1.5639
10691TIP3    H253565   6.107   5.080   3.136  2.3616  0.7117  3.0365
10692TIP3   OH253566   5.638   4.327  12.060  0.4052  0.0145 -0.0112
10692TIP3    H153567   5.553   4.353  12.095  0.0909 -0.2363 -0.5700
10692TIP3    H253568   5.629   4.234  12.041  0.2457  0.3219 -1.6111
10693TIP3   OH253569   5.048   0.756  13.066  1.0019 -0.1154 -0.1635
10693TIP3    H153570   5.093   0.747  12.981 -0.0452  0.2104 -0.7656
10693TIP3    H253571   4.976   0.693  13.062  0.6921  0.2045  0.3174
10694TIP3   OH253572   1.651   5.830  16.462  0.3418 -0.0415 -0.2293
10694TIP3    H153573   1.699   5.912  16.469  0.9568 -0.4832  1.0833
10694TIP3    H253574   1.559   5.856  16.457  0.6210  0.7863 -2.0121
10695TIP3   OH253575   1.180   4.336  17.415  0.1749 -0.3682 -0.4380
10695TIP3    H153576   1.133   4.337  17.498  0.5309 -0.8765 -0.2234
10695TIP3    H253577   1.165   4.423  17.378  0.3746  0.0196  0.3643
10696TIP3   OH253578   3.941   4.919   0.844  0.4677  0.2584  0.1324
10696TIP3    H153579   3.856   4.950   0.810  0.8942  0.2865 -0.9569
10696TIP3    H253580   3.918   4.868   0.921 -0.4809  0.9412  0.3267
10697TIP3   OH253581   2.348   3.077   2.648  1.1896  0.2123 -0.3033
10697TIP3    H153582   2.381   2.991   2.622 -2.6280 -1.8293  0.7510
10697TIP3    H253583   2.325   3.120   2.566  0.0054 -1.2903 -0.8158
10698TIP3   OH253584   5.610   4.119  13.665  0.2911 -0.2157  0.4142
10698TIP3    H153585   5.700   4.087  13.671  1.1115  1.5338 -1.4733
10698TIP3    H253586   5.611   4.203  13.711  0.2649  0.9177 -1.5464
10699TIP3   OH253587   3.738   2.231   0.750 -0.0917  0.0558  0.3158
10699TIP3    H153588   3.769   2.218   0.840 -1.3137  3.9437  1.5141
10699TIP3    H253589   3.650   2.194   0.749  0.1028 -0.4186  0.5794
10700TIP3   OH253590   2.879   3.063  13.942  0.4004  0.1238  0.3344
10700TIP3    H153591   2.889   3.027  14.030  0.2947 -1.3362 -0.2214
10700TIP3    H253592   2.865   2.987  13.886 -0.5553  1.0838 -0.8122
10701TIP3   OH253593   1.606   1.337   3.797  0.2909  0.2365 -0.1341
10701TIP3    H153594   1.674   1.271   3.805  1.6835  1.7856  1.9548
10701TIP3    H253595   1.587   1.342   3.704  1.5941 -1.6550 -0.5409
10702TIP3   OH253596   3.950   2.052  16.626 -0.2696  0.8219  0.3109
10702TIP3    H153597   3.864   2.093  16.629 -1.2063 -1.0653  0.6007
10702TIP3    H253598   3.957   2.004  16.709 -0.7174 -2.3073 -1.2884
10703TIP3   OH253599   3.054   0.063   1.906  0.6637  0.1163 -0.1346
10703TIP3    H153600   3.089   0.005   1.973 -1.5124 -0.4834  0.5805
10703TIP3    H253601   3.059   0.013   1.825  0.0097 -0.5910  0.2504
10704TIP3   OH253602   3.245   1.830   1.954  0.7986  0.3487  0.4270
10704TIP3    H153603   3.319   1.798   1.904  0.2225  1.0405 -0.9133
10704TIP3    H253604   3.224   1.759   2.015  2.2966 -0.0043  0.5702
10705TIP3   OH253605   0.223   3.477  17.363 -0.2446 -0.2550 -0.1559
10705TIP3    H153606   0.296   3.420  17.385 -1.6006 -2.4750 -1.0524
10705TIP3    H253607   0.255   3.530  17.290  1.1556  0.4241  0.9065
10706TIP3   OH253608   0.515   3.478  17.178  0.3388  0.5446  0.4392
10706TIP3    H153609   0.542   3.452  17.266 -2.0358  0.9076  1.3581
10706TIP3    H253610   0.505   3.395  17.131  1.1769  0.3245  0.6300
10707TIP3   OH253611   3.600   1.658   0.493 -0.0548 -0.4151 -1.1995
10707TIP3    H153612   3.677   1.607   0.519  0.3210  0.4421 -0.5958
10707TIP3    H253613   3.526   1.600   0.513  0.3764 -0.8459 -0.8032
10708TIP3   OH253614   2.318   3.663   4.432  0.3424 -0.3287  0.2761
10708TIP3    H153615   2.362   3.716   4.367  0.5642  0.5124  1.0890
10708TIP3    H253616   2.225   3.680   4.418  0.0386 -3.3678 -2.5281
10709TIP3   OH253617   2.769   3.452  15.353 -0.1957 -0.2859  0.2544
10709TIP3    H153618   2.761   3.455  15.449  0.6120 -1.5653  0.3725
10709TIP3    H253619   2.862   3.437  15.337  0.3552  3.3133 -0.8558
10710TIP3   OH253620   0.386   2.233  16.595  0.2672  0.5636  0.3385
10710TIP3    H153621   0.415   2.275  16.676  0.9375 -1.6498  1.3345
10710TIP3    H253622   0.425   2.284  16.525  1.9280  0.9574  1.5138
10711TIP3   OH253623   0.663   5.594  17.103  0.2447 -0.0288 -0.5965
10711TIP3    H153624   0.704   5.663  17.155  1.7932  0.4390 -2.3198
10711TIP3    H253625   0.587   5.636  17.063 -0.7988 -0.3194  0.9944
10712TIP3   OH253626   5.731   4.395   0.205  0.4167  0.6182 -0.3772
10712TIP3    H153627   5.647   4.391   0.251 -0.6782  0.8252 -2.2935
10712TIP3    H253628   5.796   4.377   0.274 -1.1797  0.2496  1.1105
10713TIP3   OH253629   6.183   3.939  13.156  0.4719  0.1596 -0.0887
10713TIP3    H153630   6.143   3.867  13.107 -1.0429 -0.0480  1.3711
10713TIP3    H253631   6.250   3.898  13.209  1.0890  0.1716 -0.8344
10714TIP3   OH253632   6.272   5.707  11.301 -0.2039 -0.5761 -0.0872
10714TIP3    H153633   6.262   5.742  11.213  0.6382 -0.1528 -0.0279
10714TIP3    H253634   6.365   5.718  11.321 -0.4261 -0.4467  0.9407
10715TIP3   OH253635   4.629   0.920   4.553  0.3883 -0.0834  0.5520
10715TIP3    H153636   4.693   0.860   4.515 -1.2015 -0.9910 -0.8084
10715TIP3    H253637   4.550   0.866   4.564 -0.5145  1.3007  1.0488
10716TIP3   OH253638   6.460   1.079  17.332  0.0529 -0.1764  0.3033
10716TIP3    H153639   6.414   1.081  17.416  0.6002 -1.8767  0.6782
10716TIP3    H253640   6.520   1.004  17.339  0.2234 -0.2563 -1.5482
10717TIP3   OH253641   3.986   2.374   5.130  0.5080  0.6371  0.5318
10717TIP3    H153642   4.056   2.417   5.082  0.3137  0.6175  0.2243
10717TIP3    H253643   4.015   2.283   5.139 -1.1514 -0.4577 -3.1173
10718TIP3   OH253644   3.109   0.654  16.830 -0.3127 -0.1411  0.0660
10718TIP3    H153645   3.040   0.612  16.777  1.1594 -1.3006 -1.0242
10718TIP3    H253646   3.155   0.581  16.870  0.2298  0.6286  0.8550
10719TIP3   OH253647   6.781   0.496  12.508 -0.6485 -0.9279 -0.1070
10719TIP3    H153648   6.869   0.474  12.478  0.5735  2.1753  0.8344
10719TIP3    H253649   6.739   0.537  12.433  0.0201  0.7670  0.4051
10720TIP3   OH253650   0.863   0.534   3.764  0.1278  0.1119 -0.0917
10720TIP3    H153651   0.791   0.494   3.715  0.2150 -0.6058  0.3568
10720TIP3    H253652   0.879   0.474   3.837  0.4110  0.8526  0.4667
10721TIP3   OH253653   5.435   1.623   2.999 -0.2108 -0.4222 -0.6885
10721TIP3    H153654   5.505   1.602   2.937  0.1853 -0.2668 -0.2968
10721TIP3    H253655   5.374   1.550   2.992 -0.6240  0.0065 -1.9066
10722TIP3   OH253656   2.084   5.346   6.421  0.4577 -0.3657  0.1964
10722TIP3    H153657   2.139   5.379   6.492 -0.4595 -1.6624  1.5664
10722TIP3    H253658   2.111   5.255   6.409  0.7582 -0.1155 -1.3218
10723TIP3   OH253659   1.449   2.046  13.987  0.1672 -0.3974  0.1877
10723TIP3    H153660   1.523   2.074  14.042 -0.5052 -1.9452  2.0056
10723TIP3    H253661   1.475   1.959  13.957 -1.1360 -1.2710  1.4302
10724TIP3   OH253662   3.236   1.515   5.419  0.0711  0.0652  0.5191
10724TIP3    H153663   3.149   1.495   5.385  0.4619 -0.0966 -0.4399
10724TIP3    H253664   3.223   1.592   5.474 -0.6029  0.3599 -0.0276
10725TIP3   OH253665   5.402   4.206   2.675  0.4670  0.0864  0.0636
10725TIP3    H153666   5.422   4.120   2.639 -1.9338 -1.1238  1.3800
10725TIP3    H253667   5.447   4.268   2.616 -0.4467 -1.8928 -2.9667
10726TIP3   OH253668   4.792   2.960   3.425 -0.0541  0.3607  0.0909
10726TIP3    H153669   4.827   2.990   3.509 -0.4557 -0.0744  0.4218
10726TIP3    H253670   4.721   2.901   3.449 -1.3517  1.6105 -0.5763
10727TIP3   OH253671   6.247   3.808   2.458  0.3964 -0.2885 -0.3201
10727TIP3    H153672   6.329   3.759   2.464 -0.6899 -2.0495  1.3205
10727TIP3    H253673   6.255   3.877   2.524  0.7402 -0.1665 -0.4888
10728TIP3   OH253674   0.132   2.659  13.524  0.3821  0.0433 -0.4341
10728TIP3    H153675   0.130   2.698  13.611  1.3409  1.7282 -1.1244
10728TIP3    H253676   0.216   2.613  13.519 -0.3820 -1.4997  0.0736
10729TIP3   OH253677   1.804   5.552   4.881 -0.5117  0.4770  0.6472
10729TIP3    H153678   1.876   5.602   4.918  0.8068  1.0803 -2.4630
10729TIP3    H253679   1.816   5.558   4.786 -2.9226 -1.9700  0.0523
10730TIP3   OH253680   3.219   5.017   5.399  0.5027  0.3238 -0.3149
10730TIP3    H153681   3.181   4.998   5.313  0.2276  0.2510 -0.1790
10730TIP3    H253682   3.303   5.057   5.379 -0.3481  2.0180 -0.6364
10731TIP3   OH253683   1.654   4.585  16.306  0.0007  0.8666 -0.5348
10731TIP3    H153684   1.683   4.625  16.388  0.3390 -2.0254  0.9217
10731TIP3    H253685   1.560   4.599  16.304 -0.0764  0.6311  0.6160
10732TIP3   OH253686   5.350   6.002  12.719 -0.0587 -0.0752  0.0148
10732TIP3    H153687   5.425   6.055  12.692  0.5647 -1.9592 -2.2391
10732TIP3    H253688   5.275   6.040  12.674  0.7135 -2.1802 -3.3685
10733TIP3   OH253689   0.248   3.680   3.853  0.3149 -0.1373 -0.2149
10733TIP3    H153690   0.153   3.682   3.845  0.3771  0.5354 -0.8589
10733TIP3    H253691   0.266   3.595   3.894 -0.3929 -1.5709 -2.6475
10734TIP3   OH253692   4.710   1.440  17.100 -0.0637  0.0509  0.2311
10734TIP3    H153693   4.686   1.352  17.071  0.0993 -0.0465  0.3842
10734TIP3    H253694   4.672   1.499  17.035  0.8713 -0.1981 -0.5550
10735TIP3   OH253695   0.581   2.033   1.205 -0.3880  0.0134  0.3957
10735TIP3    H153696   0.619   1.996   1.285 -1.6810 -3.5069 -0.4009
10735TIP3    H253697   0.648   2.019   1.138 -0.1986  0.8222  0.4091
10736TIP3   OH253698   2.877   1.706  11.924  0.0164 -0.3176  0.6180
10736TIP3    H153699   2.907   1.698  11.834 -1.6266  0.6370 -0.0575
10736TIP3    H253700   2.942   1.659  11.976  1.6418  0.1422 -0.9311
10737TIP3   OH253701   0.859   2.191  14.247 -0.0708  0.2010 -0.1059
10737TIP3    H153702   0.894   2.107  14.275  1.9986  0.8791 -0.4729
10737TIP3    H253703   0.937   2.246  14.233 -1.2766  1.6264 -1.5999
10738TIP3   OH253704   0.064   2.222  14.029 -0.1341 -0.2772  0.3272
10738TIP3    H153705  -0.030   2.225  14.044 -0.2317  1.9465 -0.4390
10738TIP3    H253706   0.075   2.247  13.938  1.1903 -0.9641  0.2711
10739TIP3   OH253707   4.950   0.425  13.698 -0.2699 -0.2671  0.2300
10739TIP3    H153708   4.871   0.372  13.691  0.2555 -0.9717 -0.5148
10739TIP3    H253709   4.918   0.515  13.704 -1.1205 -0.5430 -0.0701
10740TIP3   OH253710   4.989   1.957   2.053 -0.3832 -0.3680  0.0736
10740TIP3    H153711   5.075   1.999   2.050 -0.7310  0.8120  3.3918
10740TIP3    H253712   4.989   1.907   2.134 -1.8925 -2.6634 -1.2321
10741TIP3   OH253713   4.853   0.178  11.477 -0.6883 -0.0152  0.2773
10741TIP3    H153714   4.879   0.265  11.508 -1.8374  0.0748  1.0603
10741TIP3    H253715   4.759   0.185  11.463 -0.7472 -1.0651  0.0809
10742TIP3   OH253716   0.378   5.074   4.497 -0.6160  0.0152 -0.5057
10742TIP3    H153717   0.394   5.049   4.588  0.4927  1.0594 -0.3868
10742TIP3    H253718   0.465   5.096   4.463 -1.0663 -0.0273 -1.7121
10743TIP3   OH253719   4.541   0.043   5.760  0.0879 -0.0542 -0.2755
10743TIP3    H153720   4.590  -0.018   5.705  0.5835 -0.2055  0.3310
10743TIP3    H253721   4.594   0.122   5.761 -0.3185  0.2244 -0.6691
10744TIP3   OH253722   4.049   6.749   5.102  0.0193  0.1896 -0.4405
10744TIP3    H153723   3.985   6.814   5.075 -0.5218  0.5086  1.4693
10744TIP3    H253724   4.103   6.793   5.168 -0.5302 -1.3194  1.0960
10745TIP3   OH253725   3.213   0.373   4.263  0.0929 -0.5263 -0.6197
10745TIP3    H153726   3.304   0.388   4.237 -0.3574  1.5146 -1.2531
10745TIP3    H253727   3.162   0.398   4.186 -1.0478  0.0768  0.3004
10746TIP3   OH253728   5.444   3.475  13.420 -0.4507  0.3546  0.3942
10746TIP3    H153729   5.429   3.387  13.454  0.6097  0.5961  1.5464
10746TIP3    H253730   5.466   3.462  13.328  1.2490 -0.7633  0.9058
10747TIP3   OH253731   0.158   2.041  15.637 -0.1625  0.3270  0.5031
10747TIP3    H153732   0.142   2.034  15.731  0.9686 -0.1299  0.6799
10747TIP3    H253733   0.196   2.129  15.625 -0.3019  0.3833  0.4729
10748TIP3   OH253734   1.706   3.680   1.413  0.0389  0.3473 -0.7283
10748TIP3    H153735   1.754   3.715   1.338 -1.4332  0.7083 -1.5623
10748TIP3    H253736   1.685   3.590   1.389  1.7088 -0.3829  0.3658
10749TIP3   OH253737   1.510   1.021   4.927  0.2484  0.0513  0.3121
10749TIP3    H153738   1.469   0.939   4.956  0.2041  0.2391  0.7731
10749TIP3    H253739   1.597   0.994   4.896  0.7223 -0.0087  1.6255
10750TIP3   OH253740   5.895   2.113  14.378  0.1580 -0.4037  0.7792
10750TIP3    H153741   5.869   2.072  14.295 -0.5195  0.7678  0.3770
10750TIP3    H253742   5.901   2.040  14.440 -1.2843 -1.1020  0.1686
10751TIP3   OH253743   2.596   3.614   1.951  0.1287 -0.3501  0.2465
10751TIP3    H153744   2.604   3.526   1.913 -0.2091 -1.1452  1.8856
10751TIP3    H253745   2.579   3.671   1.877  3.0322 -1.2316 -1.2290
10752TIP3   OH253746   1.026   5.529  15.498  0.4096 -0.2284  0.7998
10752TIP3    H153747   0.936   5.549  15.470  1.1198  0.9261 -0.8317
10752TIP3    H253748   1.030   5.433  15.494 -0.4371 -0.2540 -0.2506
10753TIP3   OH253749   0.787   2.961  16.399 -0.3375  0.1280  0.4307
10753TIP3    H153750   0.854   2.907  16.441 -0.7075 -1.3605 -0.8031
10753TIP3    H253751   0.833   3.003  16.326 -0.4542  0.1323  0.3591
10754TIP3   OH253752   1.610   5.641  16.089  0.0137 -0.5633 -0.3198
10754TIP3    H153753   1.525   5.648  16.045  0.3938  2.5192 -0.7274
10754TIP3    H253754   1.673   5.633  16.018  0.1803 -2.0513 -0.0376
10755TIP3   OH253755   1.148   6.305  15.327 -0.0450  0.7703 -0.4578
10755TIP3    H153756   1.168   6.386  15.375 -0.5040  1.1253 -0.8650
10755TIP3    H253757   1.199   6.311  15.247  0.1638  0.5067 -0.3478
10756TIP3   OH253758   2.998   2.740   4.619  0.3550  0.5728 -0.0307
10756TIP3    H153759   3.034   2.773   4.701  0.0921 -0.0381  0.3304
10756TIP3    H253760   3.059   2.672   4.591  0.5704  0.9383 -0.4670
10757TIP3   OH253761   6.157   0.305   4.051 -0.4788 -0.1274 -0.1875
10757TIP3    H153762   6.085   0.292   3.990 -1.3262 -1.1468  0.9700
10757TIP3    H253763   6.115   0.343   4.129  0.2857 -0.3672  0.3578
10758TIP3   OH253764   3.066   2.413  12.954 -0.3266 -0.1661  0.0997
10758TIP3    H153765   3.060   2.368  13.038  0.6202  1.6169  1.1657
10758TIP3    H253766   2.981   2.456  12.944 -0.8089 -1.1920 -0.3723
10759TIP3   OH253767   3.142   0.063  13.663 -0.0352 -0.0705  0.2311
10759TIP3    H153768   3.090   0.012  13.725 -0.4649  0.5989  0.4254
10759TIP3    H253769   3.174   0.137  13.714 -1.0924  0.9456 -0.5350
10760TIP3   OH253770   2.422   1.063   3.676  0.1313 -0.0508 -0.2349
10760TIP3    H153771   2.406   1.002   3.748  0.3938 -0.1891 -0.2907
10760TIP3    H253772   2.518   1.064   3.666  0.0482 -0.8373 -1.2693
10761TIP3   OH253773   5.696   2.507  13.123  0.6017 -0.5549 -0.2750
10761TIP3    H153774   5.783   2.473  13.141 -0.4634 -2.5011  1.6962
10761TIP3    H253775   5.702   2.601  13.142  2.4909 -0.4365 -1.2634
10762TIP3   OH253776   0.364   5.152   6.711  0.7992 -0.0853  0.1451
10762TIP3    H153777   0.450   5.193   6.717  0.4435  0.8369 -0.8446
10762TIP3    H253778   0.306   5.209   6.761  0.4581  0.2236 -0.5758
10763TIP3   OH253779   6.307   3.758  13.330 -0.1109 -0.1185  0.4775
10763TIP3    H153780   6.276   3.708  13.254  1.2053 -2.6537  1.4794
10763TIP3    H253781   6.285   3.704  13.405  1.6322  0.6727  1.6319
10764TIP3   OH253782   6.333   5.335   6.461  0.3424  0.2666  0.1015
10764TIP3    H153783   6.387   5.345   6.539 -1.2073 -0.6178  1.3621
10764TIP3    H253784   6.288   5.251   6.473 -1.1201  0.8448 -0.9825
10765TIP3   OH253785   5.364   5.145   1.453  0.3546 -0.1864 -0.3104
10765TIP3    H153786   5.431   5.152   1.386  0.4536  0.4347 -0.1473
10765TIP3    H253787   5.379   5.059   1.493  0.6698 -0.3017 -0.6721
10766TIP3   OH253788   6.741   3.175  12.750  0.0090 -0.0452 -0.8525
10766TIP3    H153789   6.795   3.237  12.700  2.2345 -0.7158  0.5758
10766TIP3    H253790   6.758   3.197  12.841 -1.9529 -0.5277 -0.3129
10767TIP3   OH253791   2.722   1.933   1.504 -0.5434 -0.1324  0.4630
10767TIP3    H153792   2.724   2.023   1.536 -1.1264  0.0701 -0.0475
10767TIP3    H253793   2.630   1.919   1.481 -0.1431 -0.2829 -1.0984
10768TIP3   OH253794   2.838   1.485  13.074  0.1174 -0.6190 -0.0367
10768TIP3    H153795   2.863   1.480  12.982 -1.2692 -0.9317 -0.4146
10768TIP3    H253796   2.794   1.569  13.082  1.1625 -0.1085  0.6074
10769TIP3   OH253797   3.165   4.877  14.520  0.1749 -0.6873  0.2389
10769TIP3    H153798   3.259   4.895  14.526  0.7148 -2.5940 -1.4819
10769TIP3    H253799   3.138   4.919  14.439 -0.0570 -1.6510 -0.1916
10770TIP3   OH253800   0.066   3.650  13.995  0.5192 -0.5582  0.0028
10770TIP3    H153801   0.029   3.723  13.947 -0.9631 -1.0179  0.3700
10770TIP3    H253802   0.030   3.572  13.953  0.1594 -0.9991  1.0712
10771TIP3   OH253803   4.735   5.858   1.938  0.2252  0.2048  0.1642
10771TIP3    H153804   4.704   5.778   1.980  1.9406  1.2275  3.8517
10771TIP3    H253805   4.657   5.910   1.924 -0.5120 -0.2373  2.2642
10772TIP3   OH253806   5.470   0.980   4.683 -0.0713  0.1466 -0.2324
10772TIP3    H153807   5.464   1.055   4.742 -0.6045 -0.4316  0.4766
10772TIP3    H253808   5.529   1.008   4.613 -1.4125  1.7788 -0.8020
10773TIP3   OH253809   3.768   5.918   0.304  0.0096 -0.1547  0.4681
10773TIP3    H153810   3.710   5.913   0.228  1.7853 -0.1824 -0.9540
10773TIP3    H253811   3.829   5.988   0.283  1.7358 -1.4433  0.9475
10774TIP3   OH253812   5.093   3.172   4.712 -0.3283  0.2192  0.2912
10774TIP3    H153813   5.103   3.174   4.807  0.5998 -0.0072  0.2143
10774TIP3    H253814   5.160   3.233   4.680 -0.0274 -0.3815 -0.2458
10775TIP3   OH253815   0.416   5.442  10.627 -0.0791 -0.2356 -0.4612
10775TIP3    H153816   0.335   5.492  10.619 -0.2074 -0.3179  0.3180
10775TIP3    H253817   0.391   5.361  10.672  0.2481 -0.7224 -1.1247
10776TIP3   OH253818   3.880   3.196  11.693  0.5636  0.0104 -0.1116
10776TIP3    H153819   3.896   3.205  11.599 -0.4306 -0.4813 -0.3409
10776TIP3    H253820   3.952   3.142  11.725  1.1428  0.5413 -0.5051
10777TIP3   OH253821   0.235   1.980   3.383 -0.4796 -0.0176  0.0375
10777TIP3    H153822   0.330   1.972   3.393 -0.6187 -1.0526  0.7931
10777TIP3    H253823   0.223   2.016   3.296  0.6190  0.5240  0.0921
10778TIP3   OH253824   4.268   2.838   6.902  0.5238 -0.1765  0.0230
10778TIP3    H153825   4.263   2.753   6.946 -0.3654  0.1877  0.6723
10778TIP3    H253826   4.191   2.840   6.845  0.8941 -0.0604 -0.4850
10779TIP3   OH253827   3.303   5.356   5.455 -0.4178  0.2478  0.4791
10779TIP3    H153828   3.315   5.417   5.527 -0.8052  1.2766 -0.3042
10779TIP3    H253829   3.241   5.291   5.488  0.3138  0.0311  1.4568
10780TIP3   OH253830   0.968   6.476   4.169  0.0843  0.2154  0.1834
10780TIP3    H153831   1.030   6.520   4.227  0.3328 -1.7768  1.5537
10780TIP3    H253832   0.986   6.383   4.182  0.0948 -0.3476 -3.1139
10781TIP3   OH253833   2.174   6.297  13.470  0.2698  0.6508  0.4873
10781TIP3    H153834   2.238   6.226  13.471  0.8519  1.1382 -0.7230
10781TIP3    H253835   2.147   6.306  13.561 -1.1991 -2.3360  0.4451
10782TIP3   OH253836   6.118   3.891  11.935 -0.3802  0.2042  0.1810
10782TIP3    H153837   6.054   3.863  11.869 -0.0978 -0.1867  0.0722
10782TIP3    H253838   6.179   3.946  11.886  0.4234 -0.9194 -0.1177
10783TIP3   OH253839   3.713   0.224  11.454  0.3502 -1.2205 -0.5499
10783TIP3    H153840   3.729   0.317  11.435  0.4672 -1.0814  0.1949
10783TIP3    H253841   3.688   0.186  11.370  1.3741 -0.7380 -1.0882
10784TIP3   OH253842   1.822   2.913  12.621  0.1167 -0.3812 -0.3515
10784TIP3    H153843   1.841   3.004  12.644 -0.8759  0.0874 -1.3144
10784TIP3    H253844   1.895   2.864  12.658  0.7198  0.8115  0.1050
10785TIP3   OH253845   5.294   1.413   0.417 -0.1399  0.4827  0.0449
10785TIP3    H153846   5.358   1.414   0.488  0.8531 -1.1128 -0.7731
10785TIP3    H253847   5.293   1.322   0.387 -2.0013  0.7000 -0.6942
10786TIP3   OH253848   1.708   0.326  15.853 -0.2711 -0.2718  0.0360
10786TIP3    H153849   1.669   0.242  15.878  0.8760 -1.3789 -1.6550
10786TIP3    H253850   1.798   0.304  15.829  1.3609  2.1014  3.2534
10787TIP3   OH253851   0.823   1.671  14.069  0.6873  0.1360  0.0284
10787TIP3    H153852   0.875   1.604  14.025  0.0543 -0.2249 -0.1832
10787TIP3    H253853   0.733   1.656  14.038  0.7863  2.2789 -1.5052
10788TIP3   OH253854   4.316   4.465  15.160  0.2142 -0.0152  0.0495
10788TIP3    H153855   4.353   4.391  15.208  1.6937  1.3001  1.0233
10788TIP3    H253856   4.231   4.480  15.201 -0.1471 -1.2103 -0.2246
10789TIP3   OH253857   0.801   5.901   3.729  0.3669  0.2097  0.2560
10789TIP3    H153858   0.772   5.854   3.808 -0.9010  1.3652  0.5142
10789TIP3    H253859   0.878   5.950   3.758  0.6754 -0.3602  0.4256
10790TIP3   OH253860   4.793   5.457   6.164  0.2697  0.5412 -0.4443
10790TIP3    H153861   4.760   5.377   6.205  1.5671 -0.0927 -0.6026
10790TIP3    H253862   4.765   5.527   6.223  0.7035 -0.2039  0.6789
10791TIP3   OH253863   3.514   0.435   6.724  0.1297  0.6331 -0.0014
10791TIP3    H153864   3.516   0.510   6.783 -0.2681  0.8377 -0.2424
10791TIP3    H253865   3.598   0.439   6.678  0.0917  0.9548 -0.0441
10792TIP3   OH253866   5.708   3.883   2.173  0.0537  0.0613 -0.3209
10792TIP3    H153867   5.707   3.843   2.085 -2.2590  1.1513 -0.8610
10792TIP3    H253868   5.665   3.967   2.162  1.8757  1.3170  1.4523
10793TIP3   OH253869   1.236   6.686   5.985 -0.0093 -0.3145  0.5271
10793TIP3    H153870   1.225   6.601   6.027 -0.6088  0.0978  1.2303
10793TIP3    H253871   1.155   6.700   5.937 -0.1790  0.1428  0.9389
10794TIP3   OH253872   4.752   1.112  14.967 -0.5062 -0.5939 -0.4246
10794TIP3    H153873   4.732   1.172  15.039  2.5454 -1.4436  1.3340
10794TIP3    H253874   4.741   1.025  15.004  3.2409 -1.0918 -0.0357
10795TIP3   OH253875   3.590   6.616  16.013  0.7087  0.3620  0.1217
10795TIP3    H153876   3.504   6.575  16.014  1.0890 -0.4565  0.4300
10795TIP3    H253877   3.636   6.574  15.940  0.6132  1.3087 -0.4979
10796TIP3   OH253878   5.755   1.168   6.212  0.0073 -0.2884  0.6353
10796TIP3    H153879   5.669   1.178   6.170 -0.1525 -0.8455  0.8251
10796TIP3    H253880   5.740   1.105   6.282  0.0978  1.1457  2.0119
10797TIP3   OH253881   0.823   5.134   2.917  0.0299  0.0917 -0.1594
10797TIP3    H153882   0.872   5.121   2.835 -0.6180 -1.8108 -0.2946
10797TIP3    H253883   0.782   5.219   2.906  1.5140  0.7518 -0.9769
10798TIP3   OH253884   5.458   4.752  16.319  0.7187  0.2030  0.5797
10798TIP3    H153885   5.491   4.842  16.317  0.1213  0.4245 -0.1625
10798TIP3    H253886   5.401   4.749  16.396  2.0248 -0.0290  1.5510
10799TIP3   OH253887   1.304   4.220  15.276  0.4106  0.5101 -0.0678
10799TIP3    H153888   1.284   4.214  15.370  0.4667 -2.5028 -0.1306
10799TIP3    H253889   1.398   4.200  15.271  0.0400 -1.1917 -0.8371
10800TIP3   OH253890   6.501   3.449   1.745  0.1523  0.2870  0.1916
10800TIP3    H153891   6.544   3.376   1.790 -0.0033  0.8093  1.2188
10800TIP3    H253892   6.435   3.480   1.808  0.6356  1.7010  0.0259
10801TIP3   OH253893   2.134   1.171   3.881  0.1243  0.0857 -0.4601
10801TIP3    H153894   2.075   1.098   3.860  0.9203 -0.1865 -1.8677
10801TIP3    H253895   2.183   1.187   3.800  0.9043  1.3201  0.2173
10802TIP3   OH253896   3.413   5.912  17.350 -0.8901  0.0588 -0.0149
10802TIP3    H153897   3.335   5.858  17.338 -0.5142 -0.6674  0.6756
10802TIP3    H253898   3.454   5.876  17.429 -0.2628  0.9220  0.0620
10803TIP3   OH253899   0.485   5.999   2.983 -0.1263 -0.5035  0.0855
10803TIP3    H153900   0.530   6.035   3.059  1.5487 -0.1863 -1.0046
10803TIP3    H253901   0.540   5.926   2.955 -1.4839 -1.5441  0.0021
10804TIP3   OH253902   4.475   5.306  15.847 -0.2882  0.2363 -0.4110
10804TIP3    H153903   4.468   5.386  15.898  0.8560  0.0861  0.0120
10804TIP3    H253904   4.556   5.317  15.796  0.2353 -0.9062  0.1315
10805TIP3   OH253905   6.587   3.263   2.236 -0.3109 -0.3059  0.2413
10805TIP3    H153906   6.649   3.231   2.171 -0.6562 -2.2192  0.7643
10805TIP3    H253907   6.642   3.302   2.304  0.1001  0.8940 -0.7485
10806TIP3   OH253908   0.656   0.216   6.282  0.4758 -0.2553 -0.6664
10806TIP3    H153909   0.597   0.152   6.321 -0.6467  1.0487 -0.1092
10806TIP3    H253910   0.743   0.179   6.292 -0.1492 -1.7493 -0.5284
10807TIP3   OH253911   3.339   2.778  16.069 -0.0037 -0.0104 -0.2108
10807TIP3    H153912   3.250   2.804  16.094 -0.3611 -0.1205 -1.2791
10807TIP3    H253913   3.393   2.855  16.089 -0.4969  0.3786 -0.3505
10808TIP3   OH253914   4.119   4.718   0.960  0.2509 -0.0605 -0.4955
10808TIP3    H153915   4.061   4.776   0.911 -0.0265  0.5512  0.5381
10808TIP3    H253916   4.083   4.630   0.947 -0.5640  0.2485 -0.3222
10809TIP3   OH253917   4.615   3.973   1.556  0.3231  0.3523 -0.0027
10809TIP3    H153918   4.548   4.022   1.509 -1.0273  0.4268  1.8754
10809TIP3    H253919   4.685   4.036   1.571  0.1951  0.6814 -0.7667
10810TIP3   OH253920   3.309   2.422   1.648 -0.1771 -0.0750 -0.4122
10810TIP3    H153921   3.262   2.381   1.574  2.0942 -0.9968 -1.4259
10810TIP3    H253922   3.341   2.348   1.700 -2.0357  0.5632  1.7879
10811TIP3   OH253923   6.058   4.337   0.637  0.2367 -0.8253 -0.3483
10811TIP3    H153924   6.153   4.333   0.629  0.1498 -2.0102 -0.9662
10811TIP3    H253925   6.036   4.265   0.695 -0.3386 -0.9551 -0.7243
10812TIP3   OH253926   6.266   6.251   0.528 -0.5485  0.1451 -0.2293
10812TIP3    H153927   6.250   6.162   0.559  0.9870 -0.6660 -1.6090
10812TIP3    H253928   6.347   6.244   0.477 -1.3379  1.9699 -1.8448
10813TIP3   OH253929   0.496   1.517  11.698 -0.1689 -0.1399  0.8978
10813TIP3    H153930   0.432   1.552  11.635  0.7988 -0.6201 -0.4023
10813TIP3    H253931   0.510   1.589  11.760 -2.6010 -0.3212  1.7594
10814TIP3   OH253932   4.092   5.505  17.332  0.7426 -0.4499  0.4848
10814TIP3    H153933   4.105   5.421  17.375 -0.0534 -0.1882  1.2504
10814TIP3    H253934   4.023   5.548  17.382  2.4871  1.5095  1.3493
10815TIP3   OH253935   2.367   5.730  11.953 -0.7829 -0.4685 -0.4131
10815TIP3    H153936   2.390   5.820  11.979 -0.6420 -0.4810 -0.4887
10815TIP3    H253937   2.423   5.675  12.008 -1.0393 -0.5160 -0.2015
10816TIP3   OH253938   2.437   0.320   5.374  0.6608  0.2875 -0.2562
10816TIP3    H153939   2.459   0.401   5.329  0.8185  0.6571  0.4767
10816TIP3    H253940   2.389   0.269   5.309  2.0322  0.2451 -1.2726
10817TIP3   OH253941   1.488   0.317  14.821  0.3150  0.1323  0.3337
10817TIP3    H153942   1.489   0.382  14.751 -0.8507 -1.9358 -1.7256
10817TIP3    H253943   1.431   0.355  14.888  0.7269  1.7657 -0.1924
10818TIP3   OH253944   1.546   5.182  16.823  0.2180 -0.1859 -0.1694
10818TIP3    H153945   1.526   5.274  16.808  0.9409  0.2818  1.5165
10818TIP3    H253946   1.472   5.150  16.875  1.3262  0.2618  1.7977
10819TIP3   OH253947   5.644   2.563   1.501 -0.6147 -0.3163  0.2558
10819TIP3    H153948   5.712   2.624   1.529  0.6320 -1.9483  0.9089
10819TIP3    H253949   5.688   2.479   1.492 -1.7583 -0.7404 -2.8478
10820TIP3   OH253950   4.697   2.066  12.506 -0.2964  0.6344 -0.1041
10820TIP3    H153951   4.684   2.161  12.505 -0.5728  0.7117  2.6689
10820TIP3    H253952   4.789   2.054  12.530 -0.3081  0.2063 -0.2671
10821TIP3   OH253953   3.779   5.620   1.411  0.5664 -0.0234 -0.4090
10821TIP3    H153954   3.862   5.649   1.373  0.3271  1.2256 -0.0109
10821TIP3    H253955   3.782   5.525   1.404  2.0329  0.0011 -0.3891
10822TIP3   OH253956   6.676   1.877   5.965 -0.0131 -0.5305 -0.3811
10822TIP3    H153957   6.634   1.927   5.894 -0.8519  1.4036  1.3755
10822TIP3    H253958   6.607   1.867   6.031  1.8328  1.8342  2.1553
10823TIP3   OH253959   5.172   5.512   1.869  0.3530 -0.8255  0.3945
10823TIP3    H153960   5.115   5.505   1.792  1.3019 -1.5074 -0.2751
10823TIP3    H253961   5.195   5.605   1.874  0.1439 -0.7497 -0.0299
10824TIP3   OH253962   6.172   0.800   2.484 -0.1945 -0.1225  0.2638
10824TIP3    H153963   6.223   0.736   2.533  1.9877  1.3370  0.0581
10824TIP3    H253964   6.189   0.780   2.392 -1.5163 -0.7393  0.1301
10825TIP3   OH253965   4.774   0.478   2.259 -0.3717 -0.1278  0.3316
10825TIP3    H153966   4.833   0.413   2.219 -0.3728  0.1043 -0.0537
10825TIP3    H253967   4.688   0.456   2.223 -0.8588 -1.5717  2.2323
10826TIP3   OH253968   2.035   4.497   1.262 -0.8928  0.9572  0.3344
10826TIP3    H153969   2.062   4.587   1.278  2.6725  0.1953 -0.6072
10826TIP3    H253970   2.096   4.444   1.313 -0.7408 -0.9909 -1.7300
10827TIP3   OH253971   2.779   5.367   0.650  0.0148 -0.4985 -0.5889
10827TIP3    H153972   2.791   5.272   0.650 -0.3377 -0.5454 -0.3107
10827TIP3    H253973   2.825   5.397   0.572 -0.6464 -0.9976 -1.1866
10828TIP3   OH253974   2.097   1.334  11.814  0.3393 -0.2577  0.0910
10828TIP3    H153975   2.105   1.365  11.724 -0.3279 -0.0504  0.0928
10828TIP3    H253976   2.018   1.280  11.814  0.6750 -0.7611  0.4192
10829TIP3   OH253977   4.796   3.259   0.691  0.1860 -0.6004 -0.7090
10829TIP3    H153978   4.784   3.191   0.757  1.7351 -2.3469 -2.1160
10829TIP3    H253979   4.707   3.282   0.664 -0.4213 -0.9056  0.9034
10830TIP3   OH253980   5.590   2.126   2.929  0.7290 -0.2652  0.5656
10830TIP3    H153981   5.684   2.126   2.948  0.6774  0.0968  0.8214
10830TIP3    H253982   5.557   2.046   2.969  1.0684 -0.8201 -0.2303
10831TIP3   OH253983   5.257   4.948  14.938  0.5837 -0.3447  0.5619
10831TIP3    H153984   5.285   4.929  14.848  2.1491 -0.3397  1.0251
10831TIP3    H253985   5.254   4.862  14.981  0.4723 -0.2831  0.6766
10832TIP3   OH253986   2.101   5.232   2.946  0.2986 -0.1297 -0.4945
10832TIP3    H153987   2.023   5.182   2.971  0.8470 -0.7383  0.0528
10832TIP3    H253988   2.109   5.299   3.014  0.2995 -0.1364 -0.4878
10833TIP3   OH253989   2.388   3.345  14.195 -0.0362 -0.1307 -0.3210
10833TIP3    H153990   2.337   3.425  14.209  1.8977  0.9326  1.3796
10833TIP3    H253991   2.324   3.275  14.194 -1.6245  1.2296  0.5185
10834TIP3   OH253992   3.441   3.688  14.352 -0.3201 -0.1516  0.2568
10834TIP3    H153993   3.368   3.636  14.387 -1.5024  0.3852 -1.3245
10834TIP3    H253994   3.482   3.631  14.287 -0.9215  0.4359 -0.6657
10835TIP3   OH253995   4.695   2.912   1.743  0.2039 -0.1358  0.4005
10835TIP3    H153996   4.749   2.839   1.712 -2.1099 -1.7486 -0.1494
10835TIP3    H253997   4.751   2.989   1.734  2.3415 -1.6628 -0.1951
10836TIP3   OH253998   4.134   2.681  16.215 -0.8597 -0.5867  0.5390
10836TIP3    H153999   4.056   2.688  16.271 -2.0096  0.5478 -1.1203
10836TIP3    H254000   4.100   2.688  16.126  0.8712 -2.6797 -0.3783
10837TIP3   OH254001   5.676   6.054  11.349  0.1158 -0.2631 -0.5122
10837TIP3    H154002   5.725   6.064  11.268  2.1645  0.7285  0.7518
10837TIP3    H254003   5.703   5.969  11.384  1.3652  0.4645  0.3923
10838TIP3   OH254004   4.170   4.162  11.847 -0.1145 -0.2832 -0.3903
10838TIP3    H154005   4.169   4.084  11.901 -0.1739  0.6684  1.0341
10838TIP3    H254006   4.183   4.130  11.758 -2.8047 -2.0822 -0.2120
10839TIP3   OH254007   3.483   1.133  10.139  0.0838 -0.0550  0.1394
10839TIP3    H154008   3.476   1.044  10.174 -0.7605 -1.2336 -2.6983
10839TIP3    H254009   3.577   1.151  10.138  0.1821 -0.2355  2.1812
10840TIP3   OH254010   2.523   6.748   2.040 -0.4996  0.6328  0.6542
10840TIP3    H154011   2.611   6.784   2.028 -0.2404 -0.0783  0.3860
10840TIP3    H254012   2.526   6.706   2.126  0.2409 -1.6413 -0.3986
10841TIP3   OH254013   2.499   1.230   1.684  0.3424  0.2971 -0.5061
10841TIP3    H154014   2.490   1.221   1.590  0.5695 -0.9568 -0.4156
10841TIP3    H254015   2.500   1.141   1.718 -0.0121  0.7291  0.7140
10842TIP3   OH254016   3.510   1.209   5.577  0.0027  0.2721  0.0922
10842TIP3    H154017   3.532   1.162   5.497  0.7820 -0.1153  0.5280
10842TIP3    H254018   3.521   1.302   5.554 -0.9155  0.2268 -0.5762
10843TIP3   OH254019   1.972   0.896   2.489 -0.4849  0.0272  0.3009
10843TIP3    H154020   1.993   0.808   2.458  2.0104 -0.4790  3.0073
10843TIP3    H254021   1.987   0.952   2.413  1.3874 -1.5030 -0.5309
10844TIP3   OH254022   6.365   0.585  15.849  0.0573 -0.3230  0.0900
10844TIP3    H154023   6.329   0.511  15.801 -1.3005  1.3884 -1.6754
10844TIP3    H254024   6.427   0.625  15.789 -1.0379  1.3688  0.0290
10845TIP3   OH254025   5.326   1.387   2.896 -0.1031  0.3406  0.5834
10845TIP3    H154026   5.371   1.367   2.814  0.2893  0.9341  0.6514
10845TIP3    H254027   5.242   1.425   2.870  0.8970  2.5710  0.4169
10846TIP3   OH254028   2.830   3.416   2.699  0.3150 -0.2332  0.1077
10846TIP3    H154029   2.860   3.504   2.676  1.1405 -0.1902  1.2685
10846TIP3    H254030   2.799   3.424   2.789  0.7035 -1.2041  0.3370
10847TIP3   OH254031   5.029   6.331   1.283  0.5405  0.5211 -0.2539
10847TIP3    H154032   4.961   6.330   1.349  0.5750 -1.6263 -0.1725
10847TIP3    H254033   5.020   6.416   1.239 -1.5043  0.6914  0.4184
10848TIP3   OH254034   3.024   5.019  13.146  0.3939 -0.0957  0.3512
10848TIP3    H154035   2.968   4.943  13.166  1.1536 -1.2821 -1.7583
10848TIP3    H254036   2.978   5.093  13.186 -2.2445 -1.1348 -0.5270
10849TIP3   OH254037   4.952   3.300   2.355  0.3447  0.3304 -0.1774
10849TIP3    H154038   4.997   3.385   2.350  0.7372  0.1852  0.8244
10849TIP3    H254039   4.997   3.253   2.424  0.9392 -1.1855 -1.5229
10850TIP3   OH254040   0.795   2.853  15.530  0.4851  0.6415 -0.1384
10850TIP3    H154041   0.825   2.802  15.606  1.8207  1.8003  0.1661
10850TIP3    H254042   0.781   2.788  15.462  0.5203 -0.2989  0.7195
10851TIP3   OH254043   1.802   5.823  11.804  0.0454  0.2424  0.1968
10851TIP3    H154044   1.784   5.774  11.884 -1.6211 -0.3166 -0.5007
10851TIP3    H254045   1.751   5.780  11.736  1.3135  0.8010 -1.1703
10852TIP3   OH254046   4.379   2.853  16.773  0.1359 -0.3036  0.1332
10852TIP3    H154047   4.417   2.914  16.837 -0.4101  0.6040 -0.3819
10852TIP3    H254048   4.426   2.771  16.787  0.4293  0.0500  1.2960
10853TIP3   OH254049   5.875   1.597   1.879  0.1615 -0.7161  0.2576
10853TIP3    H154050   5.914   1.599   1.967  2.8634 -1.6983 -0.8277
10853TIP3    H254051   5.889   1.507   1.849  0.3768 -0.0887 -1.6188
10854TIP3   OH254052   4.000   3.382   3.843  1.1064 -0.4968 -0.3638
10854TIP3    H154053   3.982   3.410   3.933 -1.0961  0.9129 -1.1908
10854TIP3    H254054   3.967   3.292   3.839  1.8122 -0.8056  0.3810
10855TIP3   OH254055   6.172   0.664  12.930 -0.6367  0.0343  0.0732
10855TIP3    H154056   6.115   0.660  12.854  0.0049 -0.2249 -0.4019
10855TIP3    H254057   6.261   0.655  12.895 -0.3744 -0.9421  0.9100
10856TIP3   OH254058   3.194   3.763   2.729  0.3281  0.2916  0.0774
10856TIP3    H154059   3.280   3.734   2.698  0.1189 -0.2805  0.0058
10856TIP3    H254060   3.188   3.727   2.818  0.7904  1.6415  0.6872
10857TIP3   OH254061   5.531   5.440  11.428  0.0455  0.2702 -0.5783
10857TIP3    H154062   5.546   5.522  11.381  1.4519  0.9439  0.9492
10857TIP3    H254063   5.593   5.378  11.390  1.3430  0.8787  0.4969
10858TIP3   OH254064   0.832   2.236  12.337  0.6889 -0.1614 -0.6831
10858TIP3    H154065   0.876   2.307  12.290  0.9837  1.1400  1.4650
10858TIP3    H254066   0.745   2.231  12.296  0.8260  1.1103 -1.1629
10859TIP3   OH254067   5.413   6.375   2.588 -0.3173  0.0830 -0.1545
10859TIP3    H154068   5.349   6.430   2.632 -1.3849 -2.5033  1.7727
10859TIP3    H254069   5.497   6.419   2.602 -1.0646  1.0175  1.6589
10860TIP3   OH254070   2.403   4.828   2.534 -0.1704 -0.5853  0.0964
10860TIP3    H154071   2.313   4.795   2.531 -0.0739 -0.8300 -0.2275
10860TIP3    H254072   2.398   4.915   2.496 -0.2984 -0.5361  0.2260
10861TIP3   OH254073   2.339   3.287   1.647 -0.1868 -0.3076  0.0819
10861TIP3    H154074   2.255   3.252   1.677 -0.7397  0.7888 -0.1134
10861TIP3    H254075   2.395   3.210   1.636 -0.5030 -0.9186  2.2012
10862TIP3   OH254076   4.861   4.345  12.393 -0.6016  0.2644 -0.1194
10862TIP3    H154077   4.933   4.291  12.427 -1.2011 -0.7002 -0.3537
10862TIP3    H254078   4.901   4.431  12.378  0.1340  0.1929  1.2347
10863TIP3   OH254079   6.265   2.619   3.927  0.0481 -0.3186  0.0922
10863TIP3    H154080   6.215   2.663   3.995  1.2997 -0.4542  1.1455
10863TIP3    H254081   6.207   2.618   3.851 -1.3257 -0.0042  1.0939
10864TIP3   OH254082   3.722   6.660   5.479 -0.0747 -0.1507  0.4561
10864TIP3    H154083   3.797   6.634   5.425 -1.4024  0.6568 -1.9472
10864TIP3    H254084   3.734   6.612   5.561  2.1199 -1.4085 -0.4969
10865TIP3   OH254085   2.723   5.145   2.750  0.3147  0.1399 -0.0234
10865TIP3    H154086   2.688   5.068   2.794 -0.2627 -0.5219 -1.5840
10865TIP3    H254087   2.667   5.217   2.778 -1.6002 -0.6804 -1.4727
10866TIP3   OH254088   4.595   2.634   3.836 -0.1343  0.5341  0.4856
10866TIP3    H154089   4.608   2.645   3.930 -0.2568  1.3016  0.4157
10866TIP3    H254090   4.517   2.579   3.829  1.0772 -1.3659  0.8532
10867TIP3   OH254091   6.406   2.355  13.187 -0.2915 -0.4468  0.2818
10867TIP3    H154092   6.314   2.346  13.161 -0.1129 -1.3404 -0.0578
10867TIP3    H254093   6.402   2.384  13.278 -0.9120 -1.0347  0.4469
10868TIP3   OH254094   4.820   6.033   3.962  0.0750  0.1812 -0.2163
10868TIP3    H154095   4.878   6.063   3.892 -0.2228  1.7890  0.1758
10868TIP3    H254096   4.747   6.096   3.962  1.0035  1.4797  2.7495
10869TIP3   OH254097   6.529   1.276  13.396 -0.3033 -0.1765  0.9938
10869TIP3    H154098   6.550   1.226  13.475  0.2269 -0.2229  0.8310
10869TIP3    H254099   6.562   1.222  13.325 -1.8085 -0.6746  0.6484
10870TIP3   OH254100   0.970   6.537   1.168  0.2727 -0.2980  0.0102
10870TIP3    H154101   0.965   6.537   1.072 -0.0536 -1.4308  0.0201
10870TIP3    H254102   1.064   6.543   1.187  0.3884 -0.7528 -0.3907
10871TIP3   OH254103   1.484   4.068  16.536  0.4263 -0.6019 -0.9794
10871TIP3    H154104   1.430   4.018  16.597  1.0785 -1.3128 -0.9690
10871TIP3    H254105   1.467   4.030  16.450  0.2026 -0.2053 -1.1150
10872TIP3   OH254106   6.338   6.196   1.542  0.0316 -0.2643 -0.2291
10872TIP3    H154107   6.381   6.188   1.457  0.2219 -0.7705 -0.0903
10872TIP3    H254108   6.353   6.111   1.585  0.7659  0.3175  0.7001
10873TIP3   OH254109   4.458   2.455  13.907 -0.1369 -0.5730  0.4730
10873TIP3    H154110   4.364   2.472  13.896  0.1953  1.9838  0.7774
10873TIP3    H254111   4.471   2.457  14.002  0.1800 -1.2668  0.4465
10874TIP3   OH254112   4.219   0.211   1.251  0.6385 -0.5961 -0.2667
10874TIP3    H154113   4.232   0.138   1.312  0.2106 -1.5941 -1.3223
10874TIP3    H254114   4.303   0.219   1.206  1.1034  0.4427  0.7286
10875TIP3   OH254115   2.826   2.008  17.208 -0.3287 -0.2393  0.3052
10875TIP3    H154116   2.910   1.965  17.219  0.2558  0.2377 -1.8442
10875TIP3    H254117   2.833   2.088  17.260  0.1344 -0.7198  0.9954
10876TIP3   OH254118   1.012   4.980   2.445  0.1638 -0.5317  0.1125
10876TIP3    H154119   1.031   5.074   2.444 -0.2641 -0.4406  0.1836
10876TIP3    H254120   0.953   4.968   2.370 -0.3322 -0.6221  0.5162
10877TIP3   OH254121   0.966   4.292   1.607  0.3530  0.0410  0.1162
10877TIP3    H154122   0.927   4.254   1.529  1.4234  0.7547 -0.7990
10877TIP3    H254123   0.953   4.386   1.598 -1.0518  0.0394  1.6811
10878TIP3   OH254124   4.347   2.851  16.286 -0.4032  0.2393  0.3008
10878TIP3    H154125   4.272   2.791  16.277  0.3885 -0.7332  0.0709
10878TIP3    H254126   4.341   2.908  16.209  1.4857 -2.5814 -2.1207
10879TIP3   OH254127   4.959   5.751  12.180 -0.0855  0.1646  0.9767
10879TIP3    H154128   4.962   5.739  12.085 -0.3533  0.1933  0.9645
10879TIP3    H254129   5.049   5.772  12.204 -0.3336  2.0491  0.4586
10880TIP3   OH254130   3.991   5.279  16.995  0.5831 -0.2978 -0.0865
10880TIP3    H154131   3.992   5.230  16.913  0.0822  0.3217 -0.4654
10880TIP3    H254132   3.906   5.322  16.997  0.8923  0.3136  0.3872
10881TIP3   OH254133   5.458   5.062   5.943 -0.1541  0.4782  0.5884
10881TIP3    H154134   5.374   5.104   5.963 -0.8257 -0.8471  0.6404
10881TIP3    H254135   5.451   4.975   5.982  0.7358 -0.1220 -0.5418
10882TIP3   OH254136   0.337   3.234   5.438  0.0266  0.0965 -0.2550
10882TIP3    H154137   0.347   3.270   5.526  0.9418  0.6901 -0.5794
10882TIP3    H254138   0.397   3.286   5.384  1.7501 -2.1600 -0.6711
10883TIP3   OH254139   4.106   1.887   5.100  0.6556 -0.5063 -0.3869
10883TIP3    H154140   4.067   1.807   5.135  0.2813  0.1249  0.6950
10883TIP3    H254141   4.179   1.857   5.046  3.2708 -1.5293  3.3098
10884TIP3   OH254142   0.482   4.972  12.162  0.0782  1.0330  0.0494
10884TIP3    H154143   0.428   4.900  12.195  0.0648  1.0192 -0.0040
10884TIP3    H254144   0.430   5.011  12.092  1.0619 -0.3799 -1.5363
10885TIP3   OH254145   2.984   3.803   5.213  0.4648 -0.2814 -0.4848
10885TIP3    H154146   3.078   3.821   5.219  0.6475 -0.9278 -1.2879
10885TIP3    H254147   2.945   3.857   5.282  1.2948  0.9178 -0.9361
10886TIP3   OH254148   1.407   4.135   5.672  0.3820 -0.2598 -0.1008
10886TIP3    H154149   1.449   4.049   5.680  0.9503  0.1481  1.6985
10886TIP3    H254150   1.315   4.119   5.694  0.2189 -0.6089 -0.9963
10887TIP3   OH254151   2.714   1.594   1.935 -0.4970  0.3520  0.6622
10887TIP3    H154152   2.786   1.577   1.995 -0.1054 -0.8252 -0.1178
10887TIP3    H254153   2.658   1.516   1.941 -2.3532  1.6846  2.0979
10888TIP3   OH254154   1.385   3.146  12.052 -0.3974  0.0851 -0.1590
10888TIP3    H154155   1.462   3.187  12.091 -0.6533 -0.4773  0.9914
10888TIP3    H254156   1.331   3.219  12.023 -1.4735  0.7521  3.0367
10889TIP3   OH254157   4.152   3.515  17.360  0.0414 -0.0408  0.1299
10889TIP3    H154158   4.088   3.584  17.350 -0.7374 -0.9053 -1.1329
10889TIP3    H254159   4.219   3.534  17.294 -0.2931 -0.5844 -0.3827
10890TIP3   OH254160   6.690   2.428  12.802  0.0450  0.3890  0.1519
10890TIP3    H154161   6.734   2.495  12.749 -0.7892  0.2048 -0.7939
10890TIP3    H254162   6.680   2.353  12.744  1.2870 -0.7267  1.3031
10891TIP3   OH254163   0.415   5.968  16.750 -0.1278 -1.1723  0.5365
10891TIP3    H154164   0.355   5.917  16.695 -0.5520 -0.6968  0.5521
10891TIP3    H254165   0.372   5.973  16.835  0.2634 -1.4246  0.7512
10892TIP3   OH254166   6.130   1.647  15.555 -0.3839  0.1060 -0.0461
10892TIP3    H154167   6.044   1.676  15.586 -0.1377 -0.9681  1.7895
10892TIP3    H254168   6.110   1.578  15.492 -0.8627 -0.1049  0.3287
10893TIP3   OH254169   4.373   0.968   0.262  0.3353 -0.4392  0.0183
10893TIP3    H154170   4.301   1.018   0.300  1.0186 -0.2466  1.0800
10893TIP3    H254171   4.331   0.917   0.192 -0.7468  0.0096  0.3092
10894TIP3   OH254172   2.948   5.413   2.385 -0.1375  0.9125  0.1063
10894TIP3    H154173   2.939   5.390   2.477  1.4699  1.1247  0.3342
10894TIP3    H254174   2.970   5.330   2.342  0.5826  1.0721  0.1530
10895TIP3   OH254175   4.300   2.740   0.850 -0.2966 -0.4344  0.5507
10895TIP3    H154176   4.306   2.668   0.913 -0.3448  0.8151  2.0388
10895TIP3    H254177   4.207   2.743   0.827 -0.6683  0.4009  2.0507
10896TIP3   OH254178   4.889   1.572  10.754  0.6107  0.0574  0.3628
10896TIP3    H154179   4.975   1.601  10.725  0.6314 -0.2414  0.1174
10896TIP3    H254180   4.868   1.498  10.697  1.2861 -1.4955  2.0172
10897TIP3   OH254181   4.882   3.550  13.779  0.2491  0.0296 -0.0099
10897TIP3    H154182   4.948   3.528  13.713 -0.2543 -2.2674  0.1656
10897TIP3    H254183   4.916   3.629  13.822  3.0702 -1.2346  0.2983
10898TIP3   OH254184   6.353   2.185   0.082 -0.2767  0.3024 -0.2719
10898TIP3    H154185   6.317   2.272   0.095 -2.2308 -0.1045 -2.3013
10898TIP3    H254186   6.281   2.134   0.045  0.5548 -2.4371  1.5987
10899TIP3   OH254187   6.039   0.276   0.262  0.5956  0.1557  0.4637
10899TIP3    H154188   6.033   0.355   0.209  0.8887  0.3827  0.7644
10899TIP3    H254189   5.949   0.244   0.268  0.5612  0.1344 -0.1562
10900TIP3   OH254190   2.497   2.057  15.309  0.0234 -0.3595 -0.2122
10900TIP3    H154191   2.507   1.969  15.273  0.8161 -1.2686  2.0399
10900TIP3    H254192   2.426   2.096  15.258 -0.9669 -2.6183 -0.6907
10901TIP3   OH254193   3.493   6.298  15.562 -0.2520 -0.5233 -0.3404
10901TIP3    H154194   3.504   6.388  15.533  1.0533  0.5799  3.1075
10901TIP3    H254195   3.580   6.259  15.551 -0.2264 -0.6512  0.2800
10902TIP3   OH254196   4.886   4.622  15.827 -0.4896  0.2339  0.5116
10902TIP3    H154197   4.971   4.661  15.847  1.1889 -1.9353 -1.7429
10902TIP3    H254198   4.844   4.684  15.768 -0.2502  1.0480  1.1733
10903TIP3   OH254199   1.568   5.510   5.728 -0.5925 -0.0242  0.1080
10903TIP3    H154200   1.567   5.501   5.823 -1.6665  0.9353  0.2022
10903TIP3    H254201   1.641   5.568   5.710 -1.2712  0.9674  0.4793
10904TIP3   OH254202   4.320   2.820  12.619 -0.1179 -0.2482  0.4661
10904TIP3    H154203   4.399   2.766  12.613 -0.4845 -0.7949  0.3844
10904TIP3    H254204   4.345   2.894  12.673  0.8275  0.2772 -0.6424
10905TIP3   OH254205   5.735   2.644  14.495 -0.1094 -0.0471  0.0238
10905TIP3    H154206   5.728   2.646  14.400 -0.2271  0.2734  0.0364
10905TIP3    H254207   5.691   2.564  14.521 -0.1703 -0.0811 -0.1849
10906TIP3   OH254208   0.234   1.151  10.967  0.5279  0.1714 -0.4459
10906TIP3    H154209   0.230   1.069  10.917  1.2609 -0.6642  0.8070
10906TIP3    H254210   0.312   1.142  11.021  0.6532  1.7417 -0.3239
10907TIP3   OH254211   4.824   1.983  15.196 -0.1180  0.3324 -0.2705
10907TIP3    H154212   4.832   2.061  15.141  0.7892  0.1234 -0.4461
10907TIP3    H254213   4.914   1.956  15.213 -0.4196 -1.3261 -1.1206
10908TIP3   OH254214   3.213   5.800  12.405 -0.1707  0.0704 -0.3422
10908TIP3    H154215   3.260   5.724  12.371 -1.6319 -0.6793 -0.7296
10908TIP3    H254216   3.235   5.802  12.498 -0.6317 -1.2172 -0.1906
10909TIP3   OH254217   0.464   1.163  10.564  0.3760 -0.6719 -0.3998
10909TIP3    H154218   0.501   1.236  10.513  0.7912 -1.3986 -1.1608
10909TIP3    H254219   0.378   1.195  10.593  0.5558  0.1216 -0.7197
10910TIP3   OH254220   2.800   1.014   2.068  0.1714  0.4063 -0.4153
10910TIP3    H154221   2.892   0.990   2.054 -0.1992 -0.9741 -0.5765
10910TIP3    H254222   2.786   1.001   2.162  0.6685  2.6307  0.0295
10911TIP3   OH254223   1.552   1.081   1.083  0.4245  0.5840 -0.0553
10911TIP3    H154224   1.568   1.010   1.021 -0.0857 -0.7813  1.2946
10911TIP3    H254225   1.629   1.082   1.139  0.3219  0.9432  0.0839
10912TIP3   OH254226   4.070   2.706   3.502  0.0026 -0.0367 -0.0479
10912TIP3    H154227   4.097   2.677   3.589  0.2485  0.7398  0.1437
10912TIP3    H254228   4.085   2.801   3.502 -1.5932  0.2593 -0.3364
10913TIP3   OH254229   4.221   3.185  16.937 -0.2044 -0.1024  0.2017
10913TIP3    H154230   4.169   3.227  16.869  0.8357 -2.4803 -2.2537
10913TIP3    H254231   4.158   3.130  16.985 -0.6433  0.2301  0.0113
10914TIP3   OH254232   5.469   0.706  11.827 -0.4674 -0.2906  0.0962
10914TIP3    H154233   5.452   0.618  11.862 -1.8557  0.7162  2.1201
10914TIP3    H254234   5.483   0.760  11.905 -2.1706  1.7882 -0.9455
10915TIP3   OH254235   1.727   1.393  11.486 -0.4978  0.2901  0.1829
10915TIP3    H154236   1.644   1.350  11.509 -1.9601  2.2772 -0.9792
10915TIP3    H254237   1.709   1.433  11.400  1.5640  1.0789  0.0683
10916TIP3   OH254238   1.912   4.316  16.229 -0.4933  0.3312 -0.4391
10916TIP3    H154239   1.885   4.358  16.311  0.4411  1.3716 -0.6322
10916TIP3    H254240   1.888   4.380  16.161  0.7776  0.4815 -0.7639
10917TIP3   OH254241   2.503   0.794  14.363  0.1757 -0.4408  0.0172
10917TIP3    H154242   2.440   0.812  14.294 -1.0295  0.3162  1.2440
10917TIP3    H254243   2.555   0.874  14.369  0.8470 -0.8283 -0.5749
10918TIP3   OH254244   1.668   1.881   0.953 -0.4495  0.0219  0.1117
10918TIP3    H154245   1.704   1.891   1.041 -0.7238  0.1418  0.2099
10918TIP3    H254246   1.635   1.791   0.950  0.1921 -0.2135 -0.1033
10919TIP3   OH254247   6.173   1.389   0.559 -0.0274 -0.0554 -0.2429
10919TIP3    H154248   6.168   1.474   0.603  0.4655  0.4258 -1.0805
10919TIP3    H254249   6.109   1.335   0.604 -0.8740  0.9759 -0.1633
10920TIP3   OH254250   3.379   2.063  15.970 -0.0598 -0.3368 -0.0192
10920TIP3    H154251   3.429   2.026  16.043 -0.1906 -0.5752 -0.0494
10920TIP3    H254252   3.331   2.136  16.008 -1.5626 -1.5658  0.5742
10921TIP3   OH254253   3.155   4.243  15.074  0.3546 -0.2329  0.9280
10921TIP3    H154254   3.176   4.333  15.097  0.5478 -0.4021  1.4164
10921TIP3    H254255   3.229   4.192  15.106  1.0806 -0.3837 -0.8590
10922TIP3   OH254256   0.873   3.588   6.056  0.0086  0.2846 -0.1626
10922TIP3    H154257   0.924   3.528   6.109 -0.2565  0.3235  0.1405
10922TIP3    H254258   0.868   3.547   5.970 -2.2280 -1.3557  0.6569
10923TIP3   OH254259   3.811   3.849  16.562 -0.2349  0.0220  0.7640
10923TIP3    H154260   3.730   3.804  16.584 -0.3741 -0.5831 -0.8380
10923TIP3    H254261   3.784   3.935  16.531 -0.3951 -0.5155 -0.6917
10924TIP3   OH254262   3.186   6.159   2.307 -0.8624 -0.0817 -0.0802
10924TIP3    H154263   3.162   6.244   2.272 -2.1312 -0.3174  0.1371
10924TIP3    H254264   3.170   6.166   2.402  0.4462 -0.1133  0.1577
10925TIP3   OH254265   0.653   6.072  12.869  0.0315 -0.1001 -0.0479
10925TIP3    H154266   0.574   6.072  12.815 -0.5618  1.5925  0.7547
10925TIP3    H254267   0.707   6.001  12.832 -1.4774 -0.7460 -1.1379
10926TIP3   OH254268   5.140   3.158  14.122 -0.6658 -0.4056 -0.1915
10926TIP3    H154269   5.173   3.102  14.051 -3.1270 -1.6633 -0.4336
10926TIP3    H254270   5.166   3.247  14.096  0.9325 -1.1084 -1.1925
10927TIP3   OH254271   5.231   1.554  17.202 -0.2445 -0.0338  0.6593
10927TIP3    H154272   5.293   1.486  17.175 -1.0617 -1.3397  1.9039
10927TIP3    H254273   5.285   1.629  17.225  0.7886 -0.7136  0.4900
10928TIP3   OH254274   5.839   6.513   6.574  0.0413  0.3884  0.8157
10928TIP3    H154275   5.917   6.492   6.626 -0.4532 -1.6152  0.8079
10928TIP3    H254276   5.862   6.485   6.485 -0.1700  1.1436  0.5212
10929TIP3   OH254277   3.901   0.106   0.553 -0.1016 -0.5127 -0.2651
10929TIP3    H154278   3.923   0.040   0.487  0.2281 -0.5268 -0.1487
10929TIP3    H254279   3.986   0.139   0.582 -0.2673 -0.0451 -0.3088
10930TIP3   OH254280   4.729   0.458  17.022 -0.2447  0.0645  0.3035
10930TIP3    H154281   4.800   0.416  16.973 -0.3663 -0.5697  0.6520
10930TIP3    H254282   4.714   0.541  16.977  0.5939  0.1299  0.1178
10931TIP3   OH254283   6.134   1.882  12.516  0.0413 -0.3113 -0.6996
10931TIP3    H154284   6.129   1.926  12.600 -0.1593 -1.0497 -0.3160
10931TIP3    H254285   6.106   1.948  12.452  0.0919  0.2155 -0.1805
10932TIP3   OH254286   5.538   3.001   3.093 -0.1634 -0.2123 -0.3046
10932TIP3    H154287   5.486   2.932   3.133 -0.4565  0.0438 -0.2337
10932TIP3    H254288   5.479   3.077   3.091  0.4934  0.3321  0.5625
10933TIP3   OH254289   1.386   4.047   0.647 -0.1556 -0.5095  0.2766
10933TIP3    H154290   1.365   4.117   0.586  0.0667  2.0673  2.9238
10933TIP3    H254291   1.301   4.011   0.673 -0.3461 -0.5067 -0.3360
10934TIP3   OH254292   5.887   3.315   2.338  0.1248 -0.4565  0.0918
10934TIP3    H154293   5.918   3.339   2.425 -1.0590 -0.1107  0.4416
10934TIP3    H254294   5.879   3.220   2.341  1.6872 -0.6250 -0.2142
10935TIP3   OH254295   5.714   6.119   3.159 -0.1462 -0.1823  0.1762
10935TIP3    H154296   5.801   6.078   3.165  1.0927  2.1457 -0.5007
10935TIP3    H254297   5.723   6.201   3.208 -2.2981 -0.3104  0.9053
10936TIP3   OH254298   2.107   5.831   2.640 -0.5230  0.0937  0.4728
10936TIP3    H154299   2.183   5.882   2.667 -1.2697  0.5860  1.7429
10936TIP3    H254300   2.137   5.781   2.564  1.4143 -0.6351  1.6334
10937TIP3   OH254301   2.882   6.735   3.300  0.7361  0.1066  0.1480
10937TIP3    H154302   2.886   6.699   3.388  0.1361  0.5804  0.3745
10937TIP3    H254303   2.907   6.827   3.310  1.8331 -0.1118 -0.3613
10938TIP3   OH254304   2.766   5.390   4.145 -0.5102  0.2880 -0.8127
10938TIP3    H154305   2.682   5.432   4.125  0.0327  0.7474 -2.1939
10938TIP3    H254306   2.829   5.461   4.147 -0.0552 -0.1255 -0.3110
10939TIP3   OH254307   2.065   6.077   3.233 -0.3617  0.1034 -0.0030
10939TIP3    H154308   2.021   6.003   3.192 -0.1374  0.7938 -1.5554
10939TIP3    H254309   2.155   6.072   3.202 -1.1707  3.3062 -3.6924
10940TIP3   OH254310   0.455   6.351  16.882 -0.7264 -0.1789  0.0219
10940TIP3    H154311   0.404   6.405  16.821  1.6419  0.5872 -1.4064
10940TIP3    H254312   0.503   6.290  16.826  0.2789 -0.5516  1.2501
10941TIP3   OH254313   6.537   1.228   0.145  0.0418  0.4531  0.0110
10941TIP3    H154314   6.473   1.251   0.212  0.1029 -0.4888  0.4114
10941TIP3    H254315   6.599   1.171   0.190  1.5835  1.9074 -0.1763
10942TIP3   OH254316   3.080   3.260   5.238 -0.5198 -0.2360 -0.0633
10942TIP3    H154317   3.116   3.215   5.315 -4.1523  2.0168  3.3000
10942TIP3    H254318   3.003   3.209   5.215 -1.2723  0.8748 -0.0748
10943TIP3   OH254319   3.633   1.206   1.882  0.0547 -0.2189  0.2534
10943TIP3    H154320   3.539   1.210   1.901 -0.2384 -1.0254 -0.9209
10943TIP3    H254321   3.666   1.292   1.907 -1.3517  0.7495 -1.0311
10944TIP3   OH254322   4.067   0.492  13.532  0.2368  0.0248  0.1444
10944TIP3    H154323   3.991   0.497  13.590  0.0416 -1.9426  0.1247
10944TIP3    H254324   4.139   0.467  13.590  1.5180  3.9798  0.6068
10945TIP3   OH254325   3.903   6.604   0.726  0.1875  0.4539  1.1423
10945TIP3    H154326   3.838   6.617   0.658  0.1296 -0.1003  1.0876
10945TIP3    H254327   3.935   6.692   0.746  0.2214  0.6182  0.3843
10946TIP3   OH254328   4.539   4.941   2.714 -0.3793 -0.1130 -0.0546
10946TIP3    H154329   4.545   4.943   2.618  1.8636  3.4008 -0.0550
10946TIP3    H254330   4.493   5.022   2.736 -0.0249 -0.4006  1.8657
10947TIP3   OH254331   5.099   4.188   3.944  0.1062  0.3034 -0.2670
10947TIP3    H154332   5.177   4.242   3.951 -0.2039  0.6959  0.2022
10947TIP3    H254333   5.124   4.117   3.884  0.2081  1.5015 -1.6980
10948TIP3   OH254334   1.150   6.290   5.069 -0.3470 -0.2493 -0.4078
10948TIP3    H154335   1.236   6.252   5.050 -0.0683  0.1488  0.0311
10948TIP3    H254336   1.170   6.373   5.114 -0.9561 -0.9571  1.2553
10949TIP3   OH254337   4.350   0.344   5.944 -0.8614  0.0951  0.1533
10949TIP3    H154338   4.355   0.407   5.871  0.6067 -0.9576 -0.7104
10949TIP3    H254339   4.440   0.336   5.974 -0.7922 -2.3881 -0.4949
10950TIP3   OH254340   3.428   4.558  15.527 -0.5509  0.0246  0.1607
10950TIP3    H154341   3.350   4.613  15.537 -0.3313  0.3724 -0.0107
10950TIP3    H254342   3.496   4.618  15.496 -0.3220 -0.3597 -0.0911
10951TIP3   OH254343   2.183   5.955  12.711 -0.0634  0.1274  0.4038
10951TIP3    H154344   2.149   6.044  12.705 -1.3451 -0.3686 -0.0835
10951TIP3    H254345   2.147   5.922  12.794  0.1156 -0.0584  0.4073
10952TIP3   OH254346   1.612   2.879  13.997  0.1131  0.6620  0.3415
10952TIP3    H154347   1.605   2.799  13.946 -2.4792  0.7839  0.3690
10952TIP3    H254348   1.665   2.854  14.073 -1.9851 -1.5770  1.2125
10953TIP3   OH254349   6.193   0.528  16.074 -0.3597  0.1612 -0.3512
10953TIP3    H154350   6.199   0.450  16.128 -1.6692  1.2133  1.4333
10953TIP3    H254351   6.124   0.508  16.011 -0.1338 -0.4034 -0.4235
10954TIP3   OH254352   4.160   5.979  15.471  0.5066  0.6898 -0.1568
10954TIP3    H154353   4.173   5.909  15.407 -0.1821  1.5567 -1.2896
10954TIP3    H254354   4.065   5.980  15.486  0.5465  1.1678  0.0847
10955TIP3   OH254355   6.255   0.669   6.781  0.2485 -0.2690 -0.2006
10955TIP3    H154356   6.190   0.603   6.804  2.6377 -2.6189  0.3168
10955TIP3    H254357   6.301   0.632   6.705  1.4152  0.9579 -0.1298
10956TIP3   OH254358   3.751   1.756  11.433 -0.3686  0.2573  0.0706
10956TIP3    H154359   3.693   1.832  11.437 -1.3926 -0.4688 -0.4779
10956TIP3    H254360   3.693   1.681  11.444  0.8146 -0.4350  2.3182
10957TIP3   OH254361   3.934   5.269  11.546  0.2906 -0.2740  0.4487
10957TIP3    H154362   3.885   5.187  11.544 -0.3919  0.0958  1.4622
10957TIP3    H254363   3.878   5.330  11.594  0.0740  1.2595 -1.5846
10958TIP3   OH254364   6.330   4.473  16.679 -0.5404  0.4592 -0.6477
10958TIP3    H154365   6.282   4.391  16.666  0.2236 -0.2023  0.5050
10958TIP3    H254366   6.263   4.537  16.701 -0.9012 -0.5427  1.3381
10959TIP3   OH254367   0.780   6.520  13.720  0.1658 -0.1107  0.0739
10959TIP3    H154368   0.796   6.610  13.692 -0.2550  0.5639  1.8540
10959TIP3    H254369   0.860   6.495  13.767  0.8380 -1.1962 -1.5371
10960TIP3   OH254370   6.604   4.196   0.553  0.2460  0.3340  0.3100
10960TIP3    H154371   6.571   4.200   0.463  1.3981  1.0590 -0.0962
10960TIP3    H254372   6.696   4.173   0.544 -0.2938 -2.8804  1.4935
10961TIP3   OH254373   1.234   4.678  17.050 -0.4027 -0.7140 -0.9389
10961TIP3    H154374   1.205   4.768  17.040  0.6307 -0.2990 -0.3370
10961TIP3    H254375   1.262   4.652  16.962  0.5969  0.0296 -0.8567
10962TIP3   OH254376   6.499   1.118   1.179 -0.2933  0.9975  0.4937
10962TIP3    H154377   6.553   1.193   1.155 -0.6336  0.7524 -1.1189
10962TIP3    H254378   6.545   1.043   1.142 -0.9188  0.6082  0.4905
10963TIP3   OH254379   2.986   6.581  11.099  0.1451 -0.1616  0.7544
10963TIP3    H154380   2.909   6.598  11.045  0.3955 -0.9805  0.1151
10963TIP3    H254381   3.034   6.664  11.100  0.7655 -0.4338 -1.3109
10964TIP3   OH254382   4.332   5.080  15.839 -1.0547  0.2499 -0.2954
10964TIP3    H154383   4.407   5.033  15.874 -0.8363  0.4284 -0.5206
10964TIP3    H254384   4.367   5.165  15.812 -0.9659 -0.2774 -1.9937
10965TIP3   OH254385   0.033   3.195   6.190  0.1242  0.7330 -0.2747
10965TIP3    H154386   0.090   3.134   6.143 -1.8309 -1.9816  0.6038
10965TIP3    H254387   0.081   3.214   6.271  0.3507 -0.6388 -0.0465
10966TIP3   OH254388   6.062   4.656  12.404  0.1986 -0.5974 -0.2617
10966TIP3    H154389   5.999   4.592  12.370 -0.8153 -0.3789  1.0776
10966TIP3    H254390   6.015   4.699  12.475  1.4655  0.4469 -0.0211
10967TIP3   OH254391   4.595   1.353  15.443  0.0906  0.7457  0.4490
10967TIP3    H154392   4.569   1.274  15.396 -0.2316 -0.0666  1.9406
10967TIP3    H254393   4.670   1.326  15.496 -0.1019  1.3972  1.0697
10968TIP3   OH254394   1.250   5.886   5.331 -0.5269  0.0145 -0.1224
10968TIP3    H154395   1.329   5.940   5.328  0.5399 -1.3571  1.2925
10968TIP3    H254396   1.179   5.948   5.347  0.3301  1.2205 -0.8443
10969TIP3   OH254397   0.876   1.233  16.558 -0.2315 -0.1641 -0.4434
10969TIP3    H154398   0.958   1.190  16.533 -0.4535 -0.0349 -1.4258
10969TIP3    H254399   0.853   1.287  16.482 -0.8230  0.4027  0.1288
10970TIP3   OH254400   6.603   3.393  15.073  0.3743  0.0327 -0.0408
10970TIP3    H154401   6.541   3.324  15.096  0.7870 -0.4116 -0.2380
10970TIP3    H254402   6.672   3.348  15.024 -0.3281  0.8915 -1.9225
10971TIP3   OH254403   1.152   0.039   4.441 -0.3224  0.2649  0.1193
10971TIP3    H154404   1.212   0.095   4.392  2.5530 -1.3357  1.5580
10971TIP3    H254405   1.159   0.069   4.531  0.6254 -1.7472  0.7743
10972TIP3   OH254406   5.374   2.226   2.769  0.5515  0.2851  0.1168
10972TIP3    H154407   5.306   2.159   2.757  0.7763  0.0467  0.1616
10972TIP3    H254408   5.439   2.184   2.825  0.8129  0.4562 -0.0561
10973TIP3   OH254409   3.641   4.661   5.504 -0.2527  0.4035  0.5233
10973TIP3    H154410   3.688   4.742   5.522 -0.3367  0.6050 -0.1274
10973TIP3    H254411   3.650   4.649   5.409 -1.2985  0.3119  0.4257
10974TIP3   OH254412   3.159   1.696  15.392  0.2759  0.2226 -0.2881
10974TIP3    H154413   3.111   1.739  15.463 -0.7339 -0.8190 -0.3192
10974TIP3    H254414   3.132   1.604  15.396  0.5589  0.0503 -1.7177
10975TIP3   OH254415   0.543   3.229  17.087 -0.6693 -0.1331  0.3547
10975TIP3    H154416   0.633   3.235  17.057 -0.8487  1.2474  0.0011
10975TIP3    H254417   0.527   3.135  17.098  0.1431 -0.5516 -1.6436
10976TIP3   OH254418   2.221   2.321   0.128 -0.3407 -0.3629 -0.0525
10976TIP3    H154419   2.177   2.365   0.056 -1.1215 -0.2743  0.4673
10976TIP3    H254420   2.314   2.335   0.112 -0.5483  0.6398 -0.4126
10977TIP3   OH254421   3.807   3.779  12.558  0.0380 -0.6673  0.1418
10977TIP3    H154422   3.897   3.751  12.540  0.5359 -0.1984  1.7232
10977TIP3    H254423   3.767   3.703  12.601  0.0363 -0.4893  0.4568
10978TIP3   OH254424   3.382   6.481  16.633  0.1677  0.2759  0.1833
10978TIP3    H154425   3.388   6.469  16.538  1.8545  0.6751  0.1988
10978TIP3    H254426   3.399   6.394  16.669  1.8777  0.5565  0.1282
10979TIP3   OH254427   1.253   1.462  13.203  0.1439 -0.2147 -0.3748
10979TIP3    H154428   1.247   1.554  13.178  1.0081 -0.5131 -1.7583
10979TIP3    H254429   1.255   1.414  13.120  1.1046 -1.3872  0.2891
10980TIP3   OH254430   4.096   3.478   0.346 -0.0486 -0.0597 -0.7272
10980TIP3    H154431   4.079   3.387   0.323 -0.1128  0.0040 -0.9339
10980TIP3    H254432   4.178   3.499   0.302 -0.4886  0.2477 -1.4034
10981TIP3   OH254433   4.392   1.340  11.557  0.1582  0.3834  0.0043
10981TIP3    H154434   4.304   1.344  11.519  0.3945 -0.4113 -0.6624
10981TIP3    H254435   4.402   1.249  11.585 -0.0305  0.9567  2.0883
10982TIP3   OH254436   0.188   6.299  11.815  0.3490  0.0269 -0.0310
10982TIP3    H154437   0.167   6.352  11.892  1.1642 -0.1971  0.3612
10982TIP3    H254438   0.193   6.362  11.743 -0.3020  0.2532  0.1220
10983TIP3   OH254439   4.795   1.559   0.749 -0.5090 -0.5590 -0.5426
10983TIP3    H154440   4.849   1.637   0.765  1.2490 -1.4882 -1.6135
10983TIP3    H254441   4.764   1.533   0.836 -0.9325  1.1752 -0.1401
10984TIP3   OH254442   0.912   1.443   1.710 -0.7297  0.6150  0.2452
10984TIP3    H154443   0.920   1.402   1.624  4.2554  0.8227  0.3000
10984TIP3    H254444   0.915   1.537   1.692 -1.8061  0.7263  0.5959
10985TIP3   OH254445   4.081   0.224  15.786  0.1582 -0.1841 -0.3930
10985TIP3    H154446   4.154   0.217  15.847  0.9401 -1.5119 -1.4313
10985TIP3    H254447   4.025   0.293  15.823 -0.8503 -2.7168  3.3375
10986TIP3   OH254448   0.952   5.676  15.951  0.4103  0.3062  0.2250
10986TIP3    H154449   0.922   5.735  16.019 -0.8456  0.7164 -0.6452
10986TIP3    H254450   0.944   5.726  15.870 -0.0946 -0.8357 -0.4632
10987TIP3   OH254451   2.689   5.835   5.213 -0.1768  0.4950 -0.3741
10987TIP3    H154452   2.598   5.808   5.221 -0.8463  2.8777  1.4730
10987TIP3    H254453   2.707   5.882   5.295  2.1042  1.7697 -1.5043
10988TIP3   OH254454   5.308   2.621  13.538 -0.1378 -0.9429  0.7130
10988TIP3    H154455   5.394   2.612  13.579  0.4566 -0.1331 -0.2979
10988TIP3    H254456   5.324   2.603  13.445 -1.0170 -0.5578  0.4767
10989TIP3   OH254457   2.631   2.257   0.380 -0.0019 -0.0934 -0.4920
10989TIP3    H154458   2.624   2.304   0.297 -0.6981 -2.6044 -1.9720
10989TIP3    H254459   2.706   2.199   0.368 -1.3889 -2.0304 -0.2793
10990TIP3   OH254460   5.982   2.298   6.344  0.1323 -0.1925  0.1124
10990TIP3    H154461   5.904   2.271   6.295 -0.0961 -1.9451  1.3377
10990TIP3    H254462   5.956   2.292   6.436  1.5671 -0.4183  0.5333
10991TIP3   OH254463   1.260   2.807  15.479  0.2087 -0.4502 -0.1161
10991TIP3    H154464   1.343   2.761  15.467 -0.1523 -1.2592  0.4175
10991TIP3    H254465   1.248   2.812  15.573 -0.6571 -0.9243 -0.1875
10992TIP3   OH254466   3.385   4.522  12.928 -0.1253  0.0742  0.0176
10992TIP3    H154467   3.438   4.443  12.931 -0.5978 -0.2475 -0.0306
10992TIP3    H254468   3.381   4.546  12.835  2.2058  1.6639  0.2382
10993TIP3   OH254469   5.396   6.257  11.761  0.0272  0.1029  0.3871
10993TIP3    H154470   5.481   6.263  11.717 -0.3451  0.5778 -0.2771
10993TIP3    H254471   5.347   6.332  11.728 -1.5901 -1.5739 -1.2496
10994TIP3   OH254472   2.500   2.945  16.551  0.1533  0.5333 -0.0464
10994TIP3    H154473   2.592   2.970  16.548  0.4663 -0.6090 -0.4697
10994TIP3    H254474   2.454   3.016  16.505  0.5632  2.0707  1.7824
10995TIP3   OH254475   4.531   1.010  14.107 -0.2803 -0.3710 -0.1410
10995TIP3    H154476   4.514   0.939  14.045  1.1264  0.5636 -1.6786
10995TIP3    H254477   4.498   0.977  14.190 -0.2065 -2.5802 -0.9143
10996TIP3   OH254478   5.731   2.949   3.488 -0.5522 -0.2197 -0.0894
10996TIP3    H154479   5.646   2.916   3.459 -1.3956  2.2939 -0.7198
10996TIP3    H254480   5.755   3.015   3.423  1.3503 -0.0825  0.6955
10997TIP3   OH254481   3.644   6.066  12.849  0.3794 -0.5152  0.4614
10997TIP3    H154482   3.635   5.999  12.916  0.5624 -0.2974  0.7066
10997TIP3    H254483   3.557   6.105  12.842 -0.0393 -1.5589 -0.5256
10998TIP3   OH254484   5.475   2.205  11.583  0.6116 -0.2701 -0.7704
10998TIP3    H154485   5.498   2.132  11.640  0.6762  0.8126  0.6273
10998TIP3    H254486   5.550   2.264  11.587 -0.5271  1.1598  0.2824
10999TIP3   OH254487   4.434   3.220  13.028 -0.0894 -0.0065 -0.4419
10999TIP3    H154488   4.402   3.232  12.939  1.0945 -1.0808 -1.0386
10999TIP3    H254489   4.436   3.309  13.065 -0.5347  0.4528 -1.4938
11000TIP3   OH254490   6.442   6.403  14.877  0.4995  0.4161 -0.0837
11000TIP3    H154491   6.537   6.405  14.863  1.1466  0.4448  3.4358
11000TIP3    H254492   6.427   6.326  14.932 -1.1909  1.5193  1.1158
11001TIP3   OH254493   5.513   1.424  12.188  0.2269 -0.6746  0.0942
11001TIP3    H154494   5.602   1.401  12.215  1.1853  2.0653 -0.4315
11001TIP3    H254495   5.502   1.380  12.104  0.6933 -1.8472  0.6256
11002TIP3   OH254496   0.801   0.141  16.131  0.1123 -0.0268  0.4293
11002TIP3    H154497   0.758   0.073  16.079  0.2599 -0.3741  0.7566
11002TIP3    H254498   0.894   0.119  16.126  0.0143 -0.9484  2.0800
11003TIP3   OH254499   3.997   0.401  12.040  0.3389  0.0335 -0.8498
11003TIP3    H154500   3.991   0.470  11.974 -0.4996  0.4038 -0.4044
11003TIP3    H254501   3.989   0.447  12.123  4.1289 -0.0517 -0.2653
11004TIP3   OH254502   1.405   2.305   2.705 -0.0082 -0.2982 -0.0532
11004TIP3    H154503   1.455   2.233   2.667 -0.1593 -0.5509  0.2218
11004TIP3    H254504   1.345   2.262   2.767 -0.2849  0.0373 -0.0867
11005TIP3   OH254505   2.175   4.036   2.537  0.0784 -0.2726 -0.5696
11005TIP3    H154506   2.238   4.042   2.465  0.9646  0.1340  0.2216
11005TIP3    H254507   2.090   4.022   2.493  0.4694  0.7914 -1.7228
11006TIP3   OH254508   4.211   0.483  15.128  0.1445 -0.2729 -0.6659
11006TIP3    H154509   4.161   0.411  15.089 -0.9863  1.1413 -1.9118
11006TIP3    H254510   4.191   0.478  15.222  0.9823 -2.2305 -0.5348
11007TIP3   OH254511   4.908   4.929  12.926 -0.0371  0.4284 -0.4178
11007TIP3    H154512   4.991   4.882  12.917 -0.8664 -0.7391 -2.5313
11007TIP3    H254513   4.868   4.890  13.004  0.7183 -0.0634 -0.2585
11008TIP3   OH254514   6.397   6.766  14.184  0.0477  0.1404  0.1358
11008TIP3    H154515   6.305   6.763  14.212 -0.9409 -1.5590 -2.8765
11008TIP3    H254516   6.441   6.812  14.255 -3.3705  2.5455  1.0048
11009TIP3   OH254517   4.013   6.279   1.876 -0.5321 -0.9352  0.3556
11009TIP3    H154518   3.928   6.238   1.892 -1.2492  0.9540  1.8850
11009TIP3    H254519   4.065   6.258   1.953 -0.8690  0.7608  1.1100
11010TIP3   OH254520   1.217   2.261  13.054 -0.2191 -0.2856 -0.3794
11010TIP3    H154521   1.195   2.317  12.980  1.3926  2.6416  1.1912
11010TIP3    H254522   1.136   2.253  13.104 -1.2078 -1.9263 -2.1338
11011TIP3   OH254523   1.060   0.410   3.168  0.4332  0.4721  0.2680
11011TIP3    H154524   1.053   0.395   3.262  0.2907 -2.2178 -0.0962
11011TIP3    H254525   1.045   0.324   3.128 -1.3195  1.8369 -2.3207
11012TIP3   OH254526   0.539   3.350   2.752 -0.3734 -0.0627 -0.1088
11012TIP3    H154527   0.450   3.349   2.787  0.2095  0.2167  1.4068
11012TIP3    H254528   0.556   3.441   2.731 -0.6642 -0.2068 -1.0510
11013TIP3   OH254529   6.281   2.968  13.942 -0.0912 -0.1520  0.8960
11013TIP3    H154530   6.304   3.029  14.012  1.0105  0.9639 -0.4078
11013TIP3    H254531   6.364   2.933  13.911 -0.5484 -0.5264  0.0477
11014TIP3   OH254532   0.852   2.053   4.375 -0.3909 -0.1756  0.2142
11014TIP3    H154533   0.841   2.142   4.344 -0.3175  0.2055  1.2314
11014TIP3    H254534   0.897   2.063   4.459 -1.3893 -1.0951  0.8830
11015TIP3   OH254535   1.904   2.281  17.154  0.0384  0.4243  0.1360
11015TIP3    H154536   1.955   2.202  17.169  0.5391  0.7979  0.4407
11015TIP3    H254537   1.847   2.288  17.231  1.4578  1.4598  1.1577
11016TIP3   OH254538   1.960   1.233  11.493 -0.3476 -0.4223 -0.1398
11016TIP3    H154539   2.041   1.283  11.482  0.4124 -1.0033  2.2186
11016TIP3    H254540   1.892   1.288  11.455  0.5873  2.0045  1.5019
11017TIP3   OH254541   3.348   6.357   3.253 -0.2996  0.2301 -0.1423
11017TIP3    H154542   3.303   6.391   3.176  0.0536  2.2059  0.4728
11017TIP3    H254543   3.281   6.308   3.300 -1.4036  1.6915 -0.1070
11018TIP3   OH254544   0.917   5.307   5.440 -0.0215 -0.0909 -0.2905
11018TIP3    H154545   0.936   5.215   5.457 -0.8851 -0.2369 -0.0979
11018TIP3    H254546   1.004   5.347   5.427  0.6389 -0.2604  2.8352
11019TIP3   OH254547   4.886   6.029  16.197  0.3249 -0.3877 -0.3434
11019TIP3    H154548   4.856   5.961  16.257  2.4675 -1.0057  0.1055
11019TIP3    H254549   4.981   6.031  16.209  0.6715  0.4084 -2.7523
11020TIP3   OH254550   1.733   6.413  15.045  0.3867  0.6840  0.4611
11020TIP3    H154551   1.734   6.353  14.970 -1.2517 -0.0603  0.9965
11020TIP3    H254552   1.809   6.469  15.031 -0.8925  1.8601 -2.8071
11021TIP3   OH254553   2.200   0.631   5.395 -0.8871 -0.4153 -0.2553
11021TIP3    H154554   2.152   0.555   5.427 -1.1220  0.3365  1.2706
11021TIP3    H254555   2.166   0.646   5.307 -1.0147 -1.9048 -0.4800
11022TIP3   OH254556   6.040   2.527  15.141 -0.2755 -0.5292 -0.0800
11022TIP3    H154557   5.947   2.548  15.153 -0.2787 -1.1394  1.1009
11022TIP3    H254558   6.060   2.465  15.211  1.4780  0.9873  0.8636
11023TIP3   OH254559   0.855   3.987  15.798  0.2193 -0.0358 -0.2011
11023TIP3    H154560   0.785   3.977  15.862  0.8974 -0.6784  0.4655
11023TIP3    H254561   0.837   3.921  15.731  0.8501 -1.0446  0.6027
11024TIP3   OH254562   6.584   5.818  11.620 -0.1595 -0.2685  0.1604
11024TIP3    H154563   6.569   5.773  11.537 -0.1089  0.3085 -0.1609
11024TIP3    H254564   6.679   5.820  11.630 -0.1249  0.6182 -0.2968
11025TIP3   OH254565   1.741   5.837  12.310 -0.0237 -0.2605 -0.4076
11025TIP3    H154566   1.712   5.926  12.331  0.0286 -0.6909  1.7662
11025TIP3    H254567   1.831   5.848  12.281 -0.1240  0.4281 -0.4880
11026TIP3   OH254568   5.189   6.372   0.565  0.5533 -0.0664  0.1343
11026TIP3    H154569   5.110   6.333   0.603  0.4892 -0.6798 -0.5900
11026TIP3    H254570   5.206   6.319   0.487  1.7725 -0.0382  0.3637
11027TIP3   OH254571   4.629   0.183   2.936  0.2071  0.3891 -0.4373
11027TIP3    H154572   4.619   0.277   2.922  0.1409  0.2743 -1.2224
11027TIP3    H254573   4.702   0.158   2.880  0.2284 -0.0311 -0.2276
11028TIP3   OH254574   0.950   3.434  10.897 -0.4469  0.4028 -0.5511
11028TIP3    H154575   0.891   3.477  10.836 -2.4648 -1.6743 -0.1752
11028TIP3    H254576   0.994   3.367  10.845 -0.8139 -0.1618 -0.1466
11029TIP3   OH254577   5.084   4.475  16.537 -0.5009 -0.6738  0.0009
11029TIP3    H154578   5.052   4.415  16.604 -2.1986 -1.0233 -1.0591
11029TIP3    H254579   5.005   4.515  16.501  0.5201  1.4904 -0.0163
11030TIP3   OH254580   0.224   2.806  12.525 -0.3713 -0.6294 -0.0576
11030TIP3    H154581   0.185   2.722  12.504  0.6225 -0.5246 -2.7766
11030TIP3    H254582   0.310   2.804  12.482 -0.0140  1.4722  0.4392
11031TIP3   OH254583   0.039   3.775  13.533 -0.2327  0.2615  0.7412
11031TIP3    H154584   0.114   3.816  13.489 -1.7019  1.4510 -0.8326
11031TIP3    H254585   0.018   3.699  13.479 -1.1610  0.9001  0.1726
11032TIP3   OH254586   6.364   6.563  16.316 -0.1124 -0.3063  0.9421
11032TIP3    H154587   6.311   6.484  16.316 -0.2320 -0.2428  2.1220
11032TIP3    H254588   6.314   6.625  16.370  1.0857 -0.2061  1.9751
11033TIP3   OH254589   1.596   4.062   2.800 -0.2726  0.3998 -0.4259
11033TIP3    H154590   1.576   4.101   2.715 -1.8971  2.8460  0.9494
11033TIP3    H254591   1.535   3.989   2.808  0.1336 -0.0845 -1.4472
11034TIP3   OH254592   2.940   2.345  16.136 -0.4111  0.5307  0.3496
11034TIP3    H154593   3.015   2.390  16.174 -0.5857  0.3096  0.9561
11034TIP3    H254594   2.871   2.354  16.200 -0.4500 -0.5958  0.4841
11035TIP3   OH254595   3.349   1.434  11.201  0.0058 -0.1772 -0.5103
11035TIP3    H154596   3.259   1.458  11.222  0.2003  0.9539 -0.8920
11035TIP3    H254597   3.400   1.464  11.277  0.2639  0.6878 -1.0220
11036TIP3   OH254598   1.275   1.465   5.371  0.5765 -0.2156 -0.7470
11036TIP3    H154599   1.366   1.451   5.345  0.2048  0.8200 -2.8220
11036TIP3    H254600   1.225   1.401   5.320  0.1199 -1.0401  0.6592
11037TIP3   OH254601   2.060   1.163   1.991  0.3594  0.1447  0.1648
11037TIP3    H154602   1.977   1.161   2.039 -0.1567 -1.0407 -0.7509
11037TIP3    H254603   2.035   1.169   1.899  1.3321  2.1549 -0.0333
11038TIP3   OH254604   2.015   6.102   4.636  0.4980  0.0019  0.2486
11038TIP3    H154605   2.049   6.096   4.547  0.4076 -2.2553  0.2922
11038TIP3    H254606   2.090   6.128   4.689  0.8465  0.2140 -0.3467
11039TIP3   OH254607   4.678   5.247   2.035  0.2843 -0.2839 -0.8365
11039TIP3    H154608   4.644   5.190   1.966 -1.8139  0.6770 -0.6672
11039TIP3    H254609   4.724   5.317   1.989 -0.8322  0.1799 -1.2725
11040TIP3   OH254610   1.985   1.478   4.825  0.2808 -0.0140  0.1844
11040TIP3    H154611   2.007   1.513   4.911  0.0609  1.6023 -0.3846
11040TIP3    H254612   1.963   1.387   4.841  0.6837  0.1410  1.7708
11041TIP3   OH254613   5.743   0.662  16.670 -0.2049  0.2332 -0.4893
11041TIP3    H154614   5.651   0.652  16.696  0.3700 -1.4420  1.1093
11041TIP3    H254615   5.767   0.750  16.700 -1.1861  0.5825 -0.6762
11042TIP3   OH254616   4.540   6.377   4.095 -0.8610  0.1263 -0.0605
11042TIP3    H154617   4.473   6.329   4.046 -0.9577 -0.6275  0.7933
11042TIP3    H254618   4.514   6.368   4.186  1.7122 -2.3123  0.5606
11043TIP3   OH254619   1.667   4.435   4.427 -0.0351 -0.1075  0.6930
11043TIP3    H154620   1.607   4.416   4.355  1.0714  1.7801 -0.8118
11043TIP3    H254621   1.724   4.358   4.431 -1.1048 -0.9375  0.6679
11044TIP3   OH254622   2.192   0.270   3.332  0.0930 -0.4477  0.0382
11044TIP3    H154623   2.111   0.280   3.282 -0.0630  1.2557  0.5496
11044TIP3    H254624   2.246   0.344   3.305  0.0609  0.4582  2.2336
11045TIP3   OH254625   6.784   4.657   0.596  0.4746 -0.1468 -0.2476
11045TIP3    H154626   6.826   4.735   0.561  1.3422 -1.0559 -1.2934
11045TIP3    H254627   6.741   4.616   0.521 -1.9767  0.4985  0.6895
11046TIP3   OH254628   5.176   3.086   2.094  0.0779 -0.0987 -0.0256
11046TIP3    H154629   5.203   3.110   2.006  1.4018 -0.7065  0.2031
11046TIP3    H254630   5.194   3.164   2.147 -0.0611  0.0186 -0.1483
11047TIP3   OH254631   2.463   1.635   4.372 -0.1967  0.9500 -0.8386
11047TIP3    H154632   2.535   1.696   4.354 -0.5172  0.9603 -2.1826
11047TIP3    H254633   2.391   1.665   4.316 -0.1533 -1.0299 -2.0801
11048TIP3   OH254634   5.745   3.352   6.512 -0.0665 -0.2083  0.2458
11048TIP3    H154635   5.684   3.418   6.480  0.5300 -0.2619 -1.0829
11048TIP3    H254636   5.796   3.396   6.580 -0.6495  0.2562  0.3817
11049TIP3   OH254637   3.770   0.627   3.193 -0.5181 -0.1603 -0.3089
11049TIP3    H154638   3.736   0.685   3.261  0.6959 -1.1000  1.1626
11049TIP3    H254639   3.715   0.548   3.200 -0.0025 -0.4940  0.0092
11050TIP3   OH254640   3.989   6.364  12.183 -0.4183 -0.3695  0.6429
11050TIP3    H154641   4.031   6.392  12.265 -0.8393 -0.6696  0.9644
11050TIP3    H254642   4.031   6.417  12.115  0.4935 -0.6680  0.9523
11051TIP3   OH254643   4.318   0.623   3.022  0.1843 -0.3288 -0.1408
11051TIP3    H154644   4.365   0.592   3.099 -0.1115 -0.0875  0.1433
11051TIP3    H254645   4.322   0.719   3.029 -0.0403 -0.3071 -0.3051
11052TIP3   OH254646   5.695   0.367  12.402 -0.1027  0.0260  0.0129
11052TIP3    H154647   5.647   0.389  12.322  0.2408  1.8542  0.2540
11052TIP3    H254648   5.644   0.296  12.441 -0.4596 -0.6819 -1.6423
11053TIP3   OH254649   0.147   6.247  16.659  0.0234  0.0115  0.3634
11053TIP3    H154650   0.088   6.308  16.614  1.3419  1.9444  1.1148
11053TIP3    H254651   0.153   6.282  16.748  3.5477  0.9289 -0.1125
11054TIP3   OH254652   0.940   4.201   5.084 -0.6339  0.7169 -0.2675
11054TIP3    H154653   1.019   4.248   5.059 -1.8022  3.1614  0.2642
11054TIP3    H254654   0.939   4.123   5.030  1.5155  1.2422 -1.1364
11055TIP3   OH254655   4.970   0.265   2.424  0.1361  0.2764  0.4866
11055TIP3    H154656   4.990   0.191   2.367 -0.1685  0.5702 -0.0075
11055TIP3    H254657   4.883   0.245   2.459 -1.2282  1.6935 -1.8348
11056TIP3   OH254658   3.881   4.406  13.319  0.2246 -0.2696  0.2044
11056TIP3    H154659   3.871   4.473  13.252 -0.3226  1.0981  1.5789
11056TIP3    H254660   3.810   4.423  13.381 -0.5135 -2.7578  0.1138
11057TIP3   OH254661   1.014   4.969  16.430 -0.1029  0.2038  0.2837
11057TIP3    H154662   0.954   4.894  16.433  0.7429 -0.5116 -0.3678
11057TIP3    H254663   0.956   5.044  16.418 -0.8474 -0.5593 -1.3380
11058TIP3   OH254664   4.638   5.948  13.559  0.3342 -0.3102  0.2497
11058TIP3    H154665   4.555   5.964  13.514  0.7611 -0.5539 -0.6594
11058TIP3    H254666   4.674   6.035  13.573  1.5476 -0.2327 -2.5584
11059TIP3   OH254667   5.710   5.631   4.708 -0.4136  0.0235  0.5142
11059TIP3    H154668   5.663   5.575   4.646 -2.7458  1.6014  0.7280
11059TIP3    H254669   5.800   5.631   4.676 -0.4237 -3.2620  0.1565
11060TIP3   OH254670   2.800   3.191  12.609 -0.2547 -0.3404  0.3673
11060TIP3    H154671   2.753   3.117  12.573 -2.4336  1.5820 -1.0471
11060TIP3    H254672   2.787   3.261  12.545 -0.5935  2.0142  2.8127
11061TIP3   OH254673   0.809   6.724   4.702  0.1326 -0.3049  0.3856
11061TIP3    H154674   0.894   6.743   4.742  0.2766  1.2790 -0.5638
11061TIP3    H254675   0.752   6.704   4.776  0.2852  2.9015  1.5671
11062TIP3   OH254676   3.182   4.240  11.436 -0.0567 -0.0659 -0.4967
11062TIP3    H154677   3.229   4.319  11.460 -0.2960  0.0081 -0.2617
11062TIP3    H254678   3.179   4.241  11.340  1.1594 -0.5074 -0.5485
11063TIP3   OH254679   4.288   6.292  13.589  0.0193 -0.5119 -0.9794
11063TIP3    H154680   4.264   6.274  13.680 -0.0487 -0.6227 -1.0201
11063TIP3    H254681   4.384   6.300  13.592  0.1259 -1.6158 -1.0879
11064TIP3   OH254682   3.710   2.306   4.569 -0.0278  0.5337  0.6314
11064TIP3    H154683   3.646   2.288   4.638 -0.4138 -0.6794 -0.0125
11064TIP3    H254684   3.659   2.298   4.488  1.0294 -0.9054  0.0825
11065TIP3   OH254685   0.308   3.766   2.197 -0.1773  0.0246  0.1020
11065TIP3    H154686   0.362   3.689   2.176  1.3305  0.8526  0.8233
11065TIP3    H254687   0.341   3.835   2.139 -0.0969  0.6848  0.9137
11066TIP3   OH254688   5.942   3.786  13.123 -0.5092  0.5999 -0.0220
11066TIP3    H154689   5.909   3.874  13.106 -0.0850  0.7891  0.1402
11066TIP3    H254690   5.864   3.735  13.144 -0.6599  1.1530  0.8211
11067TIP3   OH254691   2.811   5.682  15.634  1.0121  0.0501  0.0315
11067TIP3    H154692   2.749   5.653  15.701  0.4543 -0.6566 -0.7726
11067TIP3    H254693   2.760   5.688  15.554  2.0397 -0.8796 -0.7238
11068TIP3   OH254694   4.018   5.404   1.216 -0.1331  0.0349 -0.5783
11068TIP3    H154695   3.964   5.379   1.141  0.6561 -0.9330 -0.8449
11068TIP3    H254696   3.959   5.401   1.291 -1.1010  1.6618 -1.2176
11069TIP3   OH254697   4.783   2.468  12.785  0.3936  0.2497 -0.1298
11069TIP3    H154698   4.765   2.451  12.877  0.9109  0.8479  0.0879
11069TIP3    H254699   4.836   2.548  12.785  0.7869 -0.0002 -0.9124
11070TIP3   OH254700   4.393   0.156  16.318 -0.1879  0.0725  0.1674
11070TIP3    H154701   4.428   0.082  16.269 -1.1102 -1.2572  1.4443
11070TIP3    H254702   4.470   0.208  16.341  0.6089 -1.1436  0.3017
11071TIP3   OH254703   1.139   4.500  13.920 -0.1455  0.6225  0.0597
11071TIP3    H154704   1.110   4.428  13.977  1.4212  0.2668  0.4521
11071TIP3    H254705   1.212   4.463  13.871 -0.0554  1.6144 -0.5718
11072TIP3   OH254706   3.433   3.463  13.429  0.0918  0.5679  0.4051
11072TIP3    H154707   3.381   3.384  13.415  0.8250  0.4664 -2.3015
11072TIP3    H254708   3.369   3.529  13.455 -0.5404 -0.8204  2.7689
11073TIP3   OH254709   3.646   6.045   0.983 -0.1272  0.2670  0.1814
11073TIP3    H154710   3.716   6.063   1.047 -0.0446 -1.5910  0.6726
11073TIP3    H254711   3.609   5.962   1.011 -2.0342  0.8165 -0.5525
11074TIP3   OH254712   5.388   5.767   6.657  0.2034 -0.0025  0.3687
11074TIP3    H154713   5.451   5.797   6.722 -0.0077 -0.0683  0.6033
11074TIP3    H254714   5.369   5.844   6.604  1.0434 -0.1499 -0.1699
11075TIP3   OH254715   5.803   2.123   2.345 -0.1744  0.7890  0.1668
11075TIP3    H154716   5.709   2.136   2.357 -0.6412  0.9159 -2.9070
11075TIP3    H254717   5.811   2.033   2.312  0.6729  1.1522 -0.6440
11076TIP3   OH254718   0.231   3.661  12.951  0.5286 -0.2840 -0.2001
11076TIP3    H154719   0.177   3.658  13.030  0.3216  0.1183 -0.3206
11076TIP3    H254720   0.287   3.584  12.957 -0.6228 -1.1788 -0.4677
11077TIP3   OH254721   1.805   0.055  15.431  0.7565 -0.4371  0.1492
11077TIP3    H154722   1.784   0.018  15.345  2.9818 -2.9219  0.5337
11077TIP3    H254723   1.869   0.124  15.414  2.1054 -1.7202 -0.1994
11078TIP3   OH254724   1.116   0.518   1.048  0.1765  0.3447 -0.7896
11078TIP3    H154725   1.126   0.437   0.999 -2.2231 -0.2966 -0.3121
11078TIP3    H254726   1.066   0.576   0.991 -1.8016 -0.0680  0.4391
11079TIP3   OH254727   1.663   3.078  13.780 -0.1735  0.7336  0.3333
11079TIP3    H154728   1.599   3.129  13.730 -1.3012 -1.3142 -0.3988
11079TIP3    H254729   1.625   3.072  13.868 -1.5448 -1.2774 -0.3369
11080TIP3   OH254730   2.377   3.941   1.086 -0.2327  0.2712  0.9205
11080TIP3    H154731   2.301   3.972   1.036  0.2037 -1.5557 -1.0045
11080TIP3    H254732   2.367   3.846   1.088  1.7521  0.0197  1.0407
11081TIP3   OH254733   3.258   0.952   1.599 -0.4797 -0.1200  0.1904
11081TIP3    H154734   3.351   0.941   1.617 -0.8646 -1.5151  1.5476
11081TIP3    H254735   3.231   1.025   1.655  0.0099  1.1577 -1.1634
11082TIP3   OH254736   0.848   6.512  12.405  0.3373 -0.7676  1.1003
11082TIP3    H154737   0.859   6.535  12.313 -1.2140  2.0591  1.5127
11082TIP3    H254738   0.759   6.475  12.409  0.1715 -0.3210  1.5558
11083TIP3   OH254739   5.523   3.708  14.586 -0.0734 -0.3913  0.3737
11083TIP3    H154740   5.585   3.670  14.647  1.0221  1.7121  0.6827
11083TIP3    H254741   5.463   3.760  14.640 -0.3277 -0.1139 -0.1550
11084TIP3   OH254742   1.908   5.931  11.318  0.4081  0.5289 -0.3856
11084TIP3    H154743   1.845   5.959  11.252  0.0335  0.4373 -0.0725
11084TIP3    H254744   1.978   5.996  11.312  0.1830  0.7586 -0.5926
11085TIP3   OH254745   5.751   0.891  15.025  0.5235 -0.2545  0.3460
11085TIP3    H154746   5.678   0.914  15.083 -0.8958 -0.9267 -1.0791
11085TIP3    H254747   5.804   0.970  15.020  0.7102 -0.1886  2.5359
11086TIP3   OH254748   0.348   3.747   2.484  0.2235  0.4096 -0.1520
11086TIP3    H154749   0.320   3.747   2.392 -0.1916  1.2795 -0.0340
11086TIP3    H254750   0.430   3.795   2.485 -1.3088  3.2589  0.3329
11087TIP3   OH254751   5.689   6.525   2.926 -0.6718  0.0806  0.0706
11087TIP3    H154752   5.679   6.496   2.835 -0.4044 -1.1748  0.4322
11087TIP3    H254753   5.628   6.598   2.934  1.2211  2.0578 -1.8993
11088TIP3   OH254754   0.233   0.614   1.017  0.2280  0.1235 -0.8000
11088TIP3    H154755   0.206   0.638   0.928 -0.0940 -2.0810 -1.3528
11088TIP3    H254756   0.328   0.611   1.013  0.4363  2.8915 -0.2119
11089TIP3   OH254757   4.539   5.434   1.539  0.0358  0.7063 -0.0253
11089TIP3    H154758   4.484   5.373   1.587  0.3199  0.7830  0.4005
11089TIP3    H254759   4.495   5.518   1.547 -0.1756  0.6288 -0.3249
11090TIP3   OH254760   6.294   2.314   4.537  0.7547  0.0068  0.2065
11090TIP3    H154761   6.227   2.255   4.573  0.4361  0.4932  0.4194
11090TIP3    H254762   6.356   2.256   4.493  1.3180 -0.6194  1.7986
11091TIP3   OH254763   4.218   4.056   4.260  0.3423  0.5233 -0.0108
11091TIP3    H154764   4.225   4.136   4.208  0.5728 -0.8084 -2.1554
11091TIP3    H254765   4.182   3.991   4.199 -0.9219 -0.7494  1.9794
11092TIP3   OH254766   4.038   1.302  16.859 -0.2600  0.0399  0.3400
11092TIP3    H154767   3.997   1.335  16.779 -0.7732  1.7843  1.2879
11092TIP3    H254768   4.132   1.319  16.846 -0.1613 -0.9883 -0.4552
11093TIP3   OH254769   1.733   4.168   4.385  0.0398 -0.0451  0.3179
11093TIP3    H154770   1.717   4.079   4.418 -0.3068  0.8944  2.9143
11093TIP3    H254771   1.662   4.184   4.323 -0.4821 -1.2166  0.5813
11094TIP3   OH254772   6.143   6.408  13.042 -0.7680  0.1545 -0.3756
11094TIP3    H154773   6.171   6.359  12.965  1.3698  0.1791  0.3192
11094TIP3    H254774   6.206   6.479  13.050 -0.3365 -0.4050  1.9008
11095TIP3   OH254775   0.712   0.507  14.758 -0.0122  1.4057 -0.1891
11095TIP3    H154776   0.763   0.520  14.678  0.7274  0.1581  0.0609
11095TIP3    H254777   0.661   0.427  14.741  0.8512  0.5953  0.9130
11096TIP3   OH254778   5.394   5.158  16.645  0.2686  0.5510  0.3786
11096TIP3    H154779   5.475   5.112  16.624 -0.1363  0.5466 -1.3681
11096TIP3    H254780   5.333   5.130  16.577 -0.7436  1.6972  0.7840
11097TIP3   OH254781   5.233   0.999  14.711 -0.3792 -0.2185 -0.2585
11097TIP3    H154782   5.199   1.089  14.706  1.7132  0.7176  0.9864
11097TIP3    H254783   5.280   0.987  14.629 -1.1017 -0.4077 -0.6592
11098TIP3   OH254784   3.495   5.185  12.879  0.7384  0.2381 -0.3312
11098TIP3    H154785   3.489   5.141  12.794  2.1921  0.1927 -0.4396
11098TIP3    H254786   3.430   5.141  12.934 -0.5841  0.6145 -1.5472
11099TIP3   OH254787   2.387   1.274   5.180  0.0650  0.0903  0.2992
11099TIP3    H154788   2.476   1.259   5.151 -0.5949 -0.7548 -1.4250
11099TIP3    H254789   2.332   1.252   5.105 -1.5863  1.0353  1.1442
11100TIP3   OH254790   2.045   5.287   5.539  0.1002  0.2189 -0.0253
11100TIP3    H154791   2.003   5.232   5.606  1.1007 -1.1334 -0.4617
11100TIP3    H254792   2.067   5.368   5.585  0.0878 -0.3961  1.0964
11101TIP3   OH254793   4.733   1.700  10.503 -0.1028  0.0769 -0.1128
11101TIP3    H154794   4.815   1.725  10.545  1.0906  0.8103 -2.6890
11101TIP3    H254795   4.747   1.611  10.472 -1.5168 -1.0389  2.1686
11102TIP3   OH254796   5.464   4.472  17.377  0.0649 -0.0421  0.0338
11102TIP3    H154797   5.408   4.520  17.316 -0.8581 -0.4582  0.5357
11102TIP3    H254798   5.459   4.523  17.458 -0.3728 -0.5999  0.3630
11103TIP3   OH254799   1.974   1.041  13.137 -0.1266  0.4499 -0.2815
11103TIP3    H154800   2.035   0.973  13.108 -0.8088  0.3451 -1.5341
11103TIP3    H254801   1.888   0.999  13.132 -0.3636  0.7034  1.1305
11104TIP3   OH254802   5.523   1.445   0.178  0.4963 -0.6140  0.1822
11104TIP3    H154803   5.612   1.459   0.209  0.3613  0.8613 -0.0372
11104TIP3    H254804   5.468   1.455   0.256  0.4589 -0.6777  0.1640
11105TIP3   OH254805   2.609   2.179  14.591  0.1355  0.2350  0.4469
11105TIP3    H154806   2.528   2.181  14.538 -1.0634 -0.5245  2.1633
11105TIP3    H254807   2.660   2.254  14.559  0.0259 -0.8404 -2.5660
11106TIP3   OH254808   2.243   5.891   1.375  0.0063  0.1211 -0.0522
11106TIP3    H154809   2.150   5.913   1.369 -0.7318 -2.1701  1.6265
11106TIP3    H254810   2.255   5.862   1.465  2.4638  0.7243 -0.1307
11107TIP3   OH254811   6.571   5.096  14.137 -0.5433  0.0619 -0.6535
11107TIP3    H154812   6.542   5.111  14.047 -0.6941 -1.1386 -0.8264
11107TIP3    H254813   6.604   5.181  14.166 -0.4551  0.4635 -1.8569
11108TIP3   OH254814   1.926   5.346  16.189 -0.4188 -0.1887  0.0720
11108TIP3    H154815   1.841   5.338  16.234 -0.4977 -1.2947 -0.2464
11108TIP3    H254816   1.987   5.301  16.247 -0.1450  0.1063  0.0168
11109TIP3   OH254817   2.691   5.086   2.207  0.2989  0.5886 -0.1595
11109TIP3    H154818   2.680   5.112   2.299  2.6923 -1.9817  1.0051
11109TIP3    H254819   2.775   5.123   2.182  0.8901 -0.8613 -0.4126
11110TIP3   OH254820   2.447   6.559  16.731  1.0473 -0.4136  0.2521
11110TIP3    H154821   2.465   6.469  16.758  1.1220 -1.0557 -1.7540
11110TIP3    H254822   2.355   6.573  16.754  1.1417 -0.8528  0.9342
11111TIP3   OH254823   0.762   6.665   3.722 -0.2900 -0.0443 -0.6150
11111TIP3    H154824   0.793   6.616   3.798  0.0489 -0.5662 -1.0884
11111TIP3    H254825   0.747   6.754   3.756 -0.2937 -0.3059  0.0934
11112TIP3   OH254826   0.655   3.667   3.602 -0.1517  0.2748  0.4884
11112TIP3    H154827   0.681   3.675   3.511 -0.6929 -1.9716  0.0845
11112TIP3    H254828   0.613   3.581   3.608  0.7869 -0.0952  3.0576
11113TIP3   OH254829   5.476   0.448   2.184 -0.4120  0.5898  0.1811
11113TIP3    H154830   5.435   0.505   2.119  0.7125  1.0494 -0.1480
11113TIP3    H254831   5.411   0.379   2.200 -2.3523  2.6018  1.5387
11114TIP3   OH254832   1.373   3.450   2.111  0.3053  0.6132 -0.1111
11114TIP3    H154833   1.391   3.502   2.033 -0.2792  2.2178  0.7773
11114TIP3    H254834   1.282   3.422   2.101  1.3997 -3.0085 -2.0563
11115TIP3   OH254835   2.405   4.542  13.839 -0.0520 -0.1779 -0.1814
11115TIP3    H154836   2.318   4.565  13.807 -0.2227 -0.4316  0.1027
11115TIP3    H254837   2.423   4.457  13.798  0.5909  0.4495 -1.2562
11116TIP3   OH254838   6.687   2.004  11.506 -0.3887  0.0169 -0.1220
11116TIP3    H154839   6.652   1.948  11.576  2.1988  0.0740  1.3648
11116TIP3    H254840   6.739   2.070  11.552  0.4130  0.8166 -2.0620
11117TIP3   OH254841   3.095   3.275   2.211 -0.5426 -0.8813  0.3435
11117TIP3    H154842   3.053   3.333   2.275  0.2688 -0.5269  0.5548
11117TIP3    H254843   3.026   3.258   2.147 -1.1943 -0.7752  0.9970
11118TIP3   OH254844   2.774   4.886   1.987 -0.1157 -0.1588 -0.0869
11118TIP3    H154845   2.784   4.847   1.900 -0.2457  0.4322 -0.3749
11118TIP3    H254846   2.685   4.922   1.987  1.1290  3.2992 -1.1884
11119TIP3   OH254847   5.798   3.439   0.409 -0.5016  0.6274  0.1511
11119TIP3    H154848   5.715   3.453   0.456 -1.4899 -0.7261 -1.0810
11119TIP3    H254849   5.780   3.364   0.352 -0.0202  3.2329 -3.7958
11120TIP3   OH254850   1.245   4.970   3.937 -0.0629 -0.2312  0.0783
11120TIP3    H154851   1.189   5.032   3.985 -0.4513  0.5427 -1.3091
11120TIP3    H254852   1.333   4.987   3.971 -0.4116 -0.2062  1.0131
11121TIP3   OH254853   6.720   1.737   1.317  0.2517  0.1405  0.1784
11121TIP3    H154854   6.692   1.739   1.408 -0.4349 -0.1213 -0.0243
11121TIP3    H254855   6.770   1.818   1.305  1.3952 -0.4012  1.1072
11122TIP3   OH254856   3.537   6.037  12.221 -0.0367  0.3251 -0.0870
11122TIP3    H154857   3.601   5.975  12.257 -0.0012  0.1057 -0.5177
11122TIP3    H254858   3.469   6.042  12.287 -0.0289 -0.1617 -0.0359
11123TIP3   OH254859   2.378   5.212   1.611 -0.3087  0.1389  0.6510
11123TIP3    H154860   2.443   5.171   1.668  0.7021  1.3867  0.4349
11123TIP3    H254861   2.359   5.296   1.653  1.6174  1.7874 -1.5814
11124TIP3   OH254862   2.876   3.942   5.905 -0.0673  0.0407  0.2312
11124TIP3    H154863   2.941   3.881   5.940  1.4605  0.7774 -1.1989
11124TIP3    H254864   2.804   3.887   5.877  0.5045 -0.9382  0.6258
11125TIP3   OH254865   1.674   3.820  11.104  0.3109 -0.3605 -0.0099
11125TIP3    H154866   1.627   3.761  11.046 -1.5100  1.3925 -0.4496
11125TIP3    H254867   1.697   3.895  11.048 -0.0930  0.6727  1.1748
11126TIP3   OH254868   4.692   3.400   2.882  0.1116 -0.2184  0.2459
11126TIP3    H154869   4.634   3.421   2.809 -2.5359  0.7206  2.4247
11126TIP3    H254870   4.760   3.345   2.844 -1.7458 -0.7107 -2.6812
11127TIP3   OH254871   1.215   0.524  15.661 -0.3651  0.3277 -0.1841
11127TIP3    H154872   1.196   0.578  15.737 -1.3145  1.2313 -1.0404
11127TIP3    H254873   1.303   0.551  15.633 -0.6006  1.0042 -0.2625
11128TIP3   OH254874   5.180   6.066   4.759 -0.0170 -0.3577 -0.0115
11128TIP3    H154875   5.149   5.986   4.718 -2.0139  0.7176 -0.7766
11128TIP3    H254876   5.194   6.126   4.686  2.8537 -0.3950  0.4273
11129TIP3   OH254877   2.760   5.991  17.340 -0.0906 -0.0542  0.7085
11129TIP3    H154878   2.743   5.996  17.246 -1.1386 -0.9457  0.8265
11129TIP3    H254879   2.737   5.901  17.364 -0.5014  0.3527  1.9394
11130TIP3   OH254880   0.116   5.131   4.557 -0.2240  0.2318  0.3599
11130TIP3    H154881   0.211   5.128   4.540 -0.4490 -0.9973 -0.8280
11130TIP3    H254882   0.084   5.199   4.498 -0.6108 -2.1922 -2.4993
11131TIP3   OH254883   6.609   1.602   3.999 -0.6095 -0.3105  0.5884
11131TIP3    H154884   6.664   1.573   4.072 -0.5336  0.3557  0.8051
11131TIP3    H254885   6.559   1.676   4.035  0.4762  0.9801 -0.4306
11132TIP3   OH254886   1.090   3.996   2.479  0.6517 -0.6071 -0.3159
11132TIP3    H154887   0.995   4.003   2.489  0.5085 -3.7028  1.9147
11132TIP3    H254888   1.123   4.084   2.496 -1.7150  0.1144  0.8472
11133TIP3   OH254889   6.056   6.399   6.683  0.0015  0.0808  0.3972
11133TIP3    H154890   6.050   6.315   6.638 -0.3335 -0.3091  1.1529
11133TIP3    H254891   6.143   6.432   6.662 -1.1381  1.3470 -2.9874
11134TIP3   OH254892   1.964   4.204   4.074 -0.3598 -0.5430  0.0425
11134TIP3    H154893   1.944   4.239   4.161  0.6961  0.3484 -0.0587
11134TIP3    H254894   2.054   4.173   4.082  0.4255  1.2587 -1.2374
11135TIP3   OH254895   6.431   3.219   5.591 -0.2950 -0.4145  0.2724
11135TIP3    H154896   6.460   3.176   5.671  0.5193 -0.7102 -0.1633
11135TIP3    H254897   6.407   3.308   5.618 -0.8315 -0.7628  0.9737
11136TIP3   OH254898   2.673   5.799  15.033 -0.0923  0.9930 -0.2336
11136TIP3    H154899   2.583   5.779  15.061  0.4883  0.0671  1.0685
11136TIP3    H254900   2.666   5.885  14.992 -1.9087  0.1406 -1.9155
11137TIP3   OH254901   4.938   0.927  10.859 -0.2010  0.2242 -0.6828
11137TIP3    H154902   4.970   0.908  10.947 -1.3140 -0.6561 -0.4516
11137TIP3    H254903   4.988   1.004  10.832  1.6034 -0.6722 -0.0760
11138TIP3   OH254904   3.652   0.986  11.540 -0.7255  0.1869 -0.1382
11138TIP3    H154905   3.735   1.020  11.507 -0.3286  0.9143  1.5041
11138TIP3    H254906   3.654   0.893  11.520  0.5741  0.1631  0.0163
11139TIP3   OH254907   0.129   4.259  14.477  0.1943  0.2468  0.4950
11139TIP3    H154908   0.136   4.165  14.466  1.5266  0.3024  0.6124
11139TIP3    H254909   0.191   4.279  14.548 -1.5508  0.9701  1.9046
11140TIP3   OH254910   6.708   2.453  12.364 -0.6049  0.1459 -0.0408
11140TIP3    H154911   6.707   2.366  12.405  1.4482 -0.9293 -2.0522
11140TIP3    H254912   6.644   2.503  12.414 -1.4670 -2.3399  1.5685
11141TIP3   OH254913   5.367   3.438   6.994  0.4319 -0.2167 -0.0580
11141TIP3    H154914   5.387   3.402   6.907  1.6558  1.3777 -0.4910
11141TIP3    H254915   5.272   3.450   6.993  0.4483 -0.0130 -1.2784
11142TIP3   OH254916   1.599   5.617   1.226  0.6186 -0.2336  0.4199
11142TIP3    H154917   1.677   5.673   1.232  0.2798  0.1170  1.8772
11142TIP3    H254918   1.585   5.607   1.132  0.4990  2.4275  0.0808
11143TIP3   OH254919   1.449   3.757  15.651  0.0931 -0.4219  0.4363
11143TIP3    H154920   1.438   3.711  15.567 -0.2051 -1.9645  1.2836
11143TIP3    H254921   1.385   3.828  15.648  0.5441 -0.0441 -0.9027
11144TIP3   OH254922   4.664   1.436   6.532  0.5245 -0.3840  0.9332
11144TIP3    H154923   4.595   1.426   6.466 -0.3118  0.2213  1.6824
11144TIP3    H254924   4.617   1.433   6.615  0.9879  2.7438  1.4475
11145TIP3   OH254925   4.782   0.895  12.829  0.1422  0.2275 -0.0410
11145TIP3    H154926   4.869   0.854  12.826  0.4899  0.9615 -0.2976
11145TIP3    H254927   4.791   0.966  12.892 -0.2564  0.3392 -0.1057
11146TIP3   OH254928   4.135   4.046   0.704  0.4665 -0.2843 -0.0957
11146TIP3    H154929   4.063   3.983   0.690  0.5705 -0.6885  1.1002
11146TIP3    H254930   4.126   4.108   0.631 -1.9202  0.4519  0.7326
11147TIP3   OH254931   2.078   3.304  13.561  0.1470 -0.2876 -0.1597
11147TIP3    H154932   2.168   3.298  13.593  0.3983 -1.2219 -0.9814
11147TIP3    H254933   2.033   3.230  13.601 -0.0611 -0.2691 -0.3560
11148TIP3   OH254934   4.003   4.183  13.203 -0.1414 -0.2112 -0.0058
11148TIP3    H154935   4.094   4.168  13.227 -0.5313  0.1154  1.9015
11148TIP3    H254936   3.980   4.266  13.244 -0.8709  0.5368 -1.8259
11149TIP3   OH254937   0.373   4.135   2.499 -0.0494 -0.2402  0.0453
11149TIP3    H154938   0.286   4.097   2.489  0.4533 -1.7721  1.1087
11149TIP3    H254939   0.408   4.138   2.410 -0.9038 -0.2921 -0.3073
11150TIP3   OH254940   5.139   3.665  17.108  1.1449 -0.5102 -0.4384
11150TIP3    H154941   5.202   3.685  17.177  0.6365 -0.3319 -0.0192
11150TIP3    H254942   5.191   3.664  17.028  1.5383  0.4633 -0.2088
11151TIP3   OH254943   4.753   1.415   2.898 -0.2232  0.2339  0.1364
11151TIP3    H154944   4.743   1.355   2.824 -0.2205  0.0863  0.2555
11151TIP3    H254945   4.795   1.363   2.966 -0.7030  0.2245  0.4257
11152TIP3   OH254946   2.490   2.097   1.751  0.2561 -0.8518  0.1503
11152TIP3    H154947   2.418   2.149   1.786  0.2745 -0.6460 -0.1164
11152TIP3    H254948   2.451   2.013   1.728  0.2289 -0.9616  0.5948
11153TIP3   OH254949   0.523   6.010  15.834  0.0244 -0.2543  0.5359
11153TIP3    H154950   0.551   5.979  15.920  0.1127  0.2669  0.6984
11153TIP3    H254951   0.433   6.040  15.848  0.3464  0.6737  0.6576
11154TIP3   OH254952   3.865   1.795   1.947  0.1442  0.5759 -0.0899
11154TIP3    H154953   3.957   1.775   1.935 -0.1139 -2.5298  2.0123
11154TIP3    H254954   3.822   1.761   1.869  0.3596 -2.4511  1.0028
11155TIP3   OH254955   3.642   5.462   3.727  0.3345 -0.8892 -0.2764
11155TIP3    H154956   3.699   5.525   3.771 -0.1066 -0.4356 -0.3494
11155TIP3    H254957   3.646   5.486   3.635 -1.7721  0.6379 -0.0415
11156TIP3   OH254958   5.756   4.220   3.595 -0.1567  0.3845 -0.2248
11156TIP3    H154959   5.799   4.141   3.627  0.1525  0.8493  0.5264
11156TIP3    H254960   5.666   4.214   3.628 -0.6002 -0.3929 -1.4669
11157TIP3   OH254961   5.940   3.555   5.884  0.3465 -0.0826 -0.0617
11157TIP3    H154962   5.982   3.510   5.957 -2.8940  0.1108  2.1239
11157TIP3    H254963   5.968   3.646   5.892  1.1588 -0.3307  0.0104
11158TIP3   OH254964   1.568   0.344   3.438  0.0704  0.3167 -0.1797
11158TIP3    H154965   1.600   0.317   3.352 -0.4947  0.4898 -0.4443
11158TIP3    H254966   1.612   0.285   3.499  1.4755  1.0143 -0.4678
11159TIP3   OH254967   6.784   0.929  15.697  0.3445  0.3715 -0.1566
11159TIP3    H154968   6.762   0.881  15.618 -0.0728 -0.1887  0.2915
11159TIP3    H254969   6.764   1.021  15.675 -1.6002  0.0076 -0.0981
11160TIP3   OH254970   5.258   3.713   3.513  0.0845 -0.5530 -0.0399
11160TIP3    H154971   5.221   3.722   3.601  0.4900 -2.8784  0.4349
11160TIP3    H254972   5.188   3.673   3.462 -0.5209  1.7068 -1.1361
11161TIP3   OH254973   5.878   1.828  16.526 -0.1886 -0.1808  0.2698
11161TIP3    H154974   5.903   1.738  16.543  0.8101 -0.0671 -0.4601
11161TIP3    H254975   5.855   1.864  16.612  0.4793 -0.8210  0.7299
11162TIP3   OH254976   4.927   4.092  13.949  0.1297 -0.0956 -0.3542
11162TIP3    H154977   5.016   4.065  13.924 -0.3863 -1.5527 -0.7761
11162TIP3    H254978   4.885   4.115  13.866  0.1267  0.6781 -0.1459
11163TIP3   OH254979   6.421   0.819  13.000  0.1994 -0.1030  0.3002
11163TIP3    H154980   6.402   0.745  13.058  1.2086 -0.3765  0.3024
11163TIP3    H254981   6.508   0.800  12.964 -0.2894  0.1816 -1.1213
11164TIP3   OH254982   4.362   3.406   6.674 -0.0588  0.0041 -0.1115
11164TIP3    H154983   4.307   3.483   6.660 -0.1325  0.0352  0.3297
11164TIP3    H254984   4.392   3.415   6.764  0.7498  0.0388 -0.3763
11165TIP3   OH254985   6.035   5.459  16.243  0.1738 -0.4843  0.4775
11165TIP3    H154986   5.951   5.498  16.216 -0.8126 -2.3017  0.7334
11165TIP3    H254987   6.032   5.461  16.338  1.2943  1.1297  0.5114
11166TIP3   OH254988   4.044   2.154   4.230  0.0455 -0.2660 -0.6358
11166TIP3    H154989   4.029   2.080   4.289  4.2840  0.2110  1.3684
11166TIP3    H254990   4.026   2.231   4.284 -0.7432  0.2293 -1.5757
11167TIP3   OH254991   6.677   6.224  14.154  0.2111  1.0100 -0.1636
11167TIP3    H154992   6.589   6.197  14.177 -0.3199  0.9034 -2.1009
11167TIP3    H254993   6.729   6.144  14.157  0.6195  1.3132  2.3953
11168TIP3   OH254994   0.093   6.172   0.736  0.4927  0.4629 -0.4247
11168TIP3    H154995  -0.002   6.184   0.741  0.5470  0.8850 -0.3532
11168TIP3    H254996   0.105   6.104   0.669  0.1111 -0.1354  0.0988
11169TIP3   OH254997   4.585   0.691  11.512  0.2644 -0.1178  0.4625
11169TIP3    H154998   4.532   0.722  11.586 -2.1156 -0.3905 -1.0244
11169TIP3    H254999   4.544   0.609  11.485  2.2214 -0.9978 -0.0584
11170TIP3   OH255000   1.222   4.050   0.940  0.5094 -0.0128 -0.3129
11170TIP3    H155001   1.230   3.961   0.906 -0.9693 -0.2561 -0.0989
11170TIP3    H255002   1.141   4.083   0.900 -0.1331  0.4438  1.3014
11171TIP3   OH255003   5.635   2.171  13.557  0.2216  0.1275  0.1326
11171TIP3    H155004   5.684   2.119  13.493 -1.4657  1.0153 -2.0256
11171TIP3    H255005   5.587   2.107  13.609 -0.5766 -0.5714 -1.4144
11172TIP3   OH255006   6.494   1.328  11.518  0.0383  0.3939  0.5132
11172TIP3    H155007   6.438   1.273  11.573  0.0238 -0.2499 -0.1232
11172TIP3    H255008   6.542   1.384  11.579  0.1316 -0.4045  1.1814
11173TIP3   OH255009   2.066   1.078   2.678 -0.1585 -0.3137  0.4326
11173TIP3    H155010   2.037   1.011   2.617  0.3265 -0.3370  0.2218
11173TIP3    H255011   2.161   1.068   2.681 -0.2918 -1.6982  2.7790
11174TIP3   OH255012   2.547   2.403  10.462 -0.2199  0.8789 -0.3223
11174TIP3    H155013   2.602   2.463  10.512  0.1291  0.7244 -0.5197
11174TIP3    H255014   2.457   2.429  10.484 -0.0695  1.0402  0.1067
11175TIP3   OH255015   0.677   2.641  16.627 -0.6261  0.1257 -0.6146
11175TIP3    H155016   0.597   2.616  16.580 -0.7548 -0.6318 -0.0125
11175TIP3    H255017   0.730   2.562  16.628 -0.8838 -0.0634  1.0282
11176TIP3   OH255018   3.965   3.994   2.851 -0.0317 -0.5577  0.5685
11176TIP3    H155019   3.893   3.944   2.812  2.1539 -0.9231 -3.5140
11176TIP3    H255020   3.929   4.027   2.934 -4.9616 -0.4556 -1.2818
11177TIP3   OH255021   5.438   4.692   3.096 -0.3533 -0.3057  0.0450
11177TIP3    H155022   5.410   4.625   3.159 -0.8269 -0.3111 -0.1711
11177TIP3    H255023   5.374   4.762   3.105 -1.6636 -1.1728 -1.8948
11178TIP3   OH255024   6.775   2.889  16.124 -0.1967 -0.4190  0.0129
11178TIP3    H155025   6.828   2.891  16.203 -0.2799  1.1804  0.0626
11178TIP3    H255026   6.815   2.954  16.066 -1.5123  0.1412 -0.3169
11179TIP3   OH255027   3.063   1.242  13.023 -0.4466  0.3660 -0.2857
11179TIP3    H155028   2.980   1.283  13.045 -0.0551  0.4752  1.0859
11179TIP3    H255029   3.127   1.313  13.023  0.1767 -0.1081  1.7874
11180TIP3   OH255030   4.264   0.508  16.964  0.0668  0.1731  0.0675
11180TIP3    H155031   4.196   0.552  17.014  1.7938  2.1656  0.8083
11180TIP3    H255032   4.285   0.568  16.893  0.0648 -1.0753 -1.0305
11181TIP3   OH255033   2.773   6.781   3.056  0.1125 -0.8665  0.3059
11181TIP3    H155034   2.824   6.854   3.022 -0.3149  0.4822  2.3759
11181TIP3    H255035   2.817   6.756   3.137 -0.7307 -1.7860  0.5082
11182TIP3   OH255036   0.171   3.839  16.966 -1.0037  0.3817  0.4661
11182TIP3    H155037   0.190   3.933  16.961  0.4535  0.2034  1.6728
11182TIP3    H255038   0.257   3.798  16.959 -1.5137 -0.8032  1.0154
11183TIP3   OH255039   5.866   3.104   2.563 -0.5664 -0.1549  0.5356
11183TIP3    H155040   5.895   3.195   2.559  0.2434 -0.4402 -0.6785
11183TIP3    H255041   5.771   3.109   2.574 -0.4309  0.8175  1.4417
11184TIP3   OH255042   1.204   1.929  15.621 -0.1719 -0.0490 -0.2530
11184TIP3    H155043   1.284   1.932  15.568 -0.4352 -0.2241 -0.6645
11184TIP3    H255044   1.200   2.016  15.662  0.6980 -0.3341  0.4858
11185TIP3   OH255045   0.075   0.139  10.784 -0.4769 -0.0055  1.0231
11185TIP3    H155046   0.093   0.045  10.787  0.1864  0.0242 -0.7781
11185TIP3    H255047   0.161   0.180  10.786 -0.7812  0.5981  2.3069
11186TIP3   OH255048   3.720   6.796  17.128 -0.4993 -0.3717 -0.4805
11186TIP3    H155049   3.743   6.884  17.159 -0.0543 -0.4358 -0.6232
11186TIP3    H255050   3.627   6.788  17.147 -0.5590  0.1582 -0.5185
11187TIP3   OH255051   4.783   3.709   2.487  0.2849 -0.5058  0.1566
11187TIP3    H155052   4.808   3.773   2.420  0.4575 -0.7775 -0.0394
11187TIP3    H255053   4.689   3.700   2.478  0.1612  0.2264  0.6338
11188TIP3   OH255054   6.421   6.000  14.006 -0.0034  0.3833 -0.1765
11188TIP3    H155055   6.392   6.030  14.092  0.3622 -0.3231  0.1992
11188TIP3    H255056   6.486   6.065  13.978  0.2832  0.3158  0.3294
11189TIP3   OH255057   6.792   3.030  11.297  0.1653  0.3092 -0.2763
11189TIP3    H155058   6.788   3.126  11.299  0.9766  0.3404  0.3286
11189TIP3    H255059   6.841   3.006  11.376  1.3221 -0.5222 -1.1964
11190TIP3   OH255060   2.915   3.544  12.522  0.2303 -0.3041 -0.7348
11190TIP3    H155061   2.993   3.493  12.498 -1.2161 -2.1809 -1.7175
11190TIP3    H255062   2.878   3.571  12.438 -0.1936  0.5449 -0.2815
11191TIP3   OH255063   5.241   0.366  13.330  0.1165 -0.9880  0.7285
11191TIP3    H155064   5.148   0.369  13.307  0.4229  1.9559 -0.5430
11191TIP3    H255065   5.253   0.438  13.391  1.8671  0.0001 -0.6723
11192TIP3   OH255066   4.342   6.007   3.591  0.3949 -0.1921  0.6560
11192TIP3    H155067   4.341   5.932   3.531  0.1147 -0.7255  1.3266
11192TIP3    H255068   4.424   5.998   3.639  0.2668 -0.1792  0.8770
11193TIP3   OH255069   4.142   4.776  16.537 -0.4745 -0.8568  0.2192
11193TIP3    H155070   4.207   4.792  16.605  0.7490 -0.5062 -0.9955
11193TIP3    H255071   4.076   4.845  16.550  0.8200  0.5190 -0.1979
11194TIP3   OH255072   1.707   2.193   6.192 -0.4858  0.3577  0.3228
11194TIP3    H155073   1.717   2.272   6.140 -3.1005  1.4281  1.2649
11194TIP3    H255074   1.707   2.224   6.283  3.3330 -1.3669  1.1118
11195TIP3   OH255075   2.705   5.951   1.893  0.1695  0.0711  0.7667
11195TIP3    H155076   2.793   5.989   1.889 -0.0139  0.5915  1.3772
11195TIP3    H255077   2.702   5.889   1.821  1.4000 -0.7216  1.3523
11196TIP3   OH255078   1.208   2.526   2.012  0.1899 -0.3463 -0.2144
11196TIP3    H155079   1.250   2.534   2.097  2.3413  4.0452 -1.3782
11196TIP3    H255080   1.119   2.558   2.025 -0.1830 -1.6743  0.6849
11197TIP3   OH255081   2.370   3.250  11.491  0.1982 -0.4125  0.1919
11197TIP3    H155082   2.443   3.312  11.501  0.7726 -1.0922  0.2498
11197TIP3    H255083   2.384   3.185  11.560 -1.6926  0.6293  1.6856
11198TIP3   OH255084   0.053   4.753  11.252  0.5551  0.1898 -0.5286
11198TIP3    H155085  -0.042   4.748  11.244  0.3671  0.1736  1.2584
11198TIP3    H255086   0.082   4.661  11.248  0.5858  0.2331 -1.6900
11199TIP3   OH255087   4.357   5.799   3.424 -0.3906 -0.0348  0.1751
11199TIP3    H155088   4.395   5.826   3.340 -0.1911  0.6042  0.4667
11199TIP3    H255089   4.272   5.762   3.401 -0.3134  0.0885 -0.3165
11200TIP3   OH255090   6.616   5.849  15.156  0.4253  0.4630 -0.4690
11200TIP3    H155091   6.554   5.871  15.225 -1.0602  0.3518 -1.6997
11200TIP3    H255092   6.686   5.802  15.200  1.9292  4.3198  1.6992
11201TIP3   OH255093   0.339   0.091   1.779 -0.6604 -0.5635  1.0985
11201TIP3    H155094   0.270   0.082   1.845 -1.2751 -0.3857  0.4909
11201TIP3    H255095   0.382   0.006   1.777  0.8175  0.0461  3.2860
11202TIP3   OH255096   5.545   4.122  13.117 -0.2409  0.0162 -0.0397
11202TIP3    H155097   5.531   4.200  13.169 -2.8412 -0.6453  0.4095
11202TIP3    H255098   5.566   4.054  13.181  0.3781 -0.0039 -0.2601
11203TIP3   OH255099   4.957   6.020   0.711 -0.0508  0.0908 -0.0525
11203TIP3    H155100   4.962   6.111   0.683  3.7263 -0.4258 -1.6383
11203TIP3    H255101   4.927   5.973   0.632  1.1317 -0.3495 -0.2516
11204TIP3   OH255102   0.306   2.287  15.895  0.2339 -0.4237  0.1874
11204TIP3    H155103   0.214   2.298  15.870  0.2562  0.6257  0.5261
11204TIP3    H255104   0.303   2.220  15.963 -0.2434 -0.6379 -0.0365
11205TIP3   OH255105   5.187   3.013   6.107  0.5629 -0.2389  0.2991
11205TIP3    H155106   5.174   2.924   6.074 -1.1249  0.7450 -1.9228
11205TIP3    H255107   5.104   3.037   6.147 -0.4825  1.6467 -2.6751
11206TIP3   OH255108   2.072   2.543  16.469 -0.4478  0.0631 -0.2485
11206TIP3    H155109   2.091   2.485  16.395 -2.0232 -0.3327 -0.3719
11206TIP3    H255110   2.056   2.629  16.430 -1.9882 -0.3011 -0.4677
11207TIP3   OH255111   6.569   6.300  16.433  0.3155  0.0282 -0.0041
11207TIP3    H155112   6.589   6.289  16.526  0.0360  0.9768  0.1730
11207TIP3    H255113   6.599   6.218  16.392 -0.4097 -0.7779  1.0502
11208TIP3   OH255114   6.699   4.085  17.295 -0.3750  0.1013  0.2709
11208TIP3    H155115   6.603   4.095  17.294 -0.3886  0.0029  0.6558
11208TIP3    H255116   6.727   4.135  17.372 -0.2410 -0.9707  0.9267
11209TIP3   OH255117   2.631   3.787   3.641 -0.0137 -0.3676  0.8399
11209TIP3    H155118   2.696   3.781   3.571 -0.9735  0.0204 -0.1252
11209TIP3    H255119   2.603   3.878   3.640 -0.0753 -0.3725  1.7104
11210TIP3   OH255120   2.061   4.128   5.689 -0.1467  0.5935  0.0271
11210TIP3    H155121   2.117   4.138   5.766  0.1686  0.8415 -0.2257
11210TIP3    H255122   2.120   4.097   5.621 -0.4115  0.4312 -0.1310
11211TIP3   OH255123   2.835   2.720  12.886 -0.7170 -0.7113 -0.6114
11211TIP3    H155124   2.786   2.801  12.901 -0.5695 -0.8197  0.5114
11211TIP3    H255125   2.927   2.745  12.896 -0.7179 -1.6664  3.5797
11212TIP3   OH255126   5.967   4.592  14.038  0.4181  0.0912  0.1440
11212TIP3    H155127   6.007   4.534  14.103 -1.2582 -1.1593  0.1298
11212TIP3    H255128   5.988   4.551  13.954  0.8153  0.5577  0.0121
11213TIP3   OH255129   0.949   2.475  15.730 -0.3190  0.2887  0.3255
11213TIP3    H155130   0.915   2.468  15.819  0.7014  1.6515  0.8673
11213TIP3    H255131   0.885   2.430  15.675 -2.1152  1.3158  1.4881
11214TIP3   OH255132   4.920   1.136   5.304  0.1471  0.0056 -0.1527
11214TIP3    H155133   4.997   1.118   5.356  1.7950  1.5726 -1.8949
11214TIP3    H255134   4.929   1.079   5.227 -2.6209 -2.8421  1.4090
11215TIP3   OH255135   4.829   2.134  11.187 -0.0171  0.2358  0.2485
11215TIP3    H155136   4.914   2.144  11.228  0.0385 -0.0571  0.2031
11215TIP3    H255137   4.771   2.106  11.258 -0.5823  2.5662  0.8035
11216TIP3   OH255138   1.574   3.172   2.069  0.1670 -0.1533  0.3485
11216TIP3    H155139   1.490   3.162   2.115  0.2906  0.7109  0.7722
11216TIP3    H255140   1.639   3.148   2.135  0.2527 -1.1818 -0.0886
11217TIP3   OH255141   2.914   1.285   5.312 -0.0943 -0.2350  0.1606
11217TIP3    H155142   2.920   1.370   5.355 -1.8543 -0.2331  0.4700
11217TIP3    H255143   3.005   1.256   5.304  0.3728  0.0148  3.3574
11218TIP3   OH255144   1.965   4.511  10.615  0.6720 -0.0647 -0.2330
11218TIP3    H155145   2.060   4.496  10.616  0.9712  1.5084 -1.5093
11218TIP3    H255146   1.936   4.472  10.532 -0.1326 -2.0441  0.8963
11219TIP3   OH255147   3.020   0.868   1.925  0.1733  0.0367  0.9716
11219TIP3    H155148   2.946   0.850   1.866  1.9042  0.5912 -1.5227
11219TIP3    H255149   3.033   0.786   1.972 -0.5991 -0.8231 -0.2454
11220TIP3   OH255150   6.716   1.841  16.369  0.3149 -0.7835 -0.0248
11220TIP3    H155151   6.702   1.750  16.342  0.4312 -0.5708 -0.8325
11220TIP3    H255152   6.795   1.868  16.322  0.4636 -0.3618  0.4561
11221TIP3   OH255153   0.195   1.402  11.672  0.7055  0.0545 -0.3116
11221TIP3    H155154   0.162   1.441  11.592  1.0658 -0.4112 -0.6940
11221TIP3    H255155   0.217   1.476  11.728 -1.2581  0.3726  0.0808
11222TIP3   OH255156   4.600   1.340   3.620  0.2804  0.4968  0.1510
11222TIP3    H155157   4.587   1.435   3.627  0.3901  0.4529  1.0269
11222TIP3    H255158   4.662   1.330   3.548  0.0531  1.0667 -0.1350
11223TIP3   OH255159   6.400   2.293   2.756 -0.3510 -0.1972  0.1434
11223TIP3    H155160   6.375   2.312   2.666 -0.4559 -0.5901  0.0912
11223TIP3    H255161   6.444   2.373   2.785  0.2236 -0.2969 -0.4460
11224TIP3   OH255162   2.841   0.991  14.623 -0.1741  0.1925 -0.3218
11224TIP3    H155163   2.769   1.044  14.588 -0.1475  1.1340  0.9727
11224TIP3    H255164   2.809   0.901  14.617 -0.9262  0.4910 -0.9708
11225TIP3   OH255165   1.302   1.201   5.578  0.2774  0.0783 -0.0471
11225TIP3    H155166   1.331   1.284   5.617  1.3809 -0.0511 -0.5428
11225TIP3    H255167   1.287   1.144   5.653 -0.5110  0.7263  0.3013
11226TIP3   OH255168   1.576   2.129   2.618  0.7185 -0.0397  0.0528
11226TIP3    H155169   1.645   2.063   2.611  1.0397  0.3855 -1.0623
11226TIP3    H255170   1.600   2.196   2.553 -1.4869 -0.5584 -1.4391
11227TIP3   OH255171   2.325   1.186  12.508 -0.3743 -0.0734 -0.2460
11227TIP3    H155172   2.405   1.235  12.492 -1.1474  0.7708 -1.6753
11227TIP3    H255173   2.262   1.252  12.540 -0.2300 -0.9103  1.9665
11228TIP3   OH255174   4.792   1.152   0.885 -1.1767 -0.2487 -0.3263
11228TIP3    H155175   4.816   1.063   0.860 -0.7632 -0.6996  1.5695
11228TIP3    H255176   4.697   1.149   0.895 -1.1235 -0.5745  0.0948
11229TIP3   OH255177   3.259   2.875  16.622 -0.4094 -0.1931  0.4217
11229TIP3    H155178   3.219   2.807  16.675  0.1662 -0.8868 -0.0228
11229TIP3    H255179   3.217   2.867  16.537  0.3490 -0.6417  0.0814
11230TIP3   OH255180   0.614   1.384  11.202  0.3991 -0.0795 -0.2950
11230TIP3    H155181   0.591   1.293  11.216 -1.4621  0.1455 -1.5842
11230TIP3    H255182   0.708   1.382  11.183  0.2103 -1.8419 -1.2489
11231TIP3   OH255183   3.217   4.396  12.202  0.5046 -0.3761 -0.6981
11231TIP3    H155184   3.194   4.326  12.141  0.7242 -0.0793 -1.1271
11231TIP3    H255185   3.142   4.401  12.262  0.2924 -0.6772 -0.9342
11232TIP3   OH255186   4.179   5.001   3.236  0.5952 -0.3947  0.2826
11232TIP3    H155187   4.132   4.970   3.313  0.6855  1.1941  1.0329
11232TIP3    H255188   4.255   4.943   3.228 -0.7679 -2.1664 -0.1677
11233TIP3   OH255189   1.301   2.629  10.914 -0.5624  0.0532  0.1649
11233TIP3    H155190   1.277   2.721  10.903  3.0932  1.0807 -0.9376
11233TIP3    H255191   1.240   2.595  10.979 -2.7351  2.9233 -0.1820
11234TIP3   OH255192   1.582   4.202   2.558 -1.0233 -0.3675  0.8349
11234TIP3    H155193   1.542   4.175   2.475  1.3784 -0.6421 -0.3006
11234TIP3    H255194   1.560   4.295   2.566  0.0978  0.0928 -0.9980
11235TIP3   OH255195   1.034   0.543  11.759  0.7725 -0.1452 -0.2897
11235TIP3    H155196   1.051   0.487  11.835  1.7823  0.1967 -0.2495
11235TIP3    H255197   0.940   0.536  11.745  0.3671  0.6701  1.7067
11236TIP3   OH255198   2.151   4.227  12.777 -0.0402 -0.4247  0.5590
11236TIP3    H155199   2.161   4.158  12.712 -0.2415  0.5567 -0.5586
11236TIP3    H255200   2.063   4.213  12.814 -0.1946 -0.6000  0.1301
11237TIP3   OH255201   3.941   0.852   2.229  0.3495 -0.3236  0.2296
11237TIP3    H155202   3.865   0.823   2.179  0.8618  0.8383 -1.3023
11237TIP3    H255203   3.997   0.775   2.236  0.0015 -0.6450 -0.4852
11238TIP3   OH255204   1.033   1.611  12.550 -0.0496 -0.2831  0.5243
11238TIP3    H155205   1.069   1.671  12.485 -0.2097 -0.2902  0.4303
11238TIP3    H255206   1.088   1.532  12.542  1.7960  0.7205  2.3690
11239TIP3   OH255207   2.403   6.769   1.785  0.0735 -0.6013  0.4530
11239TIP3    H155208   2.426   6.758   1.877  1.7647  0.6696  0.2379
11239TIP3    H255209   2.400   6.863   1.772 -0.2136 -0.7611 -0.7817
11240TIP3   OH255210   3.406   4.910  13.529  0.2995 -0.1164  0.0252
11240TIP3    H155211   3.337   4.875  13.473 -1.4020  1.4622  1.0465
11240TIP3    H255212   3.360   4.945  13.605  1.9754  3.0015 -0.2405
11241TIP3   OH255213   1.254   5.199   2.195  0.1417  0.0791 -0.2600
11241TIP3    H155214   1.192   5.266   2.166  0.9345  1.3248  0.7893
11241TIP3    H255215   1.233   5.186   2.288  2.5900  1.9458  0.6689
11242TIP3   OH255216   1.516   1.565  15.739 -0.0441 -0.6769  0.1757
11242TIP3    H155217   1.457   1.519  15.680 -0.5204 -1.4427  1.2120
11242TIP3    H255218   1.481   1.654  15.744  1.0865 -0.0260 -2.1220
11243TIP3   OH255219   5.995   1.733  13.382 -0.3975 -0.3519  0.1115
11243TIP3    H155220   6.066   1.788  13.350 -0.2332 -0.6954 -0.1186
11243TIP3    H255221   6.036   1.672  13.443 -0.1701 -1.6635 -1.2786
11244TIP3   OH255222   5.211   6.024   2.767 -0.2165 -0.3119 -0.0003
11244TIP3    H155223   5.150   5.980   2.708  0.9579  0.9758 -2.3116
11244TIP3    H255224   5.286   5.966   2.772 -0.0409 -0.1147 -0.3281
11245TIP3   OH255225   2.659   0.527   0.814 -0.6698 -0.5484 -0.7206
11245TIP3    H155226   2.602   0.452   0.798  0.2433 -1.6201  0.7576
11245TIP3    H255227   2.748   0.492   0.804 -0.2153  0.1729  0.5659
11246TIP3   OH255228   5.407   2.429  17.222 -0.1595  0.1768 -0.3545
11246TIP3    H155229   5.449   2.430  17.308  0.7199  1.3068 -0.7781
11246TIP3    H255230   5.317   2.455  17.239 -0.6658 -1.9036  0.5170
11247TIP3   OH255231   4.950   0.884   2.222  0.3136 -0.8581  0.0580
11247TIP3    H155232   4.882   0.904   2.286  0.4821  0.2663 -0.0797
11247TIP3    H255233   4.913   0.912   2.138  1.3050  0.8180  0.1136
11248TIP3   OH255234   2.337   6.020  12.205 -0.3627 -0.7630 -0.1484
11248TIP3    H155235   2.246   6.040  12.182 -0.0238  1.4413  0.1741
11248TIP3    H255236   2.336   6.013  12.300 -0.2789 -1.2442 -0.1817
11249TIP3   OH255237   3.310   4.701  16.722 -0.0932 -0.3934  0.6394
11249TIP3    H155238   3.234   4.646  16.742 -0.3915 -0.4181 -0.4975
11249TIP3    H255239   3.272   4.782  16.687  0.3372  0.5741  2.2912
11250TIP3   OH255240   2.772   1.308   2.536 -0.0475 -0.3426  0.3898
11250TIP3    H155241   2.830   1.295   2.461 -0.4528  1.7787 -0.3745
11250TIP3    H255242   2.831   1.338   2.606 -0.0869  1.2019 -0.1989
11251TIP3   OH255243   2.091   3.088   2.847 -0.2030  0.1165 -0.1508
11251TIP3    H155244   2.154   3.034   2.800 -1.8201 -0.6773 -1.5522
11251TIP3    H255245   2.033   3.026   2.890 -1.9390  0.6560 -1.5621
11252TIP3   OH255246   0.668   3.745   6.136  0.3794  0.0987 -0.6466
11252TIP3    H155247   0.722   3.671   6.107  0.3428  0.2669 -1.1615
11252TIP3    H255248   0.713   3.779   6.213 -0.6966 -1.7511  0.8948
11253TIP3   OH255249   5.303   0.866  12.867  0.0482 -0.4005  0.4411
11253TIP3    H155250   5.347   0.950  12.877  0.6314 -0.4743 -1.3115
11253TIP3    H255251   5.343   0.810  12.934 -0.3156  0.6694  1.5979
11254TIP3   OH255252   2.361   4.619  16.621 -0.2419  0.1270 -0.3387
11254TIP3    H155253   2.407   4.581  16.546 -1.5437  0.3452 -1.2882
11254TIP3    H255254   2.356   4.547  16.684 -0.5489 -0.5670 -1.1301
11255TIP3   OH255255   1.080   3.032  13.391  0.3937 -0.3864 -0.5051
11255TIP3    H155256   1.144   3.096  13.359 -0.7556  1.2105  0.2383
11255TIP3    H255257   1.030   3.008  13.313  1.1363 -0.7655 -0.8784
11256TIP3   OH255258   4.742   1.591  11.811 -0.2464 -0.3744 -0.1697
11256TIP3    H155259   4.716   1.499  11.811  0.0082 -0.4445 -0.3858
11256TIP3    H255260   4.687   1.631  11.744  1.4546 -0.8745 -1.9375
11257TIP3   OH255261   2.488   2.031  12.942  0.4314  0.1289  0.4917
11257TIP3    H155262   2.579   2.001  12.952  0.0843 -0.8633  0.8760
11257TIP3    H255263   2.479   2.102  13.006  0.4774 -0.9008  1.6860
11258TIP3   OH255264   5.964   2.315   5.372 -0.4533 -0.5346  0.1406
11258TIP3    H155265   6.006   2.231   5.393 -0.7797 -0.5068  0.9304
11258TIP3    H255266   5.885   2.291   5.323 -0.3675 -0.6697  0.0675
11259TIP3   OH255267   4.591   5.320  13.733 -0.2173  0.0195  0.3793
11259TIP3    H155268   4.497   5.332  13.728 -0.1191  0.3536 -1.4281
11259TIP3    H255269   4.621   5.324  13.642  1.9679  3.4362  1.0552
11260TIP3   OH255270   2.511   3.336   1.320  0.3694  0.0051 -0.8672
11260TIP3    H155271   2.439   3.275   1.308  0.3560  0.0643 -1.0905
11260TIP3    H255272   2.590   3.282   1.313  0.3564  0.0060 -1.0181
11261TIP3   OH255273   0.726   2.560  15.559  0.3697  0.5073  0.1164
11261TIP3    H155274   0.639   2.586  15.589  0.2698 -0.1333  0.3923
11261TIP3    H255275   0.712   2.478  15.512  1.0486 -0.5603  1.7042
11262TIP3   OH255276   4.401   4.418   0.721 -0.6245  0.6779  0.0278
11262TIP3    H155277   4.352   4.361   0.781 -0.4637  0.4711 -0.0377
11262TIP3    H255278   4.472   4.454   0.774 -0.5427  0.5746 -0.0115
11263TIP3   OH255279   6.226   2.970  11.835 -0.3240  0.5800 -0.0695
11263TIP3    H155280   6.168   3.032  11.790  0.4054  0.8246 -0.6955
11263TIP3    H255281   6.314   2.993  11.804 -0.1139 -1.3916 -1.0950
11264TIP3   OH255282   2.668   2.132   4.763 -0.1193  0.3293 -0.2597
11264TIP3    H155283   2.604   2.200   4.741 -0.9803  0.1558  1.5071
11264TIP3    H255284   2.660   2.122   4.858  0.5216 -1.7143 -0.3747
11265TIP3   OH255285   4.215   4.797   2.877  0.3259 -0.1120 -0.2816
11265TIP3    H155286   4.150   4.727   2.873 -0.2905  0.5063 -2.6159
11265TIP3    H255287   4.244   4.798   2.969 -1.9480 -1.2865  0.5146
11266TIP3   OH255288   2.565   3.237  15.005 -0.7889 -0.1707 -0.4772
11266TIP3    H155289   2.636   3.207  14.948 -1.2963  1.1530 -1.8860
11266TIP3    H255290   2.485   3.212  14.959 -1.2083  0.8606 -0.3371
11267TIP3   OH255291   1.787   3.622   0.911 -0.2080 -0.2829  0.4278
11267TIP3    H155292   1.808   3.547   0.855 -0.8183 -1.3110  1.5278
11267TIP3    H255293   1.872   3.658   0.937  0.0881 -0.4749 -0.2533
11268TIP3   OH255294   4.167   1.554   5.639  0.0028  0.4190 -1.0294
11268TIP3    H155295   4.243   1.511   5.599 -0.5015 -0.3534 -1.1757
11268TIP3    H255296   4.194   1.571   5.729 -0.2951 -1.5626 -0.5210
11269TIP3   OH255297   3.558   5.679   1.563  0.2487 -0.0775 -0.4251
11269TIP3    H155298   3.623   5.676   1.493  0.7213  2.2862 -0.1745
11269TIP3    H255299   3.601   5.726   1.634 -1.2219  0.2051  0.3238
11270TIP3   OH255300   3.667   1.006  16.569 -0.5711 -0.2115 -0.2948
11270TIP3    H155301   3.705   0.925  16.603 -0.2916 -1.0686 -2.4918
11270TIP3    H255302   3.572   0.991  16.571 -0.5130 -0.7201 -0.9147
11271TIP3   OH255303   0.445   5.663   1.865 -0.9168 -0.3082  0.2978
11271TIP3    H155304   0.481   5.582   1.829  0.6127  0.6304 -0.3702
11271TIP3    H255305   0.425   5.716   1.789 -0.2877  0.6026  0.7488
11272TIP3   OH255306   3.901   2.761  16.347 -0.2168  0.7802  0.0677
11272TIP3    H155307   3.810   2.747  16.318 -0.4591  2.5882 -0.1646
11272TIP3    H255308   3.902   2.730  16.437 -1.4767  2.0479  0.5618
11273TIP3   OH255309   0.293   3.954   4.660 -0.5786 -0.4132 -0.1122
11273TIP3    H155310   0.217   3.977   4.606 -0.9352 -1.3960 -0.0499
11273TIP3    H255311   0.366   3.952   4.598 -0.8504 -0.7817 -0.4331
11274TIP3   OH255312   0.674   0.484  13.917 -0.1620 -0.1166  1.0128
11274TIP3    H155313   0.614   0.534  13.863 -1.1020 -1.9370  0.2927
11274TIP3    H255314   0.758   0.528  13.907 -0.6262  0.4328 -0.8044
11275TIP3   OH255315   1.722   5.540  17.283  0.0279  0.0097 -0.5588
11275TIP3    H155316   1.636   5.574  17.308 -0.6488  0.0422 -2.7413
11275TIP3    H255317   1.782   5.579  17.347 -1.4649  0.6247  0.5336
11276TIP3   OH255318   1.148   5.861   3.360 -0.2351 -0.1570 -0.7760
11276TIP3    H155319   1.078   5.907   3.407  0.3627 -0.9069  0.9325
11276TIP3    H255320   1.102   5.817   3.288 -1.4215 -0.0143 -0.1436
11277TIP3   OH255321   4.889   1.254   4.001 -0.1246  0.3903  0.0867
11277TIP3    H155322   4.811   1.213   4.037 -1.4908  1.9358 -0.9489
11277TIP3    H255323   4.950   1.182   3.986 -1.9466 -1.0954 -0.5240
11278TIP3   OH255324   2.815   1.347  14.898  0.4569 -0.0222  0.2262
11278TIP3    H155325   2.742   1.300  14.857  1.3836 -0.9343 -0.4157
11278TIP3    H255326   2.850   1.286  14.962  1.0901  0.1537  0.0503
11279TIP3   OH255327   3.120   0.088  13.274  0.3239 -0.2824 -0.1462
11279TIP3    H155328   3.029   0.060  13.286 -0.1843  1.2422 -0.2468
11279TIP3    H255329   3.142   0.060  13.185  0.0320 -0.8312 -0.0521
11280TIP3   OH255330   4.131   3.250  17.223 -0.3074  0.1486 -0.1049
11280TIP3    H155331   4.103   3.160  17.239  0.6396 -0.3291 -1.0038
11280TIP3    H255332   4.196   3.267  17.291  0.3437 -0.2553 -0.6188
11281TIP3   OH255333   1.437   3.978  16.256 -0.1152  0.2400 -0.2075
11281TIP3    H155334   1.349   3.944  16.240  0.0633 -0.3115 -0.0355
11281TIP3    H255335   1.438   4.063  16.212 -0.3243 -0.2996 -1.2774
11282TIP3   OH255336   6.326   6.405   6.818  0.0058 -0.4335  0.0732
11282TIP3    H155337   6.377   6.332   6.850 -1.6464 -2.1739 -1.0453
11282TIP3    H255338   6.343   6.408   6.724 -1.4286 -0.6982 -0.2316
11283TIP3   OH255339   0.546   0.536  11.356 -0.2020  0.3822  0.1494
11283TIP3    H155340   0.611   0.508  11.291 -2.6349 -0.9462 -1.8792
11283TIP3    H255341   0.583   0.616  11.393  2.6746 -0.4201 -0.6863
11284TIP3   OH255342   0.598   4.253   3.762 -0.1767 -0.4577 -0.2772
11284TIP3    H155343   0.600   4.201   3.681  0.9832 -0.0140 -0.5497
11284TIP3    H255344   0.514   4.230   3.803 -0.3064 -1.4879 -1.0757
11285TIP3   OH255345   4.220   1.167   3.107  0.2949  0.0403  0.3297
11285TIP3    H155346   4.210   1.170   3.202  0.8360  0.3940  0.3823
11285TIP3    H255347   4.136   1.198   3.073 -0.4386 -1.4934  0.6540
11286TIP3   OH255348   5.470   3.453  14.428  0.7069 -0.2620 -0.2339
11286TIP3    H155349   5.500   3.536  14.465 -0.7418 -1.0249  2.9815
11286TIP3    H255350   5.375   3.453  14.442  0.2487 -1.3714 -2.6624
11287TIP3   OH255351   4.295   4.309   0.503  0.6600 -0.2008  0.2672
11287TIP3    H155352   4.367   4.263   0.460  1.9529  1.1200  0.9399
11287TIP3    H255353   4.336   4.361   0.571 -0.9211  0.7108  0.5957
11288TIP3   OH255354   0.978   2.534  17.405 -0.0532 -0.2836  0.2627
11288TIP3    H155355   0.986   2.601  17.337 -0.0533 -1.4187 -0.8941
11288TIP3    H255356   0.912   2.570  17.465  1.0826  1.4435  0.5631
11289TIP3   OH255357   0.269   3.492  12.491  0.3640  0.1011  0.0861
11289TIP3    H155358   0.346   3.545  12.469 -0.2297  0.3067 -1.7360
11289TIP3    H255359   0.199   3.556  12.502  0.5204 -0.0377  2.3580
11290TIP3   OH255360   0.533   0.657   1.009 -0.1732  0.1774 -0.3970
11290TIP3    H155361   0.605   0.595   1.006  1.2269  1.7578 -0.4332
11290TIP3    H255362   0.552   0.720   0.940 -1.9440  0.2850 -0.8498
11291TIP3   OH255363   2.028   3.779  13.528 -0.3550 -0.1445  0.0731
11291TIP3    H155364   1.934   3.764  13.520 -0.2561 -0.2858 -0.9559
11291TIP3    H255365   2.065   3.691  13.539 -0.2592 -0.1714 -0.4668
11292TIP3   OH255366   3.184   5.527  17.110  0.0115  0.5261 -0.0639
11292TIP3    H155367   3.215   5.602  17.058  0.2027 -0.3707 -1.2686
11292TIP3    H255368   3.143   5.567  17.187 -1.0371  1.9401 -1.2921
11293TIP3   OH255369   6.663   4.668  17.269 -0.0322  0.1565 -0.5466
11293TIP3    H155370   6.733   4.644  17.330 -0.4229  1.6041  0.5425
11293TIP3    H255371   6.653   4.592  17.213  0.2819 -1.2971  1.2675
11294TIP3   OH255372   5.114   0.171   4.075  0.3113 -0.1011  0.3241
11294TIP3    H155373   5.098   0.088   4.119 -1.3661  0.8619  1.6142
11294TIP3    H255374   5.080   0.159   3.986 -1.7987 -0.1855  1.1016
11295TIP3   OH255375   5.915   3.821  14.129  0.0826  0.1418 -0.1785
11295TIP3    H155376   5.852   3.755  14.101  0.0016 -0.3411  1.0658
11295TIP3    H255377   5.997   3.796  14.087 -0.2721  0.1041 -0.8727
11296TIP3   OH255378   1.808   6.056  11.104  0.1255  0.2933 -0.4370
11296TIP3    H155379   1.739   5.989  11.099  0.3112  0.1295 -0.9109
11296TIP3    H255380   1.816   6.088  11.014  0.4706  0.5161 -0.3296
11297TIP3   OH255381   6.710   6.169  17.044  0.6716 -0.3480  0.5518
11297TIP3    H155382   6.660   6.206  17.117  1.8844  0.9377  0.7600
11297TIP3    H255383   6.797   6.208  17.051  1.3632 -1.5971 -0.5228
11298TIP3   OH255384   2.011   6.440  10.263 -0.5375  0.3697  0.5614
11298TIP3    H155385   1.934   6.428  10.208  0.5972  0.9801 -1.2522
11298TIP3    H255386   2.058   6.357  10.257 -0.6184  0.2934  0.9668
11299TIP3   OH255387   1.184   2.547  15.833 -0.2513 -0.0055  0.0381
11299TIP3    H155388   1.098   2.563  15.794 -0.8873  0.6642  1.6248
11299TIP3    H255389   1.186   2.604  15.910  1.1571 -0.8741  0.6814
11300TIP3   OH255390   0.022   3.704   3.144 -0.1463  0.0288 -0.5046
11300TIP3    H155391   0.014   3.762   3.219  0.3066 -1.6345  0.8826
11300TIP3    H255392  -0.064   3.661   3.138 -0.3492  0.5137 -1.2845
11301TIP3   OH255393   2.980   3.461  13.958  0.1566  0.0051 -0.8700
11301TIP3    H155394   3.006   3.510  14.036 -1.7842 -0.0741 -0.1203
11301TIP3    H255395   2.897   3.500  13.931 -0.7067 -1.8787 -1.1282
11302TIP3   OH255396   0.957   4.078  16.904 -0.2465  0.0994 -0.4501
11302TIP3    H155397   0.884   4.099  16.962  0.9788 -1.0842  1.6252
11302TIP3    H255398   0.938   3.989  16.874 -1.9292  1.3829 -3.7054
11303TIP3   OH255399   6.317   4.393  13.066  0.3845 -0.0332  0.4033
11303TIP3    H155400   6.306   4.471  13.121  2.3675 -0.4441  1.4729
11303TIP3    H255401   6.254   4.330  13.101 -0.3265  0.6333  0.3643
11304TIP3   OH255402   4.149   3.507  11.456  0.1818  0.2403 -0.4136
11304TIP3    H155403   4.112   3.539  11.374  0.5322  0.2698 -0.5641
11304TIP3    H255404   4.222   3.451  11.429 -0.6905 -1.0557 -0.1718
11305TIP3   OH255405   3.918   5.115  14.416  0.3150  0.4885  0.3449
11305TIP3    H155406   3.852   5.131  14.348  0.0473  0.4947  0.6067
11305TIP3    H255407   3.868   5.081  14.490  0.6668 -0.0016  0.3672
11306TIP3   OH255408   3.870   3.897  15.228  0.3661 -0.4655 -0.0223
11306TIP3    H155409   3.848   3.908  15.135 -2.3725  2.3707  0.8072
11306TIP3    H255410   3.793   3.856  15.267  1.7617 -2.2823  0.9722
11307TIP3   OH255411   2.737   4.726  13.377 -0.3150 -0.2066 -0.5636
11307TIP3    H155412   2.768   4.657  13.318 -0.8604 -0.0411 -1.0444
11307TIP3    H255413   2.757   4.808  13.333 -2.1834 -0.0929 -1.3049
11308TIP3   OH255414   4.614   1.985  10.453  0.1866 -0.5671  0.0274
11308TIP3    H155415   4.654   1.899  10.444  1.1241 -0.0710 -0.8167
11308TIP3    H255416   4.523   1.972  10.426 -0.1038 -1.5921  1.4107
11309TIP3   OH255417   4.980   5.477  15.276  0.0182 -0.2422  0.2407
11309TIP3    H155418   4.905   5.461  15.219 -1.0860 -0.8309  1.7933
11309TIP3    H255419   5.038   5.402  15.261 -0.0046 -0.1335 -0.4538
11310TIP3   OH255420   1.079   2.540   6.190  0.5742 -0.3410 -0.0891
11310TIP3    H155421   1.104   2.560   6.100 -2.3682  0.8214 -0.7445
11310TIP3    H255422   1.075   2.444   6.193 -3.0194 -0.4506 -2.4813
11311TIP3   OH255423   0.783   5.466   1.248  0.5517  0.0761 -0.1704
11311TIP3    H155424   0.845   5.416   1.301  0.7624 -0.5583 -1.0019
11311TIP3    H255425   0.837   5.519   1.190  0.3535 -1.1087 -1.4895
11312TIP3   OH255426   1.538   6.043  16.038 -0.5287 -0.6359 -0.3719
11312TIP3    H155427   1.610   6.094  16.001  0.5677 -0.9747  1.1898
11312TIP3    H255428   1.531   5.966  15.982 -0.4762 -0.0326 -1.2256
11313TIP3   OH255429   6.525   6.419   5.437  0.0250  0.1618 -0.5866
11313TIP3    H155430   6.568   6.472   5.370 -0.8508  0.1847 -1.1456
11313TIP3    H255431   6.591   6.355   5.464  1.0050  1.3248 -0.1215
11314TIP3   OH255432   0.491   1.723  11.874  0.4349  0.8985 -0.6096
11314TIP3    H155433   0.505   1.817  11.862  0.1349  1.1559  0.8393
11314TIP3    H255434   0.550   1.700  11.946  0.3659  0.0152 -0.8338
11315TIP3   OH255435   0.894   1.338  12.289  0.6330 -0.0939  0.0671
11315TIP3    H155436   0.833   1.331  12.362  0.8625 -1.2674  0.1636
11315TIP3    H255437   0.981   1.325  12.328  1.3586  4.3527  0.4415
11316TIP3   OH255438   3.495   1.471   4.027  0.4541  0.3709  0.4124
11316TIP3    H155439   3.464   1.394   4.076  0.7449  0.1951  0.3251
11316TIP3    H255440   3.418   1.502   3.980  0.1885  0.5034  0.9296
11317TIP3   OH255441   6.294   2.987   3.144  0.2403 -0.5226  0.5516
11317TIP3    H155442   6.351   3.005   3.069 -1.7389  1.9270 -0.4886
11317TIP3    H255443   6.236   2.917   3.114  0.0235 -0.1589  0.1154
11318TIP3   OH255444   4.671   6.539   5.932  0.1841  0.3238  0.1112
11318TIP3    H155445   4.583   6.535   5.894 -0.2112  0.7171  0.9610
11318TIP3    H255446   4.660   6.589   6.012  1.1217  0.0416  0.4267
11319TIP3   OH255447   4.489   5.887  16.769  0.3837  0.1518 -0.2445
11319TIP3    H155448   4.421   5.831  16.807  1.6718 -1.3254 -0.0052
11319TIP3    H255449   4.557   5.890  16.836  1.0015  0.7308 -0.8883
11320TIP3   OH255450   0.959   0.615   5.095  0.0402  0.2730 -0.4467
11320TIP3    H155451   0.944   0.553   5.166  2.1181  2.0677  1.7580
11320TIP3    H255452   0.881   0.610   5.041 -1.3502 -1.6990  1.5930
11321TIP3   OH255453   4.069   0.969   5.010 -0.2557  0.5412 -0.0584
11321TIP3    H155454   3.999   0.916   5.047 -0.4306  0.9316  0.1761
11321TIP3    H255455   4.074   0.942   4.918  0.9794 -1.2917  0.4901
11322TIP3   OH255456   0.018   1.668  11.075 -0.1044 -0.4414  0.2800
11322TIP3    H155457   0.000   1.754  11.115 -0.9791 -1.1079  1.3952
11322TIP3    H255458   0.111   1.652  11.095 -0.1315 -0.0819  0.7310
11323TIP3   OH255459   1.099   2.282  16.372 -0.6949 -0.1827 -0.1120
11323TIP3    H155460   1.173   2.274  16.312 -0.4855 -1.3579  0.2668
11323TIP3    H255461   1.103   2.203  16.426 -1.3580  0.4446  0.9106
11324TIP3   OH255462   5.108   1.204   3.258 -0.7511 -0.6911  0.1133
11324TIP3    H155463   5.200   1.205   3.233  0.4039 -0.3143  3.7537
11324TIP3    H255464   5.096   1.119   3.300 -1.7230 -0.2723  0.7233
11325TIP3   OH255465   4.719   6.288   5.761  0.2393 -0.5260 -0.6406
11325TIP3    H155466   4.653   6.242   5.813  1.1886 -1.8411 -0.5540
11325TIP3    H255467   4.739   6.366   5.812  0.9365 -1.6474  0.8526
11326TIP3   OH255468   4.430   3.453  16.068 -0.3798 -0.2920  0.6141
11326TIP3    H155469   4.360   3.516  16.087 -0.1864  1.1727 -2.7836
11326TIP3    H255470   4.385   3.369  16.061 -1.5657  0.3733 -0.0166
11327TIP3   OH255471   0.760   2.794  14.879 -0.1023 -0.0127 -0.4874
11327TIP3    H155472   0.821   2.868  14.875  0.1560 -0.2479 -1.1333
11327TIP3    H255473   0.791   2.742  14.953  1.1605 -0.6913 -1.4512
11328TIP3   OH255474   5.124   2.613   2.952  0.2156 -0.0945  0.2532
11328TIP3    H155475   5.134   2.561   2.872 -0.5823 -2.2125  1.4375
11328TIP3    H255476   5.198   2.673   2.951 -0.2053  0.4970 -2.4422
11329TIP3   OH255477   5.869   1.166   0.357  0.0712  0.0086 -0.0290
11329TIP3    H155478   5.870   1.258   0.329  1.1917  0.4083  1.2098
11329TIP3    H255479   5.938   1.160   0.423 -2.1616 -0.9223  2.4147
11330TIP3   OH255480   3.922   6.173   2.669  0.1337 -0.6781 -0.0126
11330TIP3    H155481   3.988   6.159   2.737 -0.8194 -1.1817  0.8550
11330TIP3    H255482   3.854   6.109   2.690 -1.2688  0.7543 -0.0231
11331TIP3   OH255483   0.796   1.134   0.398  0.0000  0.2950  0.2602
11331TIP3    H155484   0.862   1.197   0.426 -1.9892  2.7099 -0.1316
11331TIP3    H255485   0.795   1.141   0.303 -1.1450  0.6636  0.2904
11332TIP3   OH255486   0.470   5.370  12.138 -0.3437  0.2721 -0.4932
11332TIP3    H155487   0.425   5.380  12.055  0.0563 -0.5366 -0.8161
11332TIP3    H255488   0.491   5.459  12.165 -0.6629  0.5495 -1.1572
11333TIP3   OH255489   4.750   6.538   2.573  0.0353  0.0897 -0.1063
11333TIP3    H155490   4.838   6.526   2.539  0.4258 -0.5395  1.0716
11333TIP3    H255491   4.716   6.615   2.526  1.8144  1.3758  0.5798
11334TIP3   OH255492   6.628   5.635   1.810 -0.2324 -0.1842  0.0869
11334TIP3    H155493   6.577   5.641   1.891 -0.0795  0.0445  0.1677
11334TIP3    H255494   6.693   5.705   1.818 -0.0908 -0.2902 -0.1445
11335TIP3   OH255495   3.332   1.378  12.420  0.5981  0.0167  0.5233
11335TIP3    H155496   3.238   1.356  12.422  0.3274  0.9125 -0.9438
11335TIP3    H255497   3.364   1.337  12.340  1.9361 -1.9070  1.9606
11336TIP3   OH255498   2.811   0.620  17.251 -0.1920 -0.6766  0.0381
11336TIP3    H155499   2.812   0.585  17.340  1.8026  0.1191  0.3668
11336TIP3    H255500   2.809   0.715  17.262 -3.4194 -0.5146 -0.8408
11337TIP3   OH255501   0.927   4.685  14.034 -0.4396 -0.0557  0.9394
11337TIP3    H155502   0.852   4.627  14.030  0.4880 -1.2333 -0.1167
11337TIP3    H255503   1.003   4.626  14.031  0.5289  1.1657  0.7313
11338TIP3   OH255504   1.553   4.300  16.641  0.1843 -0.3073 -0.1217
11338TIP3    H155505   1.539   4.207  16.622 -0.0070 -0.7888  2.0742
11338TIP3    H255506   1.502   4.346  16.575 -1.7744 -1.8345  0.2236
11339TIP3   OH255507   4.965   0.415   3.368 -0.4514 -0.0159 -0.1940
11339TIP3    H155508   4.949   0.406   3.462 -0.6947  0.1851 -0.2156
11339TIP3    H255509   5.017   0.338   3.345  1.3208  0.9184  0.4885
11340TIP3   OH255510   2.895   1.169  16.893  0.6352  0.6786  0.6887
11340TIP3    H155511   2.943   1.239  16.937  0.5793  0.7222  0.6794
11340TIP3    H255512   2.806   1.202  16.884  0.3480  0.2022  1.6015
11341TIP3   OH255513   0.619   5.464   0.192  0.5107  0.4595  0.3077
11341TIP3    H155514   0.524   5.456   0.186  0.7176 -1.3526 -1.1274
11341TIP3    H255515   0.637   5.554   0.165 -0.7330  0.5234 -0.3679
11342TIP3   OH255516   1.408   6.503  12.755  0.0516 -0.4447  0.2573
11342TIP3    H155517   1.360   6.576  12.716 -0.4943 -1.7451 -1.6841
11342TIP3    H255518   1.498   6.536  12.764 -0.3242  0.6785  0.0327
11343TIP3   OH255519   0.049   3.338   6.647 -0.0355  0.2215  0.0682
11343TIP3    H155520   0.104   3.401   6.600 -0.8799  1.6451  0.9101
11343TIP3    H255521   0.019   3.385   6.724 -0.0979 -1.4881  1.1353
11344TIP3   OH255522   4.837   3.121  14.092 -0.0019 -0.1892  0.0025
11344TIP3    H155523   4.798   3.185  14.033  0.8770 -0.5915 -1.0674
11344TIP3    H255524   4.928   3.150  14.102  0.5028 -1.3996 -0.7600
11345TIP3   OH255525   5.601   1.656   2.784  0.6794 -0.6151 -0.7666
11345TIP3    H155526   5.688   1.634   2.816  0.2605  0.1862  1.0175
11345TIP3    H255527   5.612   1.740   2.740  0.5345  0.3927  1.0297
11346TIP3   OH255528   0.964   5.521  12.253 -0.2561 -0.0922 -0.4265
11346TIP3    H155529   0.980   5.483  12.166  2.3361 -1.5700  0.5984
11346TIP3    H255530   1.051   5.532  12.291 -1.3051  0.7944  1.8976
11347TIP3   OH255531   1.236   5.227   2.792  0.0218  0.6397  0.0067
11347TIP3    H155532   1.260   5.319   2.782  0.3478  0.7783  1.8255
11347TIP3    H255533   1.319   5.180   2.786  0.0320  0.5952  0.4681
11348TIP3   OH255534   2.073   5.409   2.707 -0.1357  0.2096  0.1212
11348TIP3    H155535   2.044   5.480   2.763  0.2645 -0.7403  1.5917
11348TIP3    H255536   2.097   5.338   2.767  0.4290 -0.8202 -1.2380
11349TIP3   OH255537   2.366   3.842   0.030  0.0409 -0.2162  0.5200
11349TIP3    H155538   2.446   3.894   0.043  0.5771 -0.3254 -1.9772
11349TIP3    H255539   2.355   3.838  -0.065 -1.4919 -2.4243  0.7264
11350TIP3   OH255540   2.297   2.789   3.542  0.0809 -0.2075 -0.5782
11350TIP3    H155541   2.377   2.787   3.594 -0.1032  3.7128  0.1680
11350TIP3    H255542   2.228   2.807   3.605 -0.4670  2.3366 -1.7533
11351TIP3   OH255543   6.244   3.314  16.771  0.1717  0.9478  0.2646
11351TIP3    H155544   6.310   3.265  16.821 -1.4585 -0.8280  0.8133
11351TIP3    H255545   6.232   3.263  16.691  2.2432  3.3950 -1.7767
11352TIP3   OH255546   4.285   3.594   5.745 -0.3733 -0.5648 -0.3865
11352TIP3    H155547   4.281   3.690   5.748 -0.5682 -0.5694  1.9864
11352TIP3    H255548   4.334   3.570   5.824 -0.8952 -2.4457 -0.5804
11353TIP3   OH255549   0.940   0.869   0.303 -0.3367 -0.2059  0.5443
11353TIP3    H155550   1.031   0.895   0.319 -0.3654 -0.5963  1.4121
11353TIP3    H255551   0.889   0.948   0.320 -0.2583 -0.3001  1.2543
11354TIP3   OH255552   5.631   5.663  11.282  0.3754  0.2600 -0.7022
11354TIP3    H155553   5.666   5.670  11.194  0.3603  0.1324 -0.7197
11354TIP3    H255554   5.659   5.743  11.326  0.1607  0.4434 -0.9005
11355TIP3   OH255555   0.858   4.260   3.909  0.4905 -0.1049 -0.3306
11355TIP3    H155556   0.777   4.232   3.866 -0.2856  1.0118  0.3649
11355TIP3    H255557   0.882   4.185   3.964  0.5284 -0.8585 -1.3544
11356TIP3   OH255558   4.639   5.732  15.651 -0.0030  0.2888 -0.1875
11356TIP3    H155559   4.591   5.763  15.574  0.1551  0.3826 -0.2501
11356TIP3    H255560   4.574   5.726  15.720  0.1901  2.0043  0.1785
11357TIP3   OH255561   1.639   2.298   5.153 -0.1876 -0.5945  0.0682
11357TIP3    H155562   1.723   2.319   5.195 -1.1884 -0.4067  2.0754
11357TIP3    H255563   1.636   2.203   5.151 -0.1605 -0.6099  0.5424
11358TIP3   OH255564   3.425   2.712   0.120  0.1500  0.2108  0.0925
11358TIP3    H155565   3.452   2.722   0.029  2.0602  1.6331  0.7212
11358TIP3    H255566   3.341   2.757   0.126  0.1658  0.3866 -0.9076
11359TIP3   OH255567   3.185   4.144   3.635 -0.4449  0.2582 -0.1786
11359TIP3    H155568   3.160   4.061   3.675 -0.5290 -0.4195 -1.5826
11359TIP3    H255569   3.110   4.168   3.581  1.0926 -0.8485 -2.9795
11360TIP3   OH255570   0.943   3.712   1.335  0.3120 -0.3953 -0.2517
11360TIP3    H155571   1.004   3.743   1.402  0.5242 -2.6290  0.6747
11360TIP3    H255572   0.987   3.731   1.252  1.3283 -0.1220  0.3390
11361TIP3   OH255573   0.063   3.952   2.165 -0.4393  0.1021 -0.0264
11361TIP3    H155574   0.142   3.899   2.172 -0.6878 -0.4240 -1.0497
11361TIP3    H255575  -0.003   3.893   2.130 -1.7240  0.1269  2.1523
11362TIP3   OH255576   6.415   0.710  16.447  0.0069  0.2126  0.5602
11362TIP3    H155577   6.377   0.635  16.493 -1.1471  1.0910  1.1085
11362TIP3    H255578   6.345   0.741  16.389  0.3312  1.0690  0.6034
11363TIP3   OH255579   4.125   4.819   5.934 -0.2624 -0.3732  0.8855
11363TIP3    H155580   4.219   4.802   5.943 -0.4502 -0.3425  3.3748
11363TIP3    H255581   4.089   4.737   5.902  0.7103 -0.0444 -1.2501
11364TIP3   OH255582   6.684   5.408  12.208 -0.5280 -0.1097  0.1409
11364TIP3    H155583   6.630   5.363  12.143 -0.3522 -0.5627  0.3020
11364TIP3    H255584   6.644   5.495  12.217  0.4667  0.6236 -1.8656
11365TIP3   OH255585   2.736   4.763   0.534 -0.0315 -0.5639 -0.1461
11365TIP3    H155586   2.673   4.783   0.604  1.8072  0.2205  1.3946
11365TIP3    H255587   2.700   4.686   0.490 -2.4436  0.3183  0.1188
11366TIP3   OH255588   6.747   2.043   2.690  0.8924  0.3222 -0.6999
11366TIP3    H155589   6.694   2.120   2.670  0.9168  0.2347 -1.0977
11366TIP3    H255590   6.689   1.986   2.740  1.3360  1.2804  0.9928
11367TIP3   OH255591   2.095   1.382   5.202  0.0370  0.4455  0.1673
11367TIP3    H155592   2.063   1.303   5.158  1.4285  0.3122 -0.6654
11367TIP3    H255593   2.191   1.372   5.203  0.1147  0.2816  3.5614
11368TIP3   OH255594   1.220   0.303  13.955 -0.0224  0.1487  0.9028
11368TIP3    H155595   1.169   0.237  14.001  0.0821 -1.6093 -1.3399
11368TIP3    H255596   1.156   0.355  13.906 -0.0419  1.3668  2.1397
11369TIP3   OH255597   3.368   3.130  17.355 -0.0380 -0.2096  0.0434
11369TIP3    H155598   3.358   3.225  17.360 -0.2663 -0.2871  1.4530
11369TIP3    H255599   3.299   3.101  17.296  0.6476  0.5714 -1.1967
11370TIP3   OH255600   1.380   1.603  17.192 -0.0045  0.0280 -0.2242
11370TIP3    H155601   1.460   1.638  17.232  0.4174  2.1286 -2.6314
11370TIP3    H255602   1.392   1.508  17.195  1.6568  0.2141  1.1912
11371TIP3   OH255603   0.494   5.611  16.762 -0.1683 -0.2445 -0.4493
11371TIP3    H155604   0.426   5.590  16.699 -0.7059 -1.2576  0.4411
11371TIP3    H255605   0.446   5.648  16.837  0.3328 -0.2045 -0.1444
11372TIP3   OH255606   3.688   0.016  15.003 -0.2861  0.3044  0.4369
11372TIP3    H155607   3.690   0.049  15.092 -1.3109 -0.4935  0.7762
11372TIP3    H255608   3.600   0.034  14.972 -0.2824 -0.3935 -0.0229
11373TIP3   OH255609   5.616   5.097   4.051 -0.0882  0.5326  0.6751
11373TIP3    H155610   5.683   5.063   3.992  0.2457  1.8221  0.2676
11373TIP3    H255611   5.554   5.025   4.060  0.8231 -0.3379  0.2495
11374TIP3   OH255612   1.716   3.786  12.303 -0.5851 -0.0193 -0.8804
11374TIP3    H155613   1.794   3.839  12.284 -0.1796 -0.0075  0.7334
11374TIP3    H255614   1.701   3.797  12.396 -1.6725 -1.1909 -0.8918
11375TIP3   OH255615   2.502   0.283  16.767 -0.8596 -0.1528  0.1087
11375TIP3    H155616   2.542   0.235  16.694 -0.7865  0.3718 -0.1988
11375TIP3    H255617   2.428   0.329  16.729 -1.5310 -0.7905  0.5990
11376TIP3   OH255618   5.959   6.608   1.726 -0.8434  0.1097  0.3826
11376TIP3    H155619   5.925   6.529   1.767 -2.1185 -0.4730 -1.6435
11376TIP3    H255620   5.967   6.585   1.633  1.9706  1.3239  0.2396
11377TIP3   OH255621   5.295   1.584   4.209 -0.1678 -0.3759 -0.1381
11377TIP3    H155622   5.264   1.670   4.238  0.0500 -0.1091 -0.6726
11377TIP3    H255623   5.251   1.571   4.125  0.2389 -0.5283 -0.3290
11378TIP3   OH255624   1.047   5.988   3.085  0.0684 -0.6269  0.3957
11378TIP3    H155625   1.120   6.037   3.121  0.5300 -0.1707 -1.0769
11378TIP3    H255626   1.059   5.993   2.990 -2.7137  0.7752  0.0267
11379TIP3   OH255627   0.503   5.921  17.157 -0.1679 -0.7134 -0.0741
11379TIP3    H155628   0.443   5.889  17.224  0.0480  0.1712  0.5578
11379TIP3    H255629   0.502   6.016  17.167  0.6057 -0.6284 -0.6903
11380TIP3   OH255630   1.185   1.991  14.401  0.2639  0.1650  0.0249
11380TIP3    H155631   1.218   1.902  14.413 -0.2387  0.2197  2.1095
11380TIP3    H255632   1.227   2.021  14.320  0.2781 -2.0106 -0.8444
11381TIP3   OH255633   2.443   1.371  12.170 -0.0061  0.3357 -0.0875
11381TIP3    H155634   2.418   1.444  12.227 -0.3290 -0.5826  0.9902
11381TIP3    H255635   2.409   1.395  12.084 -1.6622  0.6781  0.6231
11382TIP3   OH255636   5.193   3.542   2.513 -0.0356  0.2938  0.0325
11382TIP3    H155637   5.232   3.483   2.577  0.2847  0.4399 -0.0281
11382TIP3    H255638   5.258   3.611   2.501 -1.0939  1.5747  1.3638
11383TIP3   OH255639   3.080   5.085  12.179  0.5634  0.5242 -0.2008
11383TIP3    H155640   3.023   5.015  12.210  0.3297  0.3776 -0.9339
11383TIP3    H255641   3.048   5.105  12.091  1.5628  0.5227 -0.5822
11384TIP3   OH255642   0.615   6.104   2.646  0.2479 -0.0025 -0.5649
11384TIP3    H155643   0.604   6.155   2.566 -0.2780 -1.8062 -1.6946
11384TIP3    H255644   0.527   6.074   2.668  0.7689 -2.1697 -1.1895
11385TIP3   OH255645   1.633   0.423  10.433 -0.3316 -0.5848  0.4679
11385TIP3    H155646   1.623   0.379  10.517  0.9988 -2.1206 -0.1177
11385TIP3    H255647   1.555   0.477  10.424 -1.2130 -1.5446  2.0137
11386TIP3   OH255648   4.876   4.705  13.871  0.0105  0.1839  0.3200
11386TIP3    H155649   4.846   4.728  13.960  0.7103  1.0139  0.3564
11386TIP3    H255650   4.972   4.704  13.878  0.0840  0.6504 -0.5102
11387TIP3   OH255651   3.106   5.660  17.384  0.2269 -0.2144  0.2405
11387TIP3    H155652   3.180   5.603  17.407 -0.3128 -0.4372  1.5317
11387TIP3    H255653   3.092   5.712  17.463  0.7597  1.8084 -0.9171
11388TIP3   OH255654   5.211   3.396  14.456  0.4775  1.0635 -0.2221
11388TIP3    H155655   5.247   3.315  14.419  0.5099  0.9326  0.0977
11388TIP3    H255656   5.135   3.367  14.507 -0.6706  1.4144 -1.6440
11389TIP3   OH255657   0.616   3.199  16.024 -0.2965 -0.4109  0.1543
11389TIP3    H155658   0.537   3.227  15.978 -1.1548 -1.0113  1.2051
11389TIP3    H255659   0.583   3.160  16.105  1.1527  0.8005  1.3837
11390TIP3   OH255660   4.485   3.564   1.894  0.1825 -0.7186  0.1707
11390TIP3    H155661   4.426   3.609   1.955 -0.2424 -1.9025  0.6611
11390TIP3    H255662   4.474   3.610   1.811  0.5861  0.7695  0.9048
11391TIP3   OH255663   5.720   5.990   1.623 -0.2853  0.4562 -0.3346
11391TIP3    H155664   5.649   5.982   1.687  1.7439  1.1065  2.1655
11391TIP3    H255665   5.725   6.083   1.604  0.2543  0.4971 -0.0213
11392TIP3   OH255666   2.743   5.194   2.474  0.8161 -0.0552  0.2954
11392TIP3    H155667   2.785   5.113   2.502  0.9527 -0.3621 -0.7621
11392TIP3    H255668   2.698   5.226   2.552  1.6593 -0.5766  1.0076
11393TIP3   OH255669   1.279   0.708  12.080  0.1496 -0.2474 -0.7673
11393TIP3    H155670   1.260   0.773  12.149 -0.4927 -0.7633 -0.4352
11393TIP3    H255671   1.374   0.708  12.072  0.2296 -0.1197  0.0748
11394TIP3   OH255672   3.815   4.590   1.803  0.3066  0.3031 -0.5225
11394TIP3    H155673   3.794   4.639   1.882  0.4347 -0.0541 -0.2692
11394TIP3    H255674   3.730   4.564   1.767  0.2731 -0.1523 -0.1177
11395TIP3   OH255675   6.507   4.266  15.101  0.0440 -0.3423  0.3389
11395TIP3    H155676   6.502   4.200  15.031  4.1774  1.0101 -1.5447
11395TIP3    H255677   6.521   4.215  15.181  2.3361 -1.8904 -0.9365
11396TIP3   OH255678   0.776   5.904  12.685  0.0309 -0.1637  0.1007
11396TIP3    H155679   0.836   5.839  12.648 -0.1909  1.3484 -3.2965
11396TIP3    H255680   0.796   5.985  12.638 -4.1915  0.5916 -0.8504
11397TIP3   OH255681   1.330   0.401   3.582  0.3825 -0.0097  0.3098
11397TIP3    H155682   1.355   0.346   3.656 -0.9453 -0.8704  0.1412
11397TIP3    H255683   1.408   0.403   3.527  0.6641 -1.1770  0.6468
11398TIP3   OH255684   3.423   1.768  10.559  0.2672  0.0136  0.1924
11398TIP3    H155685   3.474   1.768  10.478  0.0918  0.5696  0.0816
11398TIP3    H255686   3.332   1.759  10.531  0.1744  0.5714  0.3063
11399TIP3   OH255687   2.491   2.178  17.159 -0.0679 -0.2143  0.3141
11399TIP3    H155688   2.527   2.256  17.201 -0.4607 -0.1473  0.5376
11399TIP3    H255689   2.567   2.133  17.123  0.1850  0.1669  0.3584
11400TIP3   OH255690   2.037   3.500  17.317  0.3600  0.4109 -0.0305
11400TIP3    H155691   1.974   3.568  17.339 -3.1674 -2.5132 -0.1620
11400TIP3    H255692   2.095   3.495  17.392 -0.4955  2.2129  0.8083
11401TIP3   OH255693   4.942   2.877  11.628  0.0481 -0.1714 -0.1801
11401TIP3    H155694   4.875   2.925  11.579  1.8532  3.5842  0.6627
11401TIP3    H255695   5.013   2.940  11.639  1.3411 -2.0170  3.9310
11402TIP3   OH255696   1.551   5.250  11.494  0.1499 -0.0269 -0.0642
11402TIP3    H155697   1.465   5.293  11.488  0.8255  1.1755 -1.9654
11402TIP3    H255698   1.531   5.158  11.507 -1.5372 -0.1582 -2.9458
11403TIP3   OH255699   3.836   4.601   3.133 -0.0924  0.0183 -0.4152
11403TIP3    H155700   3.798   4.640   3.212 -0.2924 -0.6270 -0.1836
11403TIP3    H255701   3.928   4.627   3.136 -0.1528  0.1996 -0.0945
11404TIP3   OH255702   0.736   5.263  11.351 -0.1664 -0.0180 -0.2067
11404TIP3    H155703   0.754   5.352  11.380  0.9601 -0.1403 -0.5129
11404TIP3    H255704   0.644   5.266  11.324 -0.6626  0.5960  1.4244
11405TIP3   OH255705   5.682   1.376  14.251  0.4046  0.0486  0.0558
11405TIP3    H155706   5.591   1.406  14.256  0.3741  0.3576 -1.6519
11405TIP3    H255707   5.689   1.336  14.164  1.7808 -0.4173  0.3540
11406TIP3   OH255708   2.026   5.409  14.196  0.1157 -0.2620  0.5082
11406TIP3    H155709   2.091   5.370  14.253 -1.0598 -0.7602  1.5624
11406TIP3    H255710   2.057   5.498  14.181  1.3454 -0.6813  0.4518
11407TIP3   OH255711   1.733   2.846   3.484 -0.0425  0.6262  0.2337
11407TIP3    H155712   1.755   2.758   3.453  0.7090  0.4576  1.1915
11407TIP3    H255713   1.816   2.881   3.516 -0.4111  1.5550  0.2004
11408TIP3   OH255714   4.170   3.722  14.975 -0.2644  0.0573  0.5969
11408TIP3    H155715   4.201   3.750  15.062  0.3070 -0.8672  0.6992
11408TIP3    H255716   4.163   3.804  14.925  0.9318  0.4466  1.0305
11409TIP3   OH255717   5.932   1.148  16.181  0.2154 -0.6173 -0.0343
11409TIP3    H155718   6.013   1.198  16.191  0.4275 -0.9601  0.0033
11409TIP3    H255719   5.884   1.165  16.262 -0.9814  1.7242 -1.1483
11410TIP3   OH255720   5.528   3.970  14.485  0.5783  0.2213 -0.5423
11410TIP3    H155721   5.498   3.955  14.575 -1.7361 -0.1700 -1.3237
11410TIP3    H255722   5.550   3.882  14.453  0.4791  0.2371 -0.6549
11411TIP3   OH255723   2.773   3.686   0.717 -0.4671 -0.3328 -0.4994
11411TIP3    H155724   2.865   3.697   0.695  0.0401  0.3710  1.7022
11411TIP3    H255725   2.726   3.742   0.656  0.7485  0.8220 -0.4091
11412TIP3   OH255726   2.836   1.097  13.398  0.0081  0.2734 -0.0433
11412TIP3    H155727   2.803   1.172  13.348  1.0717  1.6950  1.2891
11412TIP3    H255728   2.905   1.061  13.343 -1.5455 -0.7436 -1.4011
11413TIP3   OH255729   3.631   4.055   1.554 -0.1881  0.1885 -0.4362
11413TIP3    H155730   3.725   4.071   1.546 -0.4944  1.2728 -2.7363
11413TIP3    H255731   3.623   3.994   1.627  2.4504 -1.2777 -1.2339
11414TIP3   OH255732   6.588   1.743   0.921 -0.3716  0.5325 -0.4058
11414TIP3    H155733   6.645   1.700   0.858 -0.2440 -0.5630  0.4243
11414TIP3    H255734   6.603   1.836   0.908  1.3368  0.2762 -0.4759
11415TIP3   OH255735   2.440   3.283  12.429 -0.9962  0.1348 -0.9852
11415TIP3    H155736   2.528   3.266  12.394 -0.4796  1.6868 -0.5047
11415TIP3    H255737   2.404   3.196  12.445 -0.0923 -0.5683 -2.4967
11416TIP3   OH255738   4.018   6.176  14.709  0.3904  0.0797  0.1049
11416TIP3    H155739   4.048   6.147  14.795  2.6649 -0.0057 -0.6623
11416TIP3    H255740   4.017   6.097  14.656 -2.9971 -0.2814  0.4575
11417TIP3   OH255741   0.190   2.113   5.592 -0.1381 -0.4405  0.3432
11417TIP3    H155742   0.205   2.103   5.686  1.5131  0.9850  0.2802
11417TIP3    H255743   0.186   2.208   5.579  0.6031 -0.5941 -1.1501
11418TIP3   OH255744   2.129   0.078   3.523 -0.1130  0.1508 -0.4457
11418TIP3    H155745   2.179   0.130   3.459 -1.0818  0.2327 -1.1644
11418TIP3    H255746   2.138   0.127   3.605  1.5955 -0.2366 -0.3602
11419TIP3   OH255747   0.983   6.031   4.357 -0.6762  0.6709  0.1238
11419TIP3    H155748   0.947   5.960   4.305 -0.9843  0.8578  0.0828
11419TIP3    H255749   0.994   5.994   4.445 -2.7442  1.1567  0.6239
11420TIP3   OH255750   5.774   2.310  17.305 -0.0145 -0.1527 -0.1573
11420TIP3    H155751   5.769   2.235  17.246 -0.2921  0.7716 -1.3351
11420TIP3    H255752   5.707   2.370  17.273  1.3450  1.3403 -0.2908
11421TIP3   OH255753   2.794   3.480  15.641  0.8274 -0.3106  0.2784
11421TIP3    H155754   2.759   3.567  15.624  3.0434  0.1927 -2.3634
11421TIP3    H255755   2.756   3.455  15.725 -1.1698  2.4857  0.3389
11422TIP3   OH255756   5.206   6.333   3.742 -0.0613  0.2046 -0.2039
11422TIP3    H155757   5.264   6.364   3.672 -0.1339 -1.5206 -1.0816
11422TIP3    H255758   5.261   6.332   3.820  0.9741 -0.9226 -0.9214
11423TIP3   OH255759   6.437   6.765   3.023 -0.1326 -0.3422  0.0151
11423TIP3    H155760   6.475   6.684   2.988  1.1293  0.1763  0.1468
11423TIP3    H255761   6.357   6.779   2.971  0.6980 -0.6113 -1.3627
11424TIP3   OH255762   0.773   4.438   0.067 -0.3042 -0.1233 -0.4100
11424TIP3    H155763   0.782   4.523   0.025 -2.6505  0.6244  0.4442
11424TIP3    H255764   0.764   4.376  -0.006  0.4720  0.4788 -1.0280
11425TIP3   OH255765   3.854   1.095   6.214 -0.3463  0.0213 -0.2600
11425TIP3    H155766   3.781   1.137   6.260 -1.5405 -2.1731  0.0238
11425TIP3    H255767   3.892   1.036   6.280  1.1375  0.4567 -0.6822
11426TIP3   OH255768   0.316   4.632   5.761  0.3966 -0.1011 -0.1583
11426TIP3    H155769   0.221   4.629   5.751  0.2264 -0.4130  1.2976
11426TIP3    H255770   0.350   4.625   5.672 -0.9622  1.4410 -0.8495
11427TIP3   OH255771   4.781   1.187   6.968  0.3312 -0.1486  0.0935
11427TIP3    H155772   4.810   1.259   6.912  3.6381 -1.3854 -0.0544
11427TIP3    H255773   4.739   1.125   6.909 -0.4637  0.6401 -0.1732
11428TIP3   OH255774   1.907   2.682   4.229  0.0217 -0.7074  0.4798
11428TIP3    H155775   1.900   2.590   4.252  0.9233 -0.3087  2.6130
11428TIP3    H255776   1.976   2.685   4.162  0.7818 -1.4806  1.2050
11429TIP3   OH255777   3.010   3.899  16.185 -0.2214 -0.5092  0.0083
11429TIP3    H155778   3.075   3.865  16.124  0.0243 -1.3306  0.7049
11429TIP3    H255779   3.060   3.924  16.263 -0.3984  1.5543 -0.5107
11430TIP3   OH255780   3.015   6.459   3.653  0.1171  0.3807 -0.2912
11430TIP3    H155781   3.107   6.436   3.670 -0.0108  0.5634  0.7262
11430TIP3    H255782   3.013   6.482   3.560  1.1535  0.6073 -0.2735
11431TIP3   OH255783   5.895   0.836   2.172 -0.3728  0.3316 -0.2277
11431TIP3    H155784   5.822   0.774   2.166 -0.3887  0.4871 -2.6411
11431TIP3    H255785   5.857   0.919   2.144  0.9049  0.1756 -2.7527
11432TIP3   OH255786   0.668   0.315   5.281 -0.0888 -0.2116  0.1751
11432TIP3    H155787   0.753   0.358   5.290 -0.1820 -0.0144  0.1265
11432TIP3    H255788   0.607   0.373   5.327 -0.1356 -0.5473  0.5500
11433TIP3   OH255789   6.133   1.028   2.264  0.1821 -0.6652  0.5820
11433TIP3    H155790   6.110   0.937   2.282 -2.8713 -0.3103 -0.8711
11433TIP3    H255791   6.092   1.047   2.180 -0.4801  2.4319  1.4761
11434TIP3   OH255792   6.425   2.674  14.359  0.0635  0.7736 -0.0172
11434TIP3    H155793   6.411   2.766  14.384  0.5287  0.6730  0.6395
11434TIP3    H255794   6.399   2.624  14.437  3.1816  0.5293  1.0085
11435TIP3   OH255795   4.796   0.091   2.634 -0.0767 -0.0623 -0.2489
11435TIP3    H155796   4.754   0.033   2.571  3.2491 -0.6778 -2.1144
11435TIP3    H255797   4.775   0.179   2.602 -1.1752 -0.2962 -0.2183
11436TIP3   OH255798   3.323   4.340   4.444 -0.0977 -0.1064 -0.7493
11436TIP3    H155799   3.298   4.346   4.352 -0.5874 -0.2471 -0.6286
11436TIP3    H255800   3.277   4.262   4.477 -1.4775  0.9936  0.0864
11437TIP3   OH255801   6.667   6.369   2.283  0.0584 -0.4181  0.0241
11437TIP3    H155802   6.646   6.392   2.374 -0.0900  2.1111 -0.5593
11437TIP3    H255803   6.610   6.425   2.230  2.7527  1.0758 -1.5782
11438TIP3   OH255804   0.103   5.957   6.188 -0.0498  0.2561 -0.0587
11438TIP3    H155805   0.144   6.039   6.216  1.1615 -0.1216 -0.6215
11438TIP3    H255806   0.169   5.916   6.131  0.5328 -2.3592  2.2840
11439TIP3   OH255807   2.281   4.982   4.161  0.7527 -0.2786 -0.2803
11439TIP3    H155808   2.249   4.899   4.196 -1.1517 -0.4587 -2.2639
11439TIP3    H255809   2.219   5.048   4.193 -0.1501 -0.2440 -2.0206
11440TIP3   OH255810   5.791   3.433  13.044 -0.1310 -0.1888  0.0526
11440TIP3    H155811   5.851   3.363  13.016  0.8605  1.0417 -1.0323
11440TIP3    H255812   5.762   3.473  12.963 -0.5214  0.7979  0.6687
11441TIP3   OH255813   0.402   6.576  11.932 -0.8486 -0.5154  0.3041
11441TIP3    H155814   0.465   6.511  11.902 -0.8130 -0.4050  0.1360
11441TIP3    H255815   0.370   6.542  12.016 -0.1366 -0.2837  0.6772
11442TIP3   OH255816   4.907   4.778  14.879  0.8785  0.3803 -0.2761
11442TIP3    H155817   4.915   4.755  14.787  2.1807 -0.9166  0.1377
11442TIP3    H255818   4.997   4.795  14.908  0.2726  3.8792  0.0424
11443TIP3   OH255819   3.787   3.403  15.672  0.0309 -0.1156  0.4153
11443TIP3    H155820   3.841   3.377  15.596 -0.8316 -1.3209  0.1782
11443TIP3    H255821   3.801   3.332  15.735 -0.6762 -0.0439  0.6497
11444TIP3   OH255822   0.798   3.562   1.859 -0.3470  0.4957  0.3792
11444TIP3    H155823   0.855   3.582   1.786 -0.8039 -0.0009 -0.1238
11444TIP3    H255824   0.732   3.504   1.823  0.3026 -1.0336  1.5158
11445TIP3   OH255825   4.520   3.633   2.460  0.3069  0.0260 -0.0234
11445TIP3    H155826   4.468   3.571   2.408  1.3399  0.0869 -1.1616
11445TIP3    H255827   4.461   3.708   2.472 -0.4325 -0.5560  0.1009
11446TIP3   OH255828   4.770   5.178  16.247 -0.2566 -0.3727 -0.0761
11446TIP3    H155829   4.683   5.214  16.261 -0.4370 -0.7043 -0.3255
11446TIP3    H255830   4.785   5.185  16.153 -0.2851 -0.9047 -0.1272
11447TIP3   OH255831   2.665   3.514   2.441  0.4670 -0.1987  0.3585
11447TIP3    H155832   2.632   3.534   2.529  0.5548 -1.6433  0.7494
11447TIP3    H255833   2.590   3.475   2.395  0.3547  0.7680 -0.2953
11448TIP3   OH255834   5.841   0.892  11.470 -0.3573 -0.1531 -0.2134
11448TIP3    H155835   5.774   0.957  11.450  0.5810  1.0850  0.4819
11448TIP3    H255836   5.793   0.817  11.505 -1.4289  0.3355 -0.6070
11449TIP3   OH255837   1.523   2.255  16.391  0.7118  0.2477 -0.1654
11449TIP3    H155838   1.513   2.173  16.439  1.2116  0.8338  1.0055
11449TIP3    H255839   1.613   2.253  16.358  1.1764  0.8689  0.9960
11450TIP3   OH255840   4.301   4.002  15.717 -0.2717  0.1523  0.4041
11450TIP3    H155841   4.213   4.028  15.744  0.3957  0.2632  2.6091
11450TIP3    H255842   4.338   4.081  15.678 -0.6055  0.5627  0.9058
11451TIP3   OH255843   0.988   0.269   3.688  0.3125 -0.0001 -0.7190
11451TIP3    H155844   0.919   0.213   3.723  2.5349 -3.0812 -0.7674
11451TIP3    H255845   1.069   0.229   3.720  2.1262  2.9389 -1.3016
11452TIP3   OH255846   2.493   1.891   3.739  0.0261 -0.2332  0.0809
11452TIP3    H155847   2.457   1.909   3.652 -0.0444 -0.4142  0.0709
11452TIP3    H255848   2.492   1.795   3.746  0.5990 -0.2443  0.0432
11453TIP3   OH255849   1.092   1.726  13.570  0.3549 -0.1181 -0.4467
11453TIP3    H155850   1.026   1.702  13.634  1.1088 -1.6973 -0.2023
11453TIP3    H255851   1.043   1.759  13.495 -0.6623 -0.4398  0.0653
11454TIP3   OH255852   0.128   0.759   1.229 -0.0537 -0.0647  0.0891
11454TIP3    H155853   0.177   0.720   1.156 -0.2281 -2.9989  1.3852
11454TIP3    H255854   0.188   0.823   1.267 -0.0688  1.7842 -2.7279
11455TIP3   OH255855   5.521   0.600  15.768 -0.1176 -0.7207 -0.0263
11455TIP3    H155856   5.512   0.536  15.698  1.1485 -0.8964 -0.0534
11455TIP3    H255857   5.561   0.551  15.840 -0.8153 -0.3895  0.6019
11456TIP3   OH255858   3.467   5.278   3.869 -0.3385 -0.2949 -0.0823
11456TIP3    H155859   3.433   5.327   3.944 -1.8028 -1.3260 -0.0303
11456TIP3    H255860   3.520   5.341   3.821  1.7609  0.0819  2.4736
11457TIP3   OH255861   0.789   6.220   5.117 -0.5209 -0.8260  0.5562
11457TIP3    H155862   0.731   6.167   5.172 -1.6528  0.1875  0.3660
11457TIP3    H255863   0.822   6.288   5.176 -1.8652  0.3635  0.0039
11458TIP3   OH255864   0.216   0.234   1.291  0.0199 -0.4336 -0.7183
11458TIP3    H155865   0.227   0.249   1.385  2.3673  0.5532 -1.0805
11458TIP3    H255866   0.147   0.295   1.265 -0.4880 -0.5459  0.2990
11459TIP3   OH255867   6.701   1.571   1.089 -0.3073  0.1228  0.8992
11459TIP3    H155868   6.672   1.620   1.011  3.6728  1.3651 -0.0237
11459TIP3    H255869   6.704   1.637   1.158  1.5621  0.4229  0.5812
11460TIP3   OH255870   3.227   1.178   0.085  0.2163 -0.1118 -0.0572
11460TIP3    H155871   3.155   1.239   0.104 -0.1148 -0.8555  1.1709
11460TIP3    H255872   3.192   1.092   0.108  0.9158 -0.7056 -1.1356
11461TIP3   OH255873   1.192   3.963   5.492 -0.6597  0.1564 -0.3311
11461TIP3    H155874   1.149   4.033   5.442  0.1494 -0.2054 -1.5801
11461TIP3    H255875   1.183   3.885   5.438  0.4976 -0.1926 -0.0504
11462TIP3   OH255876   2.125   2.530  14.945 -0.2323 -0.1053 -0.5518
11462TIP3    H155877   2.066   2.583  14.892 -1.2767 -1.3832 -0.7286
11462TIP3    H255878   2.077   2.449  14.961 -0.4888  0.5834  3.3271
11463TIP3   OH255879   0.826   2.967  14.536  0.6612 -0.0072  0.4218
11463TIP3    H155880   0.876   2.955  14.456  1.3196  0.5112  0.7384
11463TIP3    H255881   0.749   3.018  14.509  0.9501  0.2878  0.1373
11464TIP3   OH255882   6.082   5.809   5.758 -0.1208  0.2395 -0.0644
11464TIP3    H155883   6.057   5.887   5.707 -2.0170 -1.6482 -2.3192
11464TIP3    H255884   5.998   5.775   5.790  0.4133 -1.8724 -0.7825
11465TIP3   OH255885   3.790   2.039  10.584 -0.1537  0.3962  0.2364
11465TIP3    H155886   3.701   2.041  10.618 -1.3292 -3.8501 -1.8894
11465TIP3    H255887   3.814   1.947  10.583  3.9952  1.2561 -0.1559
11466TIP3   OH255888   5.432   2.286   4.549  0.2530  0.3361 -0.2872
11466TIP3    H155889   5.498   2.249   4.491  0.0531  0.3044 -0.4941
11466TIP3    H255890   5.482   2.333   4.616  0.4419  1.4033 -1.1715
11467TIP3   OH255891   3.395   0.373   2.874  0.5117  0.4020  0.3934
11467TIP3    H155892   3.397   0.351   2.967  2.2319  0.7033  0.4774
11467TIP3    H255893   3.349   0.300   2.832  0.5794 -0.2173  1.3732
11468TIP3   OH255894   0.677   6.320  16.173 -0.1306  0.2341  0.3932
11468TIP3    H155895   0.612   6.373  16.127  0.3712  0.3362 -0.2124
11468TIP3    H255896   0.725   6.276  16.103 -3.4321 -4.7637  0.7788
11469TIP3   OH255897   5.153   1.656  13.258  0.2750 -0.3306 -0.3093
11469TIP3    H155898   5.159   1.602  13.337  2.4786  0.4997  0.1623
11469TIP3    H255899   5.116   1.739  13.288  1.8114  0.2550  0.0520
11470TIP3   OH255900   5.534   3.438  17.133 -0.5729  0.4166 -0.2657
11470TIP3    H155901   5.614   3.442  17.080  0.3398 -1.8941  0.8316
11470TIP3    H255902   5.561   3.472  17.219 -0.4866 -1.2333  0.3820
11471TIP3   OH255903   4.764   4.492  12.721 -0.2414  0.8296  0.3797
11471TIP3    H155904   4.728   4.493  12.632 -1.3748  1.4943  0.8278
11471TIP3    H255905   4.710   4.553  12.770  0.4352  0.5544  1.5163
11472TIP3   OH255906   6.155   3.902  17.286  0.4012  0.1183 -0.1613
11472TIP3    H155907   6.073   3.949  17.270  0.9370  1.0818 -0.1701
11472TIP3    H255908   6.142   3.816  17.247 -1.5310 -0.6802  2.0027
11473TIP3   OH255909   6.575   3.187  17.240 -0.1546  0.0118  0.5051
11473TIP3    H155910   6.658   3.185  17.289  1.1404 -1.4828 -1.6041
11473TIP3    H255911   6.512   3.223  17.302  1.7652 -0.1157  2.6667
11474TIP3   OH255912   6.291   5.442   1.768 -0.1199 -0.4333  0.4682
11474TIP3    H155913   6.299   5.435   1.672 -1.0748 -1.5284  0.4497
11474TIP3    H255914   6.366   5.393   1.801  0.4848  0.3500  0.2978
11475TIP3   OH255915   6.778   4.460  12.629 -0.4513 -0.4743 -0.0833
11475TIP3    H155916   6.735   4.378  12.654 -2.6914 -0.4104 -3.1122
11475TIP3    H255917   6.775   4.460  12.533  0.2399  2.7663 -0.2123
11476TIP3   OH255918   2.836   4.386  16.780  0.2625  0.2277  0.4232
11476TIP3    H155919   2.922   4.409  16.814 -0.4806  0.2716  2.4608
11476TIP3    H255920   2.801   4.468  16.745  1.2881  0.0537 -1.0998
11477TIP3   OH255921   3.487   2.002   4.191 -0.6851 -0.1364  0.1479
11477TIP3    H155922   3.399   2.024   4.221 -1.3923 -2.1065 -0.3424
11477TIP3    H255923   3.491   2.037   4.102 -0.1352  1.8659  0.8910
11478TIP3   OH255924   2.241   1.886  12.311 -0.2670 -0.1185  0.3773
11478TIP3    H155925   2.173   1.843  12.362 -0.5400  1.2978  1.2822
11478TIP3    H255926   2.201   1.899  12.225 -1.2321  0.8093  0.9307
11479TIP3   OH255927   2.087   6.776   4.791  0.6185  0.0971 -0.1551
11479TIP3    H155928   2.115   6.809   4.705  0.2800 -0.5294 -0.5167
11479TIP3    H255929   2.160   6.796   4.849  0.1067  2.2359 -0.1545
11480TIP3   OH255930   2.030   6.019   0.135  0.7854  0.2580  0.2966
11480TIP3    H155931   2.006   6.037   0.226  0.5436  0.0231  0.2797
11480TIP3    H255932   1.981   6.084   0.085 -1.5674 -1.5433  0.0779
11481TIP3   OH255933   0.972   0.228  11.116 -0.1687 -0.3206  0.3068
11481TIP3    H155934   0.999   0.140  11.140 -0.6777 -0.3891  0.6557
11481TIP3    H255935   0.975   0.229  11.020 -0.5192 -0.8399  0.2835
11482TIP3   OH255936   4.507   1.760  11.029 -0.1269  0.0382  0.6168
11482TIP3    H155937   4.581   1.701  11.017  0.2587  0.5449  0.4421
11482TIP3    H255938   4.542   1.832  11.082 -0.0426  1.0635 -0.7656
11483TIP3   OH255939   6.039   1.635   6.233  0.6240 -0.2876 -0.7006
11483TIP3    H155940   6.030   1.730   6.226  2.2757 -0.0867 -0.2901
11483TIP3    H255941   6.131   1.620   6.252  0.0787 -1.8951  0.9452
11484TIP3   OH255942   6.241   5.887   5.171 -0.1720  0.4622 -0.0888
11484TIP3    H155943   6.278   5.897   5.083  0.2808  1.4425  0.1933
11484TIP3    H255944   6.149   5.910   5.161 -0.3106 -0.2401 -0.4596
11485TIP3   OH255945   4.389   0.187  13.094 -0.0769  0.1402  0.1937
11485TIP3    H155946   4.352   0.124  13.033  1.0525 -0.0013 -0.3731
11485TIP3    H255947   4.318   0.204  13.156 -0.0718 -2.6273  1.1273
11486TIP3   OH255948   2.527   5.866   3.345  0.5383  0.3007  0.1483
11486TIP3    H155949   2.450   5.870   3.287 -0.0817  0.0024  0.9328
11486TIP3    H255950   2.580   5.942   3.319 -0.3898  0.9525  0.0966
11487TIP3   OH255951   4.767   0.220  13.967 -0.3234 -0.3008  0.0593
11487TIP3    H155952   4.856   0.254  13.959 -0.9677  1.3558 -0.3980
11487TIP3    H255953   4.711   0.294  13.945 -1.8320 -1.2307  0.6370
11488TIP3   OH255954   2.410   4.485   1.993  0.0571  0.2544 -0.4847
11488TIP3    H155955   2.324   4.480   1.951  0.2536 -0.0495 -0.8617
11488TIP3    H255956   2.400   4.439   2.076  0.0910 -0.5725 -0.9338
11489TIP3   OH255957   4.820   4.717  13.178 -0.4086 -0.5669 -0.0338
11489TIP3    H155958   4.854   4.802  13.205  2.3369 -1.6336  0.1900
11489TIP3    H255959   4.728   4.717  13.205 -0.2229  1.9380  0.7791
11490TIP3   OH255960   3.846   5.256   5.124 -0.1955  1.0489 -0.0175
11490TIP3    H155961   3.800   5.265   5.208  0.6606 -0.6672  0.6882
11490TIP3    H255962   3.824   5.336   5.076 -4.9519 -0.0727 -0.2568
11491TIP3   OH255963   0.210   0.867  16.528 -0.2774 -0.4782  0.7115
11491TIP3    H155964   0.211   0.806  16.454 -2.2935  1.4883 -1.0763
11491TIP3    H255965   0.299   0.904  16.530 -0.1079 -0.7766 -0.5416
11492TIP3   OH255966   1.847   0.701  16.536  0.2409  0.1351  0.4954
11492TIP3    H155967   1.852   0.711  16.441  0.1504 -0.7995  0.3835
11492TIP3    H255968   1.753   0.699  16.555  0.2590  0.2564  0.5965
11493TIP3   OH255969   3.722   6.257  12.187  0.2749  0.2568  0.3570
11493TIP3    H155970   3.797   6.205  12.216 -0.1005 -0.9007 -0.6372
11493TIP3    H255971   3.645   6.206  12.214 -0.1793  1.4378  1.3821
11494TIP3   OH255972   1.298   6.533  16.154 -0.2254  0.4822 -0.1256
11494TIP3    H155973   1.295   6.446  16.195  2.0598  1.2021  1.8039
11494TIP3    H255974   1.235   6.585  16.204 -0.1738  0.4178  0.0079
11495TIP3   OH255975   2.894   4.420   3.209  0.3544 -0.7878 -0.6417
11495TIP3    H155976   2.953   4.443   3.137  1.0473  2.2391  0.7527
11495TIP3    H255977   2.847   4.501   3.229 -1.3129 -2.0637  1.0254
11496TIP3   OH255978   2.852   2.958  17.115  0.0716 -0.3488  0.1928
11496TIP3    H155979   2.858   2.888  17.180 -1.1656 -0.6234  0.0419
11496TIP3    H255980   2.822   3.034  17.165  0.4636 -0.1877  0.1830
11497TIP3   OH255981   6.743   1.446   5.691  0.1267 -0.3386  0.8050
11497TIP3    H155982   6.666   1.490   5.728 -0.7677 -0.5799 -0.6737
11497TIP3    H255983   6.773   1.504   5.621  0.2800 -0.9942  0.3059
11498TIP3   OH255984   4.400   2.527  13.202  0.7470  0.0266 -0.2890
11498TIP3    H155985   4.408   2.514  13.107  0.0497  0.3853 -0.4039
11498TIP3    H255986   4.377   2.620  13.212  1.0633  0.0507  0.2449
11499TIP3   OH255987   1.632   0.284   1.986  0.2056  0.6121 -0.2681
11499TIP3    H155988   1.721   0.302   1.957  0.5346 -1.8000 -0.9596
11499TIP3    H255989   1.640   0.210   2.046 -1.1429  1.6947  1.3615
11500TIP3   OH255990   3.837   6.585  16.969  0.3327  0.1378 -0.3812
11500TIP3    H155991   3.877   6.527  17.034 -2.6134 -2.0064 -0.2879
11500TIP3    H255992   3.778   6.641  17.020 -0.9369 -0.6023 -0.9842
11501TIP3   OH255993   3.458   6.298  15.827  0.3229 -0.3369  0.4438
11501TIP3    H155994   3.545   6.272  15.857 -0.2584 -2.1820  0.6692
11501TIP3    H255995   3.469   6.317  15.734  0.6823 -2.3087  0.0385
11502TIP3   OH255996   2.759   3.713  17.012  0.3463  0.4421 -0.6710
11502TIP3    H155997   2.721   3.647  16.955  0.1031  0.1814 -0.2166
11502TIP3    H255998   2.812   3.767  16.955  1.0310 -0.5062 -0.9487
11503TIP3   OH255999   4.510   5.112   1.883  0.6225  0.7227  0.4583
11503TIP3    H156000   4.566   5.102   1.806 -0.6446  0.2337 -0.4209
11503TIP3    H256001   4.498   5.023   1.917  0.2786  0.8160  0.5826
11504TIP3   OH256002   5.186   6.688   2.948 -0.1026 -0.6769 -0.3131
11504TIP3    H156003   5.097   6.715   2.972  0.6698  1.2395  0.6587
11504TIP3    H256004   5.206   6.615   3.006 -0.2684  0.3587  1.1159
11505TIP3   OH256005   6.535   3.957  14.277  0.3689 -0.7700 -0.3164
11505TIP3    H156006   6.599   4.021  14.307 -0.5769  0.4382 -0.7669
11505TIP3    H256007   6.494   3.924  14.356  0.3003 -0.2050 -0.1141
11506TIP3   OH256008   0.332   6.070  13.051  0.2061  0.1066  0.2956
11506TIP3    H156009   0.404   6.022  13.092 -0.2924  0.4211  1.6204
11506TIP3    H256010   0.365   6.095  12.965  1.9743  0.9028  1.1474
11507TIP3   OH256011   4.909   3.588  16.935 -0.3811  0.3164  0.0761
11507TIP3    H156012   4.866   3.614  17.017 -0.3983  0.2532  0.0869
11507TIP3    H256013   5.001   3.611  16.948 -0.1464 -0.8331  0.5932
11508TIP3   OH256014   5.124   0.428   1.319  0.1841 -0.1595  0.3134
11508TIP3    H156015   5.126   0.396   1.409  0.9688  0.1547  0.4152
11508TIP3    H256016   5.044   0.390   1.281 -0.0556 -0.4346  1.0841
11509TIP3   OH256017   4.409   0.595  12.018 -0.1142 -0.0134  0.0133
11509TIP3    H156018   4.321   0.625  12.038 -0.3921 -0.3279 -0.7194
11509TIP3    H256019   4.466   0.658  12.062 -0.6816  1.5414 -1.3828
11510TIP3   OH256020   0.213   3.073  15.094  0.3107 -0.3266  0.3334
11510TIP3    H156021   0.298   3.084  15.052 -0.3930 -1.0295 -1.4163
11510TIP3    H256022   0.231   3.027  15.175  1.8313  1.6822  1.2271
11511TIP3   OH256023   3.288   2.272   0.735  0.7756  0.4736 -0.2616
11511TIP3    H156024   3.212   2.258   0.678 -0.3412 -0.2518  1.2942
11511TIP3    H256025   3.361   2.285   0.676 -0.5073  0.8590 -1.8382
11512TIP3   OH256026   5.951   4.699   1.737 -0.3779 -0.4639 -0.3832
11512TIP3    H156027   5.990   4.696   1.825  0.8657  0.2274 -0.8908
11512TIP3    H256028   5.880   4.763   1.744 -0.5783 -0.7481  0.2279
11513TIP3   OH256029   4.062   4.549   2.886 -0.7637 -0.1666  0.1135
11513TIP3    H156030   4.086   4.458   2.899 -0.5876  0.0136  1.1276
11513TIP3    H256031   3.973   4.556   2.923 -1.3354 -0.2250 -1.1919
11514TIP3   OH256032   2.069   4.531   0.988 -0.4967 -0.2846  0.3321
11514TIP3    H156033   2.093   4.524   1.081 -0.1214 -1.0927  0.1805
11514TIP3    H256034   2.130   4.596   0.953  0.1719 -0.8650  0.3920
11515TIP3   OH256035   1.973   0.725   2.892 -0.3025  0.0997  0.2078
11515TIP3    H156036   2.048   0.782   2.877 -1.4013  1.5224 -0.0561
11515TIP3    H256037   1.946   0.743   2.981 -0.7554  0.1081  0.0716
11516TIP3   OH256038   5.843   3.033   4.273 -0.3611 -0.1497 -0.1292
11516TIP3    H156039   5.851   3.088   4.195  0.8157 -0.3377 -0.1704
11516TIP3    H256040   5.759   2.989   4.263 -0.2527 -0.1449 -1.2862
11517TIP3   OH256041   1.340   6.598   3.129  0.1428  0.3668 -0.4962
11517TIP3    H156042   1.267   6.618   3.188  0.2398  1.2791 -0.6681
11517TIP3    H256043   1.331   6.661   3.058  0.7929  0.1361 -0.7884
11518TIP3   OH256044   3.919   3.494   1.996 -0.4012  0.4205 -0.7472
11518TIP3    H156045   3.946   3.404   1.975 -0.2982 -0.0340  1.1283
11518TIP3    H256046   3.951   3.547   1.923  0.6682 -0.8784 -1.2624
11519TIP3   OH256047   0.342   4.062   0.895 -0.3293  0.3775  0.9456
11519TIP3    H156048   0.334   3.988   0.833 -0.1598  1.5829 -0.5817
11519TIP3    H256049   0.267   4.118   0.874  0.2252  1.2443  1.2483
11520TIP3   OH256050   2.149   5.851  17.360 -0.1798 -0.5912  0.3238
11520TIP3    H156051   2.098   5.911  17.414 -0.7869 -1.3079  0.5674
11520TIP3    H256052   2.103   5.847  17.277 -0.1401 -0.7121  0.3069
11521TIP3   OH256053   5.891   0.585   3.362  0.2264  0.3448 -0.3231
11521TIP3    H156054   5.796   0.589   3.377  0.1257  0.4571 -0.9229
11521TIP3    H256055   5.928   0.649   3.423 -0.0522  0.0738  0.1357
11522TIP3   OH256056   0.858   1.659   2.669 -0.1778  0.3862 -0.4542
11522TIP3    H156057   0.923   1.628   2.731 -0.1710  0.7663 -0.2714
11522TIP3    H256058   0.903   1.727   2.619 -0.4491  0.6907 -0.2892
11523TIP3   OH256059   4.978   2.319   3.495 -0.1671  0.3946 -0.2487
11523TIP3    H156060   5.020   2.246   3.449  1.1716  0.2294  1.1647
11523TIP3    H256061   4.887   2.293   3.503  0.3062 -1.1742  0.2961
11524TIP3   OH256062   0.181   0.365  15.993  0.2898 -0.0110  0.3253
11524TIP3    H156063   0.105   0.407  16.034 -0.3250 -0.9582  0.2130
11524TIP3    H256064   0.146   0.324  15.914  0.4807 -2.0709  1.2357
11525TIP3   OH256065   3.219   0.454  16.067 -0.2400  0.3384 -0.1531
11525TIP3    H156066   3.274   0.526  16.099  2.2944 -0.6497 -1.9587
11525TIP3    H256067   3.253   0.377  16.112 -0.7652 -0.1665 -0.6165
11526TIP3   OH256068   1.046   1.301  14.240 -0.3478  0.2942 -0.4984
11526TIP3    H156069   1.115   1.297  14.307  0.1934 -0.0954 -1.0598
11526TIP3    H256070   1.087   1.263  14.162 -1.8675 -2.0093 -0.2736
11527TIP3   OH256071   0.335   3.038   5.218 -0.3886  0.1478  0.3029
11527TIP3    H156072   0.343   3.083   5.302 -0.9393 -0.0609  0.4650
11527TIP3    H256073   0.261   3.080   5.175 -0.1940  0.1613 -0.0247
11528TIP3   OH256074   0.871   6.361   5.351  0.0786  0.4358  0.5088
11528TIP3    H156075   0.826   6.443   5.331 -0.7827  0.0148  0.6592
11528TIP3    H256076   0.964   6.383   5.347 -0.1328  1.3152  0.1287
11529TIP3   OH256077   0.210   3.485   6.097 -0.5666  0.5560  0.1524
11529TIP3    H156078   0.281   3.421   6.099 -1.7748 -0.9224 -1.8188
11529TIP3    H256079   0.204   3.516   6.187 -0.5011 -2.7299  1.4138
11530TIP3   OH256080   2.788   0.818  13.628  0.3914 -0.0072 -0.1316
11530TIP3    H156081   2.866   0.872  13.639 -0.0592  0.4630  0.8633
11530TIP3    H256082   2.799   0.776  13.542  2.2707 -0.8383  0.4618
11531TIP3   OH256083   2.646   4.777   5.533  0.1410 -1.1988 -1.0254
11531TIP3    H156084   2.724   4.814   5.573 -0.3863 -0.3371 -0.7775
11531TIP3    H256085   2.596   4.740   5.605 -0.5469 -0.1257 -0.9223
11532TIP3   OH256086   0.053   4.094  12.819  0.4049  0.3350  0.2464
11532TIP3    H156087   0.119   4.126  12.881 -0.3645  0.8750  0.7935
11532TIP3    H256088   0.028   4.008  12.853  1.1791 -0.0914 -0.2386
11533TIP3   OH256089   6.408   2.412   4.033  0.3228  0.3783  0.3344
11533TIP3    H156090   6.373   2.498   4.008 -0.5469  0.6879  2.4303
11533TIP3    H256091   6.416   2.364   3.950 -0.4375  2.0091 -0.7255
11534TIP3   OH256092   6.071   3.760  12.675 -0.3348 -0.2428 -0.0231
11534TIP3    H156093   6.102   3.850  12.665  1.5672 -0.6135  1.7451
11534TIP3    H256094   6.082   3.721  12.589  0.4725  0.7338 -0.3830
11535TIP3   OH256095   2.214   1.431  14.320 -0.5821  0.1093  0.2324
11535TIP3    H156096   2.231   1.426  14.414 -2.1142  0.8239  0.5831
11535TIP3    H256097   2.297   1.459  14.283 -0.8877  3.8076  1.8718
11536TIP3   OH256098   4.989   0.021   6.095  0.4903  0.1656  0.0574
11536TIP3    H156099   4.952  -0.040   6.159 -1.5350  0.9942 -0.2506
11536TIP3    H256100   4.913   0.064   6.057  1.7620  1.1514 -1.4673
11537TIP3   OH256101   3.975   4.778   3.952  0.0726  0.3549  0.5338
11537TIP3    H156102   3.992   4.845   3.887 -0.2877  2.1293  2.1786
11537TIP3    H256103   3.891   4.739   3.926  0.3372  0.4595 -0.4946
11538TIP3   OH256104   6.355   0.147  16.483 -0.1921 -0.0539 -0.3594
11538TIP3    H156105   6.410   0.095  16.541 -0.7663  0.2261  0.4440
11538TIP3    H256106   6.418   0.196  16.429  0.3490 -0.2474  0.0874
11539TIP3   OH256107   2.208   1.023  14.132 -0.4683  0.1079  0.2295
11539TIP3    H156108   2.169   1.110  14.144 -1.1455 -0.3789  1.8724
11539TIP3    H256109   2.166   0.969  14.200 -0.0200 -1.4881 -0.7184
11540TIP3   OH256110   6.583   4.363  17.400  0.7946  0.7215  0.4288
11540TIP3    H156111   6.520   4.364  17.473 -1.0313 -1.8235 -0.9597
11540TIP3    H256112   6.556   4.437  17.345  0.7054  1.2349  1.1386
11541TIP3   OH256113   3.159   3.365  13.003 -0.4574  0.0328  0.6193
11541TIP3    H156114   3.105   3.333  12.931  0.6829  0.6154 -0.5270
11541TIP3    H256115   3.117   3.330  13.082 -2.7959  0.9069 -0.1642
11542TIP3   OH256116   4.072   2.003  14.141 -0.3483 -0.4808  0.0550
11542TIP3    H156117   4.042   2.080  14.190 -0.2329 -1.1529  1.2369
11542TIP3    H256118   4.097   2.036  14.056 -3.1306  0.3514 -0.5393
11543TIP3   OH256119   2.791   1.808   3.143  0.2017  0.3873  0.2841
11543TIP3    H156120   2.724   1.783   3.207 -1.1851  0.2210 -1.1832
11543TIP3    H256121   2.874   1.784   3.185 -0.7355 -1.0362  1.4200
11544TIP3   OH256122   4.568   1.933  16.266 -0.2778 -0.1360 -0.4840
11544TIP3    H156123   4.575   1.859  16.326  1.5231 -0.3384 -0.9062
11544TIP3    H256124   4.550   2.008  16.322 -0.0034 -0.5437  0.1558
11545TIP3   OH256125   1.269   3.165   3.824  0.9190 -0.1433  0.0553
11545TIP3    H156126   1.197   3.220   3.794 -0.3294 -2.0252 -0.5834
11545TIP3    H256127   1.292   3.200   3.910 -0.3839  0.8470  0.0286
11546TIP3   OH256128   2.571   1.708   6.558 -0.1173 -0.0741 -0.4092
11546TIP3    H156129   2.581   1.802   6.574  0.6034 -0.2901  0.5316
11546TIP3    H256130   2.661   1.677   6.547 -0.3573 -0.6471 -0.7571
11547TIP3   OH256131   2.602   5.233   5.773  0.5230  0.1737  0.2046
11547TIP3    H156132   2.601   5.322   5.737 -2.5035  0.4746  0.7856
11547TIP3    H256133   2.563   5.180   5.703  0.0269 -0.2544  0.8071
11548TIP3   OH256134   3.207   3.213  14.493  0.3592  0.1444 -0.0211
11548TIP3    H156135   3.132   3.204  14.551  0.9572  1.4575  1.0135
11548TIP3    H256136   3.172   3.254  14.414  0.0267  1.0839  0.5981
11549TIP3   OH256137   6.749   1.735  13.771 -0.1000  0.8099  0.3015
11549TIP3    H156138   6.754   1.762  13.863 -2.0572 -1.1388  1.0895
11549TIP3    H256139   6.700   1.805  13.727  0.0829  1.3483  0.9510
11550TIP3   OH256140   2.560   6.776   6.791  0.4593 -0.6380 -0.4615
11550TIP3    H156141   2.528   6.865   6.774  2.9518  0.4992  0.3979
11550TIP3    H256142   2.493   6.719   6.753 -0.7922  1.5957 -1.8050
11551TIP3   OH256143   1.682   4.614   1.190 -0.0467 -0.1243  0.6060
11551TIP3    H156144   1.639   4.638   1.108 -0.2977 -0.6352  0.5868
11551TIP3    H256145   1.758   4.672   1.194 -0.6211  0.6468  0.5446
11552TIP3   OH256146   5.474   5.801   0.097  0.8656  0.0729 -0.0891
11552TIP3    H156147   5.457   5.755   0.015  2.2166  0.4010 -0.5889
11552TIP3    H256148   5.452   5.892   0.078  2.6683  0.4414 -0.6383
11553TIP3   OH256149   3.675   4.584  15.258 -0.2000 -0.4130 -0.1965
11553TIP3    H156150   3.696   4.672  15.289  0.4124 -0.0849 -1.4847
11553TIP3    H256151   3.723   4.525  15.316 -0.9734  0.0596  0.9598
11554TIP3   OH256152   5.256   5.505   5.941  0.4956  0.7555  0.1118
11554TIP3    H156153   5.288   5.581   5.991  0.4401  0.3939  0.7140
11554TIP3    H256154   5.165   5.495   5.970 -0.1072  1.5927 -1.3585
11555TIP3   OH256155   3.766   5.016  11.367 -0.2304  0.3069 -0.3415
11555TIP3    H156156   3.793   4.997  11.457  0.0278  0.7628 -0.3152
11555TIP3    H256157   3.687   5.070  11.376  0.9913  2.2153 -0.3046
11556TIP3   OH256158   3.717   4.927  12.720  0.2753  0.0618  0.2858
11556TIP3    H156159   3.776   4.989  12.678  3.3215 -1.9386  1.2615
11556TIP3    H256160   3.733   4.937  12.813 -1.3639 -0.1860  0.6200
11557TIP3   OH256161   1.462   1.072  13.082 -0.4064  0.7141 -0.2616
11557TIP3    H156162   1.455   1.015  13.006 -1.8516  1.3493 -0.6545
11557TIP3    H256163   1.502   1.017  13.150  1.3352  0.2831 -1.5838
11558TIP3   OH256164   4.968   6.762  13.440 -0.3697  0.3218  0.4611
11558TIP3    H156165   5.023   6.725  13.509  0.0224 -0.5695 -0.3044
11558TIP3    H256166   4.960   6.854  13.463  2.1282  0.6689  0.1624
11559TIP3   OH256167   3.044   6.030  13.760  0.4252  0.3843 -0.6749
11559TIP3    H156168   2.976   6.043  13.825  2.0738  1.1379  0.9992
11559TIP3    H256169   2.998   6.031  13.676 -1.8347 -1.0733  0.4424
11560TIP3   OH256170   0.917   3.448  17.194  0.3810 -0.0239 -0.1870
11560TIP3    H156171   0.930   3.542  17.207  1.1137  0.1711 -2.0167
11560TIP3    H256172   0.975   3.406  17.257 -0.0838  0.7310  0.7695
11561TIP3   OH256173   3.774   3.430  16.848 -0.4123 -0.2352  0.1414
11561TIP3    H156174   3.794   3.388  16.932 -0.0753 -0.6232 -0.1300
11561TIP3    H256175   3.731   3.512  16.872  1.2654  0.5052  0.7393
11562TIP3   OH256176   0.369   2.630   5.352 -0.3461 -0.6044 -0.2862
11562TIP3    H156177   0.372   2.711   5.404 -0.4943 -1.8559  1.7573
11562TIP3    H256178   0.338   2.658   5.266 -1.2481  1.3772  0.6296
11563TIP3   OH256179   5.861   3.304  12.639 -0.1974  0.8405 -0.2806
11563TIP3    H156180   5.809   3.383  12.626 -0.8916  0.3863 -0.3350
11563TIP3    H256181   5.915   3.297  12.560 -1.3117  0.3939 -1.0301
11564TIP3   OH256182   0.253   3.842   3.516 -0.1679  0.2716  0.5962
11564TIP3    H156183   0.275   3.752   3.539  0.6960  0.5703  0.9887
11564TIP3    H256184   0.259   3.844   3.420  1.1841  0.2257  0.6498
11565TIP3   OH256185   2.024   5.106  12.106  0.3275  0.6285 -0.2445
11565TIP3    H156186   2.002   5.132  12.017  0.7034  2.0067  0.0361
11565TIP3    H256187   2.118   5.123  12.114  0.2278  0.8894  0.5198
11566TIP3   OH256188   2.135   2.763  13.449 -0.5999 -0.2612  0.0781
11566TIP3    H156189   2.072   2.691  13.461 -0.9239  0.1991  1.3254
11566TIP3    H256190   2.131   2.812  13.531  0.7981  0.2562 -0.1370
11567TIP3   OH256191   4.915   3.129   4.396  0.3996  0.0140  0.0914
11567TIP3    H156192   4.988   3.099   4.342  0.3022  1.0171 -0.6180
11567TIP3    H256193   4.951   3.135   4.484  0.2940 -2.6488  0.3890
11568TIP3   OH256194   2.242   3.068   3.737 -0.1310 -0.0645 -0.2294
11568TIP3    H156195   2.304   3.118   3.685  1.3473 -0.5159  1.0374
11568TIP3    H256196   2.162   3.121   3.737  0.4635  0.8694 -1.2966
11569TIP3   OH256197   0.728   2.841  16.089 -0.0565 -0.0418  0.3954
11569TIP3    H156198   0.675   2.799  16.155 -1.2358 -0.5702 -0.8392
11569TIP3    H256199   0.757   2.923  16.129 -1.2791 -0.0479  1.3158
11570TIP3   OH256200   3.739   4.269  12.100  0.1125 -0.6597 -0.5895
11570TIP3    H156201   3.665   4.283  12.159  0.0633 -1.3806 -0.4788
11570TIP3    H256202   3.743   4.349  12.047 -1.6192 -1.1777 -1.5657
11571TIP3   OH256203   3.807   6.757   3.149 -0.4445 -0.4826  1.0093
11571TIP3    H156204   3.837   6.728   3.063  0.5151 -1.1173  1.5471
11571TIP3    H256205   3.833   6.849   3.155 -1.0684 -0.2575  0.3857
11572TIP3   OH256206   5.806   2.506   6.053 -0.1450  0.2341 -0.1222
11572TIP3    H156207   5.743   2.569   6.088  1.8081  1.8758  0.6096
11572TIP3    H256208   5.795   2.429   6.109 -0.3235  1.1300  1.1294
11573TIP3   OH256209   5.692   6.200   4.947  0.5940 -0.1469  0.5109
11573TIP3    H156210   5.721   6.241   4.866 -0.3922 -1.1877 -0.3973
11573TIP3    H256211   5.604   6.235   4.961 -0.5190 -2.3074 -0.6083
11574TIP3   OH256212   2.931   6.203   6.649 -0.5200 -0.3155 -0.4211
11574TIP3    H156213   2.891   6.263   6.712 -1.7482 -0.1225 -1.3453
11574TIP3    H256214   3.019   6.188   6.683 -0.8194  0.5428  0.8159
11575TIP3   OH256215   4.299   3.101  15.228  0.2158 -0.2257 -0.1857
11575TIP3    H156216   4.388   3.111  15.195 -0.2768  0.4011 -1.3843
11575TIP3    H256217   4.252   3.176  15.193 -1.3960 -1.8430 -1.7157
11576TIP3   OH256218   2.177   0.294   5.701 -0.3111 -0.0666  0.2430
11576TIP3    H156219   2.133   0.333   5.626 -0.0554 -1.1436 -0.4832
11576TIP3    H256220   2.183   0.201   5.680 -0.6735 -0.4865  1.8054
11577TIP3   OH256221   3.460   0.836   3.522  0.8159  0.2232 -0.7778
11577TIP3    H156222   3.470   0.742   3.515 -0.3347  0.1348 -1.4722
11577TIP3    H256223   3.394   0.848   3.591  1.7208  0.5776  0.0602
11578TIP3   OH256224   0.212   3.792  10.746 -0.2858 -0.1991 -0.4453
11578TIP3    H156225   0.121   3.811  10.723 -0.3683  1.1137  0.8280
11578TIP3    H256226   0.208   3.758  10.835  0.4119 -0.8623 -0.6603
11579TIP3   OH256227   0.952   4.610   2.764 -0.1531  0.0260  0.3231
11579TIP3    H156228   0.976   4.702   2.775  2.0431 -0.6297  1.4833
11579TIP3    H256229   0.984   4.588   2.677  1.5963 -0.2596  1.0095
11580TIP3   OH256230   3.690   5.932  17.189 -0.2055  0.1550  0.2722
11580TIP3    H156231   3.754   5.962  17.124  0.1688 -0.1028  0.5164
11580TIP3    H256232   3.634   5.872  17.141  0.6460 -0.7701  0.3922
11581TIP3   OH256233   4.642   3.648  16.270  0.1440  0.6788 -0.2878
11581TIP3    H156234   4.697   3.582  16.314 -1.4704 -0.8829 -0.4913
11581TIP3    H256235   4.585   3.682  16.338  0.6613  1.5654 -0.2812
11582TIP3   OH256236   3.224   3.625  11.060  0.0389 -0.0472  0.1248
11582TIP3    H156237   3.201   3.551  11.004  0.3086  0.5028 -0.7405
11582TIP3    H256238   3.241   3.586  11.146 -0.7281 -0.8660 -0.0783
11583TIP3   OH256239   5.314   6.036  14.488  0.6435 -0.3598  0.2276
11583TIP3    H156240   5.398   5.994  14.468  0.4929 -0.3452 -0.4803
11583TIP3    H256241   5.250   5.988  14.435  0.4019  0.4698 -0.2470
11584TIP3   OH256242   2.038   2.809   1.332 -0.3787  0.0688  0.9569
11584TIP3    H156243   2.066   2.774   1.247  0.3837  2.3663  0.2070
11584TIP3    H256244   2.016   2.731   1.383 -2.6310 -1.4069 -1.9061
11585TIP3   OH256245   4.355   2.033   0.784 -0.2008 -0.2770 -0.1465
11585TIP3    H156246   4.384   1.949   0.748 -1.3479  0.3184 -2.6615
11585TIP3    H256247   4.260   2.024   0.791 -0.3904  0.9368 -0.8840
11586TIP3   OH256248   5.851   4.240  14.720  0.4276 -0.4863  0.4021
11586TIP3    H156249   5.843   4.160  14.668  1.1876  0.9575 -2.1186
11586TIP3    H256250   5.883   4.211  14.805  1.0627 -2.8335 -0.5674
11587TIP3   OH256251   5.089   1.074  12.581  0.4268 -0.3167 -0.3530
11587TIP3    H156252   4.998   1.103  12.585  0.9564  1.4613 -0.1581
11587TIP3    H256253   5.101   1.046  12.490 -0.1049  0.1876 -0.5859
11588TIP3   OH256254   5.009   6.266  17.414  0.5830  0.3170  0.1938
11588TIP3    H156255   4.984   6.342  17.466  2.2231  2.0026 -1.2914
11588TIP3    H256256   4.973   6.191  17.460 -3.1301  2.1070  0.5248
11589TIP3   OH256257   3.785   0.736  16.800 -0.0986  0.4380  0.4415
11589TIP3    H156258   3.705   0.771  16.839 -0.5587 -0.1093  0.0101
11589TIP3    H256259   3.761   0.648  16.773  0.4271  0.5476 -0.4007
11590TIP3   OH256260   3.889   3.787   6.100  0.5145 -0.0685 -0.4875
11590TIP3    H156261   3.888   3.741   6.016 -1.6582 -0.9973 -0.0153
11590TIP3    H256262   3.886   3.718   6.165 -0.8439  0.6738  0.2835
11591TIP3   OH256263   5.648   2.597  13.986 -0.5085 -0.4138 -0.4746
11591TIP3    H156264   5.660   2.561  14.074  0.1655 -0.5123 -0.6038
11591TIP3    H256265   5.634   2.519  13.931 -1.4986 -0.3205 -0.3727
11592TIP3   OH256266   2.866   0.689   0.568 -0.3516  0.1464 -0.4740
11592TIP3    H156267   2.783   0.736   0.567 -0.7018 -0.4256  0.5941
11592TIP3    H256268   2.902   0.703   0.480 -1.9483 -0.2633 -1.2335
11593TIP3   OH256269   1.232   6.532   3.453  0.3338 -0.1800 -0.4044
11593TIP3    H156270   1.164   6.476   3.416 -0.5084 -0.6120  1.6971
11593TIP3    H256271   1.189   6.578   3.525  2.2839 -0.5805  1.0877
11594TIP3   OH256272   4.558   6.044   6.327  0.1051  0.3783  0.3903
11594TIP3    H156273   4.644   6.083   6.313 -0.6116  0.9137 -3.8745
11594TIP3    H256274   4.498   6.119   6.329 -0.4013  0.0680  3.9002
11595TIP3   OH256275   1.120   2.557  14.486 -0.1767 -0.0315  0.5770
11595TIP3    H156276   1.097   2.639  14.443  0.1931  0.0800  0.5928
11595TIP3    H256277   1.040   2.504  14.482 -0.2461  0.1114  0.0665
11596TIP3   OH256278   3.952   6.521   1.647 -0.1013 -0.1091 -0.4317
11596TIP3    H156279   3.967   6.457   1.717 -1.0901 -0.0426 -0.1391
11596TIP3    H256280   4.013   6.592   1.667  0.1050 -0.3950 -0.0243
11597TIP3   OH256281   5.626   5.118  12.344 -0.1312 -0.1469  0.1354
11597TIP3    H156282   5.631   5.066  12.424  0.6641  0.5233  0.5351
11597TIP3    H256283   5.690   5.078  12.285 -0.4406 -0.4037 -0.0287
11598TIP3   OH256284   3.998   3.793   5.362  0.0083  0.0895  0.3723
11598TIP3    H156285   3.921   3.790   5.418  0.5000 -0.2156  1.0513
11598TIP3    H256286   4.060   3.733   5.404  0.5202  0.1399 -0.3003
11599TIP3   OH256287   2.715   0.284   5.449 -0.2489  0.1328  0.0125
11599TIP3    H156288   2.766   0.363   5.430  1.4309 -0.1226  2.8109
11599TIP3    H256289   2.625   0.308   5.427  0.4409  2.1893 -0.8992
11600TIP3   OH256290   1.696   4.438   3.086  0.8242 -0.3818 -0.3738
11600TIP3    H156291   1.717   4.353   3.047 -0.4266 -1.1850  0.6172
11600TIP3    H256292   1.616   4.422   3.137  0.4632  1.4393 -0.3058
11601TIP3   OH256293   3.904   2.585  16.946  0.5285  0.3942  0.1612
11601TIP3    H156294   3.978   2.646  16.945  0.0747  0.9434  0.3121
11601TIP3    H256295   3.830   2.635  16.913  0.5546 -0.6115 -1.5264
11602TIP3   OH256296   5.733   4.124   1.851  0.3712  0.2456 -0.0932
11602TIP3    H156297   5.797   4.073   1.901 -2.3039 -4.6649 -1.0200
11602TIP3    H256298   5.784   4.163   1.780  3.1156  1.6300  2.4325
11603TIP3   OH256299   4.335   1.231  14.063  0.1468  0.1477 -0.1472
11603TIP3    H156300   4.325   1.205  13.971  0.0402 -0.9669  0.1547
11603TIP3    H256301   4.421   1.199  14.088  0.2473  0.6044  0.0898
11604TIP3   OH256302   4.560   3.633   1.055  0.1085  0.6251  0.3737
11604TIP3    H156303   4.578   3.720   1.020  0.6799 -0.4341 -2.1870
11604TIP3    H256304   4.632   3.578   1.022 -1.5953 -1.3401 -0.3339
11605TIP3   OH256305   5.501   1.713  17.025  0.1768 -0.8724 -0.3027
11605TIP3    H156306   5.552   1.792  17.008  0.6886 -1.2842 -0.7105
11605TIP3    H256307   5.430   1.717  16.960 -1.5587  0.7226  1.5252
11606TIP3   OH256308   6.586   0.324  12.273  0.5919 -0.5453 -0.0773
11606TIP3    H156309   6.533   0.351  12.348 -0.5485  0.2257 -1.1375
11606TIP3    H256310   6.554   0.376  12.200  1.2412 -1.7485 -1.2671
11607TIP3   OH256311   4.408   2.110  15.763  0.1727 -0.1110  0.2533
11607TIP3    H156312   4.337   2.121  15.827  1.8506 -1.3766  2.4633
11607TIP3    H256313   4.434   2.199  15.740 -1.0665  0.3678  0.6277
11608TIP3   OH256314   0.150   4.304   4.191  0.1271 -0.5612  0.1183
11608TIP3    H156315   0.214   4.236   4.172 -0.7507 -1.6429  0.9054
11608TIP3    H256316   0.137   4.349   4.107  3.7121  1.3650  0.4053
11609TIP3   OH256317   1.513   5.152   0.817  0.0429  0.3682 -0.3333
11609TIP3    H156318   1.429   5.173   0.776  0.1650  0.8070 -0.3633
11609TIP3    H256319   1.571   5.223   0.791  0.1270  0.6541  0.5719
11610TIP3   OH256320   5.789   3.996  14.623  0.2161  0.3960 -0.4996
11610TIP3    H156321   5.814   3.936  14.693  0.0190 -0.8450 -1.4587
11610TIP3    H256322   5.819   3.953  14.543 -2.6336  0.0599 -1.5040
11611TIP3   OH256323   4.698   4.915   5.326 -0.4630  0.3974  0.0450
11611TIP3    H156324   4.616   4.888   5.368  0.5924 -0.7577  1.4447
11611TIP3    H256325   4.743   4.967   5.392 -0.5490  2.0392 -1.1372
11612TIP3   OH256326   5.517   2.870  16.315  0.2741  0.1429 -0.5123
11612TIP3    H156327   5.458   2.824  16.255 -1.2601 -1.5429  2.0762
11612TIP3    H256328   5.476   2.859  16.401  2.5824  2.0227  0.9425
11613TIP3   OH256329   1.932   5.422  15.162  0.1258 -0.3527 -0.5110
11613TIP3    H156330   1.950   5.516  15.161 -1.6710  0.0234 -0.9946
11613TIP3    H256331   1.842   5.415  15.194  0.0475 -1.8681 -0.9996
11614TIP3   OH256332   0.638   5.282   0.409 -0.1979  0.1131  0.2662
11614TIP3    H156333   0.653   5.354   0.348 -0.3201  0.9153  1.1742
11614TIP3    H256334   0.719   5.275   0.459  0.3167 -1.2542 -0.6708
11615TIP3   OH256335   2.885   5.648   4.112 -0.5495 -0.5653  0.2807
11615TIP3    H156336   2.823   5.680   4.047  0.6959  1.3691 -0.0191
11615TIP3    H256337   2.857   5.689   4.194  0.4303  0.4920  0.1016
11616TIP3   OH256338   5.280   0.786  13.645  0.6247 -0.1480  0.4091
11616TIP3    H156339   5.254   0.870  13.608  0.0815  0.6207  2.4121
11616TIP3    H256340   5.223   0.774  13.720  1.0427 -2.0838  0.4713
11617TIP3   OH256341   4.622   5.802   4.024 -0.4605  0.2083 -0.0822
11617TIP3    H156342   4.616   5.897   4.020  0.2105  0.2363 -0.4408
11617TIP3    H256343   4.715   5.784   4.033 -0.4801 -0.4516 -1.0551
11618TIP3   OH256344   3.032   3.600   5.035 -0.4875 -0.0274  0.1347
11618TIP3    H156345   3.127   3.608   5.045 -0.5367  1.1539 -0.2117
11618TIP3    H256346   2.996   3.666   5.095 -1.0790 -0.3540  0.1431
11619TIP3   OH256347   0.707   4.056  12.676  0.4471  0.3918  0.2142
11619TIP3    H156348   0.616   4.083  12.671  0.3386 -0.1672 -1.3666
11619TIP3    H256349   0.705   3.968  12.714  0.4155  0.7196  0.9884
11620TIP3   OH256350   4.999   3.873   3.554 -0.3946 -0.0629  0.6032
11620TIP3    H156351   5.040   3.789   3.531  0.4878  0.5938 -0.3093
11620TIP3    H256352   4.922   3.877   3.497 -0.9202 -0.6274  1.2578
11621TIP3   OH256353   6.227   0.052   3.988 -0.4803 -0.2057 -0.0951
11621TIP3    H156354   6.211   0.122   4.052 -1.3230  0.0897 -0.6111
11621TIP3    H256355   6.284   0.092   3.922  1.0513 -0.7428  0.8439
11622TIP3   OH256356   6.071   2.788  11.327  0.4475 -0.0317 -0.1539
11622TIP3    H156357   6.046   2.731  11.255 -1.1691  0.7192 -0.2191
11622TIP3    H256358   6.161   2.762  11.348  0.6616 -0.8046 -1.8844
11623TIP3   OH256359   5.699   6.062  13.653  0.5797  0.4958 -0.2034
11623TIP3    H156360   5.623   6.005  13.660  2.7148 -2.6942 -0.8604
11623TIP3    H256361   5.684   6.112  13.572 -1.2312  0.8045  0.2625
11624TIP3   OH256362   0.857   5.706  16.869  0.2647  0.4374  0.2789
11624TIP3    H156363   0.809   5.767  16.925 -2.2587 -0.9971 -0.1693
11624TIP3    H256364   0.788   5.658  16.822  2.1342 -2.4056  0.2304
11625TIP3   OH256365   3.904   4.240  11.838 -0.6082  0.0063 -0.3321
11625TIP3    H156366   3.854   4.205  11.912 -0.6888 -0.6084 -0.6692
11625TIP3    H256367   3.994   4.210  11.854 -0.8400 -1.1390 -1.0834
11626TIP3   OH256368   3.441   1.078  16.054  0.2271  0.2738  0.1273
11626TIP3    H156369   3.473   1.078  16.144  2.3778  1.2237 -0.5877
11626TIP3    H256370   3.373   1.146  16.052 -1.0977 -0.9367  1.3783
11627TIP3   OH256371   2.089   0.107  15.944 -0.0875 -0.5061  0.2141
11627TIP3    H156372   2.057   0.099  16.033 -2.5554  1.3590 -0.4020
11627TIP3    H256373   2.185   0.104  15.953 -0.2746 -2.1158  2.6517
11628TIP3   OH256374   3.338   3.246  11.594  0.6653  0.5164 -0.6681
11628TIP3    H156375   3.361   3.169  11.646  0.5002 -1.1392 -2.9326
11628TIP3    H256376   3.411   3.256  11.533 -1.0958 -0.3557 -3.0688
11629TIP3   OH256377   5.643   0.207   4.005  0.4605 -0.0917  0.3789
11629TIP3    H156378   5.687   0.126   4.030 -0.5591 -1.0127 -0.6993
11629TIP3    H256379   5.550   0.183   4.003  0.0928  1.2592  0.5874
11630TIP3   OH256380   1.350   3.999   5.153 -0.4505 -0.2985  0.0228
11630TIP3    H156381   1.377   3.915   5.116 -2.0573 -1.9756  2.3559
11630TIP3    H256382   1.255   4.000   5.141 -0.4496  1.2816 -0.0691
11631TIP3   OH256383   0.333   4.973   6.308 -0.0039  0.2395  0.3242
11631TIP3    H156384   0.390   4.950   6.235 -0.1044  0.4590  0.1745
11631TIP3    H256385   0.307   4.889   6.346  0.1836  0.1304  0.2125
11632TIP3   OH256386   2.506   4.846   2.107  0.3817 -0.3730  0.4523
11632TIP3    H156387   2.427   4.795   2.129  0.0993  0.6006  1.8098
11632TIP3    H256388   2.495   4.867   2.014 -2.2621  1.8586  1.1284
11633TIP3   OH256389   1.615   1.156   2.622  0.1885 -0.3248 -0.2503
11633TIP3    H156390   1.614   1.141   2.528 -1.3225 -0.9938 -0.1611
11633TIP3    H256391   1.523   1.147   2.649  0.7113 -1.0915  1.4293
11634TIP3   OH256392   0.290   1.683   6.050  0.6421 -0.6899  0.1460
11634TIP3    H156393   0.236   1.760   6.031  0.8683  0.2096  2.7803
11634TIP3    H256394   0.240   1.609   6.014 -0.8824  0.4120 -0.0941
11635TIP3   OH256395   6.018   1.557  16.537  0.6587  0.5311  0.4058
11635TIP3    H156396   6.055   1.550  16.449 -0.3896  1.1533 -0.1109
11635TIP3    H256397   6.048   1.479  16.583  1.9050  0.6140 -0.2414
11636TIP3   OH256398   5.949   6.320   3.773  0.3155  0.3007 -0.7096
11636TIP3    H156399   5.919   6.406   3.803 -0.2305  0.1402 -0.7813
11636TIP3    H256400   5.931   6.319   3.679  0.7916  0.2980 -0.8036
11637TIP3   OH256401   1.260   5.742  16.200 -0.1553  0.4518  0.0396
11637TIP3    H156402   1.210   5.666  16.170  0.1732  0.1370  0.2882
11637TIP3    H256403   1.287   5.787  16.120 -1.0378  0.7623 -0.1001
11638TIP3   OH256404   6.177   1.395  11.436 -0.0100  0.2964 -0.0289
11638TIP3    H156405   6.094   1.387  11.388 -0.0863 -1.9570  0.3509
11638TIP3    H256406   6.228   1.320  11.407  0.7022 -0.0344  1.9456
11639TIP3   OH256407   1.483   0.252  17.150 -0.1438 -0.4399  0.2882
11639TIP3    H156408   1.549   0.287  17.210 -1.0473  0.5129  0.7674
11639TIP3    H256409   1.427   0.327  17.130 -0.9845 -1.1873 -0.2377
11640TIP3   OH256410   6.590   5.391   6.127  0.2544  0.6445  0.6594
11640TIP3    H156411   6.600   5.388   6.031  1.8247  0.6310  0.7893
11640TIP3    H256412   6.546   5.309   6.149 -0.1601  0.6649 -0.0561
11641TIP3   OH256413   6.761   0.714  10.849 -0.4675  0.8379 -0.2013
11641TIP3    H156414   6.798   0.733  10.763 -0.7648 -2.0278 -1.0855
11641TIP3    H256415   6.666   0.715  10.835 -0.5132  0.1836  0.0286
11642TIP3   OH256416   4.844   1.579  14.515  0.2848 -0.2088 -0.2613
11642TIP3    H156417   4.781   1.583  14.443 -0.2959  0.1786  0.2526
11642TIP3    H256418   4.791   1.594  14.594  0.9260 -0.4982  0.2338
11643TIP3   OH256419   4.926   4.483  14.471  0.4307 -0.7855 -0.2993
11643TIP3    H156420   4.880   4.432  14.404 -4.8141  0.5880  1.7427
11643TIP3    H256421   4.894   4.448  14.554  3.2189  0.4612  1.4648
11644TIP3   OH256422   3.803   5.352   2.089  0.0485  0.3665 -0.5091
11644TIP3    H156423   3.824   5.258   2.087 -0.9229  0.1508 -1.4530
11644TIP3    H256424   3.852   5.386   2.164 -0.6941 -1.1698  0.7234
11645TIP3   OH256425   6.502   2.228   3.802  0.4738 -0.1724  0.0880
11645TIP3    H156426   6.550   2.310   3.791  1.0733 -0.4932  0.2879
11645TIP3    H256427   6.482   2.200   3.712 -0.1440  0.4287  0.0356
11646TIP3   OH256428   6.331   2.064  16.338  0.7985  0.0969 -0.0224
11646TIP3    H156429   6.350   2.042  16.247  0.5453  0.9192 -0.2841
11646TIP3    H256430   6.259   2.005  16.362  1.0513 -0.3135 -0.2623
11647TIP3   OH256431   3.641   6.383  11.119  0.2743  0.2328  0.0120
11647TIP3    H156432   3.603   6.312  11.172 -0.4122 -1.1066 -2.1318
11647TIP3    H256433   3.627   6.355  11.029  2.1646  1.9957 -0.9093
11648TIP3   OH256434   1.286   2.856  13.528 -0.6948  0.5900  0.1098
11648TIP3    H156435   1.216   2.900  13.481 -1.4766  1.1932  1.7744
11648TIP3    H256436   1.323   2.923  13.585 -2.1338 -0.8742  2.9630
11649TIP3   OH256437   2.773   2.113  15.651  0.4685  0.1578 -0.0204
11649TIP3    H156438   2.751   2.206  15.655 -1.2004 -0.2253  0.4408
11649TIP3    H256439   2.782   2.094  15.558  1.0398  0.8125 -0.1064
11650TIP3   OH256440   1.975   3.596   3.766 -0.4132  0.1350  0.3083
11650TIP3    H156441   1.930   3.681   3.768 -1.8246 -0.5927  0.6193
11650TIP3    H256442   2.000   3.581   3.857 -0.5063  0.0485  0.3199
11651TIP3   OH256443   2.628   0.813   0.496 -0.1874 -0.3832 -0.6319
11651TIP3    H156444   2.554   0.783   0.443 -0.3799 -0.5390 -0.2801
11651TIP3    H256445   2.630   0.908   0.484  1.0038 -0.6023 -2.5077
11652TIP3   OH256446   2.148   6.075   0.568  0.0135  0.1717  0.2233
11652TIP3    H156447   2.237   6.096   0.596  0.4785 -1.3895 -0.0046
11652TIP3    H256448   2.096   6.151   0.595  1.4764  1.3155 -0.0525
11653TIP3   OH256449   2.590   1.983  11.721  0.2315 -0.1878 -0.0764
11653TIP3    H156450   2.635   1.979  11.637 -2.5805 -0.0204 -1.7111
11653TIP3    H256451   2.585   2.076  11.742 -0.3432 -0.1079 -0.5226
11654TIP3   OH256452   1.168   4.198  12.845  0.5898  0.0230 -0.1380
11654TIP3    H156453   1.073   4.211  12.844  0.6151  0.3608 -2.4794
11654TIP3    H256454   1.204   4.287  12.845  0.8716 -0.0800 -1.2890
11655TIP3   OH256455   1.326   5.021  14.832 -0.4195  0.2649 -0.4437
11655TIP3    H156456   1.347   5.070  14.912  0.9676 -1.1714  0.1127
11655TIP3    H256457   1.268   4.951  14.861  0.6414 -0.6791 -0.5458
11656TIP3   OH256458   5.434   0.870  12.608 -0.1281  1.0184  0.0284
11656TIP3    H156459   5.456   0.941  12.668 -1.5567  0.5777  1.1395
11656TIP3    H256460   5.405   0.799  12.665  0.0071 -0.0026 -1.1258
11657TIP3   OH256461   2.991   3.428   1.965 -0.5609 -0.0747 -0.1428
11657TIP3    H156462   3.020   3.519   1.965 -0.1865 -0.1900 -0.5174
11657TIP3    H256463   3.007   3.398   1.875 -0.2232 -0.6511  0.1018
11658TIP3   OH256464   1.302   0.481  17.115  0.5404  0.0490 -0.0460
11658TIP3    H156465   1.249   0.530  17.178  1.4398  1.3147 -0.2448
11658TIP3    H256466   1.361   0.546  17.077 -0.2174 -0.6131 -2.4916
11659TIP3   OH256467   0.504   5.137   2.780 -0.7494  1.0110 -0.0681
11659TIP3    H156468   0.580   5.094   2.741 -1.3998 -1.4340  1.1529
11659TIP3    H256469   0.535   5.225   2.802  1.1736  0.6686 -1.1788
11660TIP3   OH256470   6.356   3.469   0.558  0.0356  0.5472 -0.5453
11660TIP3    H156471   6.333   3.556   0.524  0.3947  0.4441 -1.0794
11660TIP3    H256472   6.275   3.419   0.553  0.3256  0.1804 -2.4113
11661TIP3   OH256473   2.712   2.827   5.233  0.0809 -0.5062 -0.7498
11661TIP3    H156474   2.799   2.791   5.218  0.5078  0.2270 -0.1243
11661TIP3    H256475   2.725   2.895   5.298 -0.9506 -0.3094 -0.7232
11662TIP3   OH256476   5.486   2.637   0.823  0.4567  0.3710 -0.0931
11662TIP3    H156477   5.552   2.695   0.785  0.6484  0.1262 -0.1299
11662TIP3    H256478   5.430   2.696   0.874 -0.0356  0.7528 -1.0594
11663TIP3   OH256479   0.406   6.272  16.590 -0.0197  0.0768 -0.4414
11663TIP3    H156480   0.420   6.342  16.526  0.4696  1.0569  0.7028
11663TIP3    H256481   0.311   6.271  16.603 -0.0715  0.2423 -0.7833
11664TIP3   OH256482   4.029   2.281   2.875 -0.0138 -0.0074 -0.3323
11664TIP3    H156483   4.066   2.304   2.789 -0.4495  1.0308 -0.2513
11664TIP3    H256484   3.935   2.299   2.867  0.0379  0.7363  0.5651
11665TIP3   OH256485   4.561   6.731  12.432  0.3657 -0.2506 -0.2960
11665TIP3    H156486   4.611   6.655  12.462  0.6624  0.0556 -0.0081
11665TIP3    H256487   4.600   6.753  12.347  0.5135 -0.2043 -0.2165
11666TIP3   OH256488   0.192   1.192  12.830 -0.1523  0.2324 -0.0885
11666TIP3    H156489   0.236   1.233  12.904  0.3070 -0.5550  0.0943
11666TIP3    H256490   0.178   1.263  12.768 -0.7278  0.9525  0.8241
11667TIP3   OH256491   3.032   5.882   0.402  0.0799  0.7127 -0.1009
11667TIP3    H156492   2.975   5.880   0.479  0.4356  0.9844  0.1690
11667TIP3    H256493   2.999   5.811   0.347  0.5114 -0.2182  0.8028
11668TIP3   OH256494   4.606   3.970  13.683 -0.3920  0.6971 -0.2013
11668TIP3    H156495   4.598   3.998  13.592 -0.9958 -0.5918 -0.5620
11668TIP3    H256496   4.691   3.926  13.688 -1.1035 -0.7498 -0.5767
11669TIP3   OH256497   3.279   5.753   1.569  0.2702  0.2689 -0.4355
11669TIP3    H156498   3.371   5.770   1.550  0.6032 -0.9008  0.0310
11669TIP3    H256499   3.281   5.691   1.642 -0.9066  0.9622  0.2023
11670TIP3   OH256500   1.861   6.567   4.027  0.2445  0.3350 -0.3317
11670TIP3    H156501   1.798   6.605   3.966 -0.8139 -0.6490  0.0953
11670TIP3    H256502   1.887   6.484   3.987 -0.3789 -0.2695  0.4634
11671TIP3   OH256503   1.567   0.085   2.264  0.5390  0.2234 -0.6773
11671TIP3    H156504   1.649   0.130   2.284  0.5848 -0.7858  1.7563
11671TIP3    H256505   1.501   0.155   2.265  1.0431  0.7040 -0.1869
11672TIP3   OH256506   4.505   1.337   4.009 -0.3094  0.1263  0.2453
11672TIP3    H156507   4.476   1.266   3.953  0.8859 -0.1341 -0.0672
11672TIP3    H256508   4.473   1.417   3.966 -0.7471 -0.1543  0.0457
11673TIP3   OH256509   1.096   4.292  14.105  0.2283 -0.4492 -0.0773
11673TIP3    H156510   1.060   4.245  14.181  1.8704 -0.4239  0.7519
11673TIP3    H256511   1.177   4.331  14.137 -0.1844  1.4711 -1.2506
11674TIP3   OH256512   5.944   0.200  14.396  0.4632 -0.5132 -0.3096
11674TIP3    H156513   6.039   0.195  14.407  0.4776  0.5206  0.1707
11674TIP3    H256514   5.932   0.246  14.313  0.4476  2.2696  1.1103
11675TIP3   OH256515   1.535   4.724   0.984  0.3464  0.5477  0.6531
11675TIP3    H156516   1.534   4.810   0.940  0.2416 -0.4767 -1.4720
11675TIP3    H256517   1.447   4.715   1.021 -1.1325 -0.2881 -2.6878
11676TIP3   OH256518   2.022   3.741  13.272  0.2404  0.3609 -0.3066
11676TIP3    H156519   2.024   3.753  13.367 -0.6113 -1.0713 -0.0796
11676TIP3    H256520   2.009   3.829  13.237 -0.8517  0.7557  0.9836
11677TIP3   OH256521   2.951   3.001  11.894  0.1004  0.0767 -0.3555
11677TIP3    H156522   2.945   3.013  11.988  1.1676  0.8074 -0.3597
11677TIP3    H256523   3.036   2.959  11.880 -0.8930 -1.9033 -0.8564
11678TIP3   OH256524   2.852   6.377  14.716 -0.2519  0.7052  0.1188
11678TIP3    H156525   2.828   6.461  14.676 -0.7224  1.0842  1.1694
11678TIP3    H256526   2.879   6.323  14.642 -1.5575  1.2221 -0.7652
11679TIP3   OH256527   0.058   0.409   0.419 -0.3028  0.2353 -0.1986
11679TIP3    H156528  -0.001   0.385   0.348  0.5722  0.2543 -0.9427
11679TIP3    H256529   0.136   0.355   0.406  0.4816  1.3038 -0.1565
11680TIP3   OH256530   5.469   2.923   1.721 -0.0789 -0.0194  0.1880
11680TIP3    H156531   5.460   2.836   1.758 -0.8350 -0.3404 -0.7079
11680TIP3    H256532   5.441   2.914   1.629  1.5635  0.7834 -0.4385
11681TIP3   OH256533   3.097   1.753  13.355  0.8943 -0.5584 -0.0857
11681TIP3    H156534   3.106   1.836  13.309 -0.6289  0.0748  0.7159
11681TIP3    H256535   3.185   1.735  13.388  1.4970  0.1284 -1.2497
11682TIP3   OH256536   1.920   1.243  12.572 -0.3812  0.0495  0.7785
11682TIP3    H156537   1.871   1.325  12.574  1.5570  1.2902 -0.0842
11682TIP3    H256538   1.933   1.220  12.664 -0.1051  1.2618  1.0542
11683TIP3   OH256539   4.054   0.550   5.176 -0.1127  0.4734 -0.6774
11683TIP3    H156540   4.134   0.602   5.172  0.2014  0.0559 -0.0486
11683TIP3    H256541   4.010   0.567   5.093  0.8269  0.3800 -1.2086
11684TIP3   OH256542   1.150   4.129  12.394 -0.7749 -0.0490 -0.2381
11684TIP3    H156543   1.224   4.184  12.420 -1.2527 -0.6282  2.8383
11684TIP3    H256544   1.076   4.165  12.443 -2.2531 -0.3028 -2.1926
11685TIP3   OH256545   6.690   3.625  11.981  0.0783  0.1683 -0.5736
11685TIP3    H156546   6.729   3.629  12.069  0.7752  0.9404 -0.9101
11685TIP3    H256547   6.635   3.547  11.984  0.5125 -0.1275  0.3807
11686TIP3   OH256548   5.390   2.750  17.408  0.8319  0.2192 -0.3251
11686TIP3    H156549   5.482   2.763  17.382  0.6087  0.2783 -1.0902
11686TIP3    H256550   5.384   2.657  17.428  0.9645  0.1421 -0.6468
11687TIP3   OH256551   1.048   2.932   5.957 -0.0499  0.0881  0.4796
11687TIP3    H156552   0.992   2.957   6.031 -0.1920  0.1318  0.3574
11687TIP3    H256553   1.058   2.837   5.965  0.6727  0.2004  1.0775
11688TIP3   OH256554   6.682   5.305  11.434 -0.7120 -0.1789  0.2738
11688TIP3    H156555   6.607   5.351  11.471 -0.4195  0.8869 -0.3917
11688TIP3    H256556   6.711   5.245  11.503 -2.5998 -1.1426  0.2803
11689TIP3   OH256557   4.138   3.228  14.421 -0.3553  0.0784 -0.0100
11689TIP3    H156558   4.175   3.235  14.333  0.2980 -0.2021  0.2379
11689TIP3    H256559   4.140   3.134  14.441 -1.4703  0.0184 -0.0985
11690TIP3   OH256560   3.505   3.138   5.761 -0.0523  0.3517  1.0358
11690TIP3    H156561   3.600   3.129   5.769  0.2080  0.5713 -1.2137
11690TIP3    H256562   3.473   3.048   5.752  0.3556  0.3821 -1.4151
11691TIP3   OH256563   0.049   5.790   0.332 -0.3523  0.1790 -0.6034
11691TIP3    H156564   0.105   5.840   0.272 -0.7607  0.0256 -1.1154
11691TIP3    H256565   0.110   5.757   0.398  0.1666  0.0259 -1.1415
11692TIP3   OH256566   5.043   5.857  14.731 -0.2273 -0.2858 -0.3311
11692TIP3    H156567   5.080   5.944  14.747 -1.1589 -0.1902  1.5171
11692TIP3    H256568   5.119   5.800  14.729  0.2749  0.3401  0.2080
11693TIP3   OH256569   3.298   2.352  17.161 -0.4843  0.1384 -0.3474
11693TIP3    H156570   3.326   2.426  17.215  0.4472 -0.2932 -0.2390
11693TIP3    H256571   3.361   2.349  17.089 -0.0615 -1.0334  0.0613
11694TIP3   OH256572   1.404   5.142   5.946  0.1581  0.4336  0.8237
11694TIP3    H156573   1.319   5.170   5.978 -0.9817 -2.7013  0.8460
11694TIP3    H256574   1.385   5.088   5.870  2.0299 -0.9966  1.2859
11695TIP3   OH256575   5.891   0.733  12.254 -0.1559  0.1215  0.3319
11695TIP3    H156576   5.978   0.755  12.220 -0.2103  2.4130  1.5083
11695TIP3    H256577   5.833   0.797  12.213 -0.7381  0.7325  2.0455
11696TIP3   OH256578   0.653   0.010  12.572 -0.2929 -0.3402  0.1680
11696TIP3    H156579   0.640   0.082  12.633  1.0908  0.2195 -0.1758
11696TIP3    H256580   0.681   0.051  12.490  1.6954 -1.2755  0.3019
11697TIP3   OH256581   5.352   2.634   3.593 -0.0342 -0.2166  0.4897
11697TIP3    H156582   5.272   2.626   3.541  1.4962 -1.1042 -1.8718
11697TIP3    H256583   5.364   2.548   3.633 -0.1472 -0.1503  0.6661
11698TIP3   OH256584   0.303   3.253  13.420  0.2875 -0.3372  0.9151
11698TIP3    H156585   0.372   3.225  13.479  0.6150 -1.9658 -0.1501
11698TIP3    H256586   0.337   3.234  13.332 -0.7884  0.5315  0.2791
11699TIP3   OH256587   3.968   6.406  14.994  0.5097  0.7922 -0.1048
11699TIP3    H156588   4.059   6.435  14.991  1.0194 -0.6601  0.3372
11699TIP3    H256589   3.920   6.473  14.946  1.6012  2.3198  0.8157
11700TIP3   OH256590   3.624   4.320  15.951 -0.2383  0.2809 -0.1412
11700TIP3    H156591   3.588   4.338  15.864 -2.8666 -0.4465  0.6802
11700TIP3    H256592   3.573   4.375  16.010  2.4304  1.8189  0.9124
11701TIP3   OH256593   2.206   4.784  12.231  0.2364 -0.5089  0.4057
11701TIP3    H156594   2.136   4.723  12.209 -0.8137  1.1221 -1.0470
11701TIP3    H256595   2.247   4.804  12.147  1.7111 -0.5220  1.0865
11702TIP3   OH256596   6.253   2.716   4.229  0.1690  0.4704 -0.4499
11702TIP3    H156597   6.333   2.738   4.182  1.0382  0.4057  0.9230
11702TIP3    H256598   6.244   2.621   4.218  0.3833  0.4516 -0.4629
11703TIP3   OH256599   6.118   5.332   0.272  0.1620 -0.2114  0.6205
11703TIP3    H156600   6.197   5.310   0.223 -0.7300  0.4881 -1.1916
11703TIP3    H256601   6.131   5.423   0.299  0.2097 -0.2747  0.8145
11704TIP3   OH256602   6.522   6.484  16.061  0.5120  0.5698  0.3303
11704TIP3    H156603   6.444   6.483  16.117  0.4374  1.5661  0.2703
11704TIP3    H256604   6.565   6.567  16.082  1.0543  0.4595 -0.3148
11705TIP3   OH256605   5.805   5.278   0.132  0.0473 -0.1392 -0.0069
11705TIP3    H156606   5.783   5.342   0.199 -0.1102 -1.1472  0.9418
11705TIP3    H256607   5.728   5.275   0.075  0.2535  0.8576 -0.3436
11706TIP3   OH256608   6.443   1.154   6.437  0.6929  0.3650 -0.1070
11706TIP3    H156609   6.471   1.110   6.517 -0.5134  1.2105  0.8079
11706TIP3    H256610   6.504   1.227   6.427 -0.8405  1.9671  1.6607
11707TIP3   OH256611   1.761   1.471  12.589 -0.3755  0.2326  0.2392
11707TIP3    H156612   1.804   1.556  12.601 -1.5517  0.7988  0.5273
11707TIP3    H256613   1.680   1.477  12.638 -1.0097 -0.6668 -0.6446
11708TIP3   OH256614   2.884   6.255  13.085 -0.0386 -0.4025  0.3454
11708TIP3    H156615   2.916   6.345  13.085 -1.6727  0.2064 -0.0973
11708TIP3    H256616   2.807   6.257  13.142  0.1252 -1.6152  0.6367
11709TIP3   OH256617   2.338   3.660   1.063 -0.0394 -0.0915 -0.4198
11709TIP3    H156618   2.288   3.603   1.122 -0.0954  1.0058  0.6440
11709TIP3    H256619   2.292   3.656   0.980  0.6030 -2.4589 -0.7133
11710TIP3   OH256620   3.605   0.155  13.464  0.0981 -0.5810 -0.1256
11710TIP3    H156621   3.612   0.101  13.385  0.8086 -1.3251  0.4297
11710TIP3    H256622   3.529   0.120  13.510  0.2144 -0.7467 -0.0535
11711TIP3   OH256623   1.243   5.475   1.017 -0.0696  0.1343 -0.3634
11711TIP3    H156624   1.323   5.517   1.048 -0.3141  1.2014 -1.1228
11711TIP3    H256625   1.209   5.535   0.950 -1.3226 -0.4680 -0.2852
11712TIP3   OH256626   1.843   6.314  12.381 -0.1554 -0.0960  0.7753
11712TIP3    H156627   1.893   6.395  12.391 -2.3590  1.5025 -0.1847
11712TIP3    H256628   1.909   6.245  12.380  2.2099  1.9523 -1.8939
11713TIP3   OH256629   4.396   3.331  11.982 -0.7740  0.2012  0.6510
11713TIP3    H156630   4.436   3.252  12.016  1.3071  1.5765  1.6193
11713TIP3    H256631   4.469   3.392  11.971 -2.1527  1.6633 -1.0269
11714TIP3   OH256632   0.478   4.850   1.977  0.5206 -0.1727 -0.3852
11714TIP3    H156633   0.390   4.867   1.942 -0.4465 -0.6136  1.6829
11714TIP3    H256634   0.509   4.775   1.927 -0.3131 -0.0880 -1.0672
11715TIP3   OH256635   5.200   1.605  16.076  0.0184 -0.0854  0.0078
11715TIP3    H156636   5.291   1.604  16.105  0.9136 -0.4903 -2.5451
11715TIP3    H256637   5.165   1.519  16.100  0.2858  0.0657  0.9718
11716TIP3   OH256638   1.505   3.885  14.219 -0.3931 -0.3202  0.0176
11716TIP3    H156639   1.513   3.853  14.309 -1.4641 -2.3819 -0.5439
11716TIP3    H256640   1.422   3.934  14.219  1.4037  3.0503  0.9557
11717TIP3   OH256641   3.777   3.910  15.585 -0.7671  0.0327  0.2984
11717TIP3    H156642   3.751   3.885  15.496 -0.5022  0.1950  0.1747
11717TIP3    H256643   3.695   3.912  15.634 -0.9940  0.5685 -0.0985
11718TIP3   OH256644   5.676   1.294  13.976 -0.1740 -0.2732  0.2906
11718TIP3    H156645   5.650   1.216  13.926 -1.1051  0.5865 -0.6145
11718TIP3    H256646   5.602   1.354  13.967  1.6755  1.9161 -1.5673
11719TIP3   OH256647   5.912   1.871   2.211  0.2621 -0.3390  0.1555
11719TIP3    H156648   5.934   1.858   2.119  0.0638  0.8402 -0.0783
11719TIP3    H256649   5.983   1.830   2.259  0.8155 -0.2061 -0.5381
11720TIP3   OH256650   6.503   5.088  12.140  0.0779  0.2205  0.3817
11720TIP3    H156651   6.566   5.015  12.138 -0.4498 -0.2391 -1.1428
11720TIP3    H256652   6.454   5.075  12.221  0.5790 -0.6127  0.5680
11721TIP3   OH256653   1.096   2.205   4.651  0.5845  0.1742 -0.5786
11721TIP3    H156654   1.023   2.268   4.651  0.8058  0.4359 -0.8707
11721TIP3    H256655   1.173   2.259   4.672  0.6677 -0.1338 -0.0781
11722TIP3   OH256656   0.671   4.436   1.253 -0.0259  0.3150 -0.0061
11722TIP3    H156657   0.673   4.359   1.310 -0.7250  0.8319  0.7514
11722TIP3    H256658   0.763   4.451   1.230  0.1841 -0.3715  0.3459
11723TIP3   OH256659   5.576   5.858  16.547 -0.1338 -0.3048  0.4802
11723TIP3    H156660   5.579   5.953  16.553  0.2445 -0.2702 -0.0884
11723TIP3    H256661   5.520   5.830  16.619  0.0854  0.3217  0.8998
11724TIP3   OH256662   3.028   4.905   3.331 -0.1305  0.3265 -0.0691
11724TIP3    H156663   2.959   4.848   3.366 -0.7394  0.5861 -0.8393
11724TIP3    H256664   3.005   4.992   3.362  0.0507  0.3617 -0.0320
11725TIP3   OH256665   0.433   0.436  14.134  0.2462  0.1336 -0.7982
11725TIP3    H156666   0.466   0.526  14.137  1.7365 -0.3165 -2.1445
11725TIP3    H256667   0.501   0.388  14.086 -0.7396 -1.6159 -0.5046
11726TIP3   OH256668   5.900   6.466   6.925  0.3475 -0.3718  0.6498
11726TIP3    H156669   5.935   6.452   6.838  0.5462 -0.1428  0.6919
11726TIP3    H256670   5.975   6.496   6.977 -0.1188  1.2052  0.4747
11727TIP3   OH256671   3.744   2.144   5.581 -0.8694  0.3376 -0.8132
11727TIP3    H156672   3.751   2.220   5.523  2.2603  0.5616 -0.3594
11727TIP3    H256673   3.770   2.070   5.526  3.1121  0.6771  0.2745
11728TIP3   OH256674   1.670   3.595   5.520  0.1328  0.1638 -0.0674
11728TIP3    H156675   1.596   3.648   5.493  1.1729  1.6241 -0.1695
11728TIP3    H256676   1.631   3.516   5.557 -1.4787  1.2103  0.5696
11729TIP3   OH256677   6.565   4.803  12.280 -0.0473 -0.6711 -0.3972
11729TIP3    H156678   6.559   4.717  12.321  0.7161 -0.9883 -0.9329
11729TIP3    H256679   6.478   4.841  12.292 -0.3182 -1.4114  0.0681
11730TIP3   OH256680   0.809   0.709   2.115 -0.2287  0.1976  0.2553
11730TIP3    H156681   0.808   0.620   2.149 -0.1449 -0.2976 -0.9610
11730TIP3    H256682   0.847   0.701   2.027  0.5812  1.5623  0.4473
11731TIP3   OH256683   4.350   1.347  15.662  0.8735 -0.2377  0.4052
11731TIP3    H156684   4.414   1.316  15.597  1.8048  1.2056  0.5968
11731TIP3    H256685   4.392   1.422  15.704 -0.6277  0.2531  1.1106
11732TIP3   OH256686   2.882   4.388  12.707 -0.3554 -0.0948 -0.0636
11732TIP3    H156687   2.809   4.431  12.662 -0.8758 -0.6503  0.2213
11732TIP3    H256688   2.877   4.297  12.677 -1.2542 -0.6892  1.7419
11733TIP3   OH256689   3.881   5.427  14.919 -0.3313 -0.3925 -0.3082
11733TIP3    H156690   3.929   5.381  14.987 -1.7306  1.1387  1.8419
11733TIP3    H256691   3.813   5.365  14.892 -1.9818  0.1334  2.3038
11734TIP3   OH256692   5.640   6.755   5.136  0.2873  0.7047 -0.3441
11734TIP3    H156693   5.726   6.731   5.101 -0.0601  1.5547 -1.8662
11734TIP3    H256694   5.610   6.677   5.182  2.3208  0.7326  1.1538
11735TIP3   OH256695   6.584   5.363  13.297 -0.0133  0.2714 -0.2416
11735TIP3    H156696   6.672   5.335  13.270  0.1518 -0.3341  0.8607
11735TIP3    H256697   6.572   5.448  13.254 -0.2066 -1.0536 -3.0264
11736TIP3   OH256698   5.735   0.705  15.427 -0.3335  0.1128  0.4350
11736TIP3    H156699   5.777   0.657  15.355  0.4900  1.7375 -0.2562
11736TIP3    H256700   5.643   0.679  15.423 -0.0577 -0.8221 -0.3735
11737TIP3   OH256701   2.165   6.086  15.180  0.4296  1.0660  0.3870
11737TIP3    H156702   2.173   6.158  15.117  1.6843  0.3649 -0.2998
11737TIP3    H256703   2.224   6.111  15.252  0.8914  0.7299  0.1331
11738TIP3   OH256704   3.275   3.455   2.077  0.2439  0.5834  0.1995
11738TIP3    H156705   3.343   3.444   2.144 -0.9749  0.8538  1.5306
11738TIP3    H256706   3.206   3.394   2.104 -0.7056  1.4502 -0.2119
11739TIP3   OH256707   6.064   0.712  11.682  0.8688 -0.3449 -0.4176
11739TIP3    H156708   6.001   0.644  11.704  0.0464  0.5313  0.0060
11739TIP3    H256709   6.065   0.714  11.587  0.3331 -0.4552 -0.4302
11740TIP3   OH256710   6.396   6.442  16.910 -0.2200 -0.5095  0.2468
11740TIP3    H156711   6.326   6.411  16.853  1.3114  0.1835 -2.1312
11740TIP3    H256712   6.380   6.535  16.920 -0.2048 -0.5379  0.5651
11741TIP3   OH256713   2.922   4.160   1.225  0.1953  0.2561  0.3515
11741TIP3    H156714   2.930   4.138   1.318  1.1354 -3.2594 -0.4026
11741TIP3    H256715   2.963   4.245   1.217  0.0206  0.7166  3.1567
11742TIP3   OH256716   3.727   1.504   6.097 -0.0164  0.1878  0.2043
11742TIP3    H156717   3.652   1.562   6.113 -2.3162 -2.4659  0.0079
11742TIP3    H256718   3.694   1.417   6.120  2.4156 -1.3892 -1.7678
11743TIP3   OH256719   0.430   3.205  15.322 -0.1004  0.4698 -0.4148
11743TIP3    H156720   0.414   3.116  15.354 -0.0191  0.1168 -1.3233
11743TIP3    H256721   0.343   3.245  15.316 -0.2025  0.2072 -0.6896
11744TIP3   OH256722   2.796   3.404   5.302 -0.3106 -0.3861 -0.0273
11744TIP3    H156723   2.755   3.451   5.229 -0.1178 -2.6788 -1.7265
11744TIP3    H256724   2.890   3.415   5.287 -0.2304  1.1389  1.3229
11745TIP3   OH256725   3.710   6.745  16.475  0.0447  0.1124  0.4049
11745TIP3    H156726   3.697   6.690  16.553 -0.2443 -0.6150 -0.1403
11745TIP3    H256727   3.684   6.688  16.402 -0.9089  1.2010 -0.1307
11746TIP3   OH256728   5.060   0.381  14.978  0.1025 -0.0772  0.0045
11746TIP3    H156729   5.138   0.342  14.940  0.3080  0.6448 -0.3207
11746TIP3    H256730   5.092   0.449  15.036 -0.1842 -1.3945  1.8093
11747TIP3   OH256731   3.212   1.914   1.446  0.3088 -0.0025 -0.1918
11747TIP3    H156732   3.197   1.986   1.384  0.4920  0.1340 -0.0802
11747TIP3    H256733   3.127   1.871   1.454  0.6657 -1.1054 -1.8796
11748TIP3   OH256734   1.204   2.189   2.045 -0.2454 -0.8931  0.2601
11748TIP3    H156735   1.289   2.197   2.003  0.4184 -0.7120  1.6097
11748TIP3    H256736   1.172   2.279   2.053  0.6453 -0.6888  2.1198
11749TIP3   OH256737   2.164   0.530  13.207 -0.4688 -0.0756 -0.2244
11749TIP3    H156738   2.158   0.461  13.273  0.1491 -1.1142 -1.2279
11749TIP3    H256739   2.074   0.544  13.179 -0.5970 -0.5188 -0.0448
11750TIP3   OH256740   2.843   0.950   0.924 -0.0692 -0.5386  0.5325
11750TIP3    H156741   2.794   0.901   0.857 -0.4227 -1.2320  1.2711
11750TIP3    H256742   2.897   0.883   0.967 -1.9190 -0.7302  2.8022
11751TIP3   OH256743   1.424   0.292  12.616  0.1910  0.8489  0.2070
11751TIP3    H156744   1.336   0.299  12.653 -1.0313  1.9810 -2.5949
11751TIP3    H256745   1.427   0.204  12.578  0.1745  0.8910  0.1068
11752TIP3   OH256746   6.163   5.498  12.308 -0.3683  0.3372 -0.4365
11752TIP3    H156747   6.079   5.543  12.306 -0.4234  0.1998 -1.3419
11752TIP3    H256748   6.208   5.527  12.229  0.5979  0.7039  0.2226
11753TIP3   OH256749   4.561   1.399   2.130 -0.0497  0.0859  0.1754
11753TIP3    H156750   4.630   1.439   2.077 -0.2751  0.0742 -0.1282
11753TIP3    H256751   4.481   1.416   2.081 -0.2376 -0.0756  0.4289
11754TIP3   OH256752   2.642   1.560   5.518 -0.1185 -0.1440  0.1524
11754TIP3    H156753   2.586   1.634   5.494 -0.5960 -0.9405 -1.3309
11754TIP3    H256754   2.610   1.532   5.603 -1.8167 -0.3836 -0.5155
11755TIP3   OH256755   1.091   6.620  13.512 -0.1482 -0.2487 -0.3424
11755TIP3    H156756   1.178   6.587  13.534 -0.8626 -1.1331  1.4043
11755TIP3    H256757   1.054   6.645  13.597 -1.2098  1.1423 -1.1765
11756TIP3   OH256758   4.906   3.236  13.787  0.6044 -0.3421  0.3162
11756TIP3    H156759   4.974   3.280  13.737 -0.2168 -0.5088 -1.0152
11756TIP3    H256760   4.849   3.306  13.817 -0.2383 -0.3770 -1.0915
11757TIP3   OH256761   3.669   5.932  14.354 -0.1512 -0.7318 -0.4819
11757TIP3    H156762   3.603   6.001  14.362  1.1345  0.7265 -1.8597
11757TIP3    H256763   3.623   5.852  14.381 -1.3755  0.7733  2.2923
11758TIP3   OH256764   1.991   5.728   4.980 -0.0276 -0.4049  0.4921
11758TIP3    H156765   2.081   5.749   4.956 -0.4859 -1.2021 -2.3802
11758TIP3    H256766   1.941   5.807   4.959 -0.2772 -0.7007 -0.0542
11759TIP3   OH256767   1.708   0.779   1.948  0.3320 -0.4527 -0.5485
11759TIP3    H156768   1.700   0.734   1.864 -0.2973 -0.1331 -0.6652
11759TIP3    H256769   1.705   0.872   1.925  1.5357 -0.3441 -0.3031
11760TIP3   OH256770   6.022   0.836  17.165 -0.7132 -0.2280  0.4803
11760TIP3    H156771   5.944   0.883  17.195 -1.0186  0.1006 -0.7640
11760TIP3    H256772   6.095   0.883  17.204 -0.9493  1.9704 -1.5148
11761TIP3   OH256773   5.032   4.513  12.906  0.9129 -0.5480  0.2015
11761TIP3    H156774   4.945   4.477  12.894  1.4388 -2.0599  0.6850
11761TIP3    H256775   5.028   4.601  12.868  0.0046 -1.6481 -2.4067
11762TIP3   OH256776   5.061   5.031   3.709 -0.1823  0.1959  0.2695
11762TIP3    H156777   5.154   5.024   3.731 -0.3569 -0.7933  0.7199
11762TIP3    H256778   5.015   5.002   3.788 -0.8610 -0.3600 -0.3227
11763TIP3   OH256779   3.437   4.346  16.804  0.1236 -0.6945  0.5615
11763TIP3    H156780   3.512   4.289  16.791 -0.0392 -0.7813 -0.0571
11763TIP3    H256781   3.382   4.331  16.727 -0.2021 -0.1390  0.6782
11764TIP3   OH256782   2.073   6.583   4.477 -0.0188 -0.7174 -0.4105
11764TIP3    H156783   2.161   6.618   4.490 -0.0363 -0.3779 -1.1190
11764TIP3    H256784   2.018   6.660   4.469 -0.5617 -0.9260  1.0392
11765TIP3   OH256785   3.127   0.930   5.311  0.4401  0.1169 -0.2495
11765TIP3    H156786   3.149   0.866   5.378 -0.8393 -0.7515 -0.6310
11765TIP3    H256787   3.173   0.899   5.233  0.2097 -0.0670 -0.3124
11766TIP3   OH256788   1.848   4.918   4.180  0.8517 -0.1680  0.5373
11766TIP3    H156789   1.800   4.945   4.102  1.8384  1.7799  0.5343
11766TIP3    H256790   1.788   4.860   4.226  0.3336 -1.5773 -1.7527
11767TIP3   OH256791   2.821   2.106   0.634 -0.2166 -0.3231  0.2483
11767TIP3    H156792   2.794   2.193   0.660  0.4333 -0.5104  1.6099
11767TIP3    H256793   2.830   2.111   0.539 -0.7660  0.9155  0.2497
11768TIP3   OH256794   3.599   5.479  13.333 -0.1002  0.8653 -0.2919
11768TIP3    H156795   3.671   5.423  13.362  1.0620  2.7219  0.5995
11768TIP3    H256796   3.527   5.419  13.315  0.8614 -0.8535  1.2926
11769TIP3   OH256797   4.408   6.706  15.977 -0.3141 -0.0855 -0.1376
11769TIP3    H156798   4.386   6.617  16.005  0.0113 -1.1071 -2.8161
11769TIP3    H256799   4.329   6.737  15.933 -0.0792  0.5660 -0.1100
11770TIP3   OH256800   3.703   5.128   4.515  0.1844  0.2385 -0.5309
11770TIP3    H156801   3.654   5.046   4.505  1.4505 -0.5358 -0.6019
11770TIP3    H256802   3.693   5.172   4.431 -0.6374  0.2426 -0.4410
11771TIP3   OH256803   4.851   0.344  15.454  0.0316 -0.0745  0.3159
11771TIP3    H156804   4.933   0.392  15.459 -0.6666  1.0538  1.3608
11771TIP3    H256805   4.833   0.337  15.360  0.6137  0.9188  0.1147
11772TIP3   OH256806   6.448   3.747   2.188 -0.0547  0.1780 -0.5299
11772TIP3    H156807   6.409   3.678   2.242  0.4203  2.1947  2.6845
11772TIP3    H256808   6.542   3.735   2.198  0.0456  1.7241  0.8555
11773TIP3   OH256809   2.344   3.152   2.362 -0.5376  0.4012  0.1904
11773TIP3    H156810   2.379   3.233   2.324  1.6889  0.2166  1.6423
11773TIP3    H256811   2.386   3.082   2.313  0.4378  0.1668  1.3068
11774TIP3   OH256812   6.341   1.972  16.052  0.3132  0.3488  0.7575
11774TIP3    H156813   6.374   1.890  16.090  0.7095  0.0813 -0.1291
11774TIP3    H256814   6.296   1.944  15.972  0.7696  1.0286  0.2528
11775TIP3   OH256815   0.761   4.328   5.403  0.0877  0.3349 -0.3367
11775TIP3    H156816   0.741   4.409   5.357 -1.7917 -0.5728 -1.2421
11775TIP3    H256817   0.730   4.259   5.344  0.9332 -1.0276  0.7381
11776TIP3   OH256818   0.823   2.303  10.923  0.0737 -0.5000  0.2509
11776TIP3    H156819   0.905   2.283  10.877  0.4086 -1.5937  1.2829
11776TIP3    H256820   0.843   2.380  10.976  0.2942 -0.4795  0.1391
11777TIP3   OH256821   1.339   6.210  13.765 -0.4771  0.6885 -0.8435
11777TIP3    H156822   1.403   6.194  13.697 -2.0371  0.6224 -2.3510
11777TIP3    H256823   1.368   6.292  13.806  1.7150 -0.4155 -0.0176
11778TIP3   OH256824   4.214   5.676   0.706  0.5454  0.1215  0.2746
11778TIP3    H156825   4.270   5.733   0.652 -1.4261  0.5241 -1.4862
11778TIP3    H256826   4.172   5.735   0.768  0.4776  0.1772  0.1771
11779TIP3   OH256827   0.533   4.344   2.591  0.5464 -1.0007  0.1745
11779TIP3    H156828   0.494   4.269   2.546  0.1757 -0.4972 -0.3616
11779TIP3    H256829   0.498   4.338   2.680  1.7068 -2.3043  0.5788
11780TIP3   OH256830   2.246   2.229   1.837  0.0498 -0.1549  0.1015
11780TIP3    H156831   2.173   2.217   1.899 -0.6001  0.8836 -0.4334
11780TIP3    H256832   2.203   2.257   1.756  1.0957  1.0651 -0.0485
11781TIP3   OH256833   5.463   4.205  14.043 -0.3600 -0.0642  0.0430
11781TIP3    H156834   5.543   4.227  14.092  1.3949  2.6241 -3.5973
11781TIP3    H256835   5.397   4.265  14.077 -0.5999 -1.3959  2.1401
11782TIP3   OH256836   2.824   5.787   4.829  0.0261 -0.1234  0.2378
11782TIP3    H156837   2.844   5.742   4.911 -0.2164 -1.0718 -0.2106
11782TIP3    H256838   2.818   5.718   4.764  1.0199  0.6922 -0.7566
11783TIP3   OH256839   4.537   0.502   3.431 -0.9665 -0.4385 -0.0779
11783TIP3    H156840   4.475   0.454   3.376 -2.3586  1.2636 -0.0744
11783TIP3    H256841   4.482   0.557   3.486  0.5149 -0.1689  1.1806
11784TIP3   OH256842   5.988   3.791  16.096 -0.2690 -0.9791 -0.8281
11784TIP3    H156843   6.057   3.734  16.063 -0.1104 -2.0193  1.1880
11784TIP3    H256844   5.908   3.755  16.059 -0.0594 -1.8288 -0.4714
11785TIP3   OH256845   0.495   6.631   1.981  0.3901  0.0096  0.8608
11785TIP3    H156846   0.552   6.651   1.906 -0.4900  0.9397  0.4309
11785TIP3    H256847   0.506   6.537   1.994 -0.4416 -0.4398 -1.2926
11786TIP3   OH256848   2.369   2.301  14.173 -0.2921  0.4587  0.7136
11786TIP3    H156849   2.311   2.276  14.101 -1.2271 -0.1973  1.6657
11786TIP3    H256850   2.441   2.348  14.131 -0.3593 -0.6921 -0.7421
11787TIP3   OH256851   2.305   6.084   1.785  0.2603  0.2984 -0.1324
11787TIP3    H156852   2.258   6.150   1.835 -1.2846  0.6613 -1.9375
11787TIP3    H256853   2.353   6.134   1.719  0.0908 -0.2886 -0.7110
11788TIP3   OH256854   4.098   4.083   1.071 -0.3489  0.1732 -0.0839
11788TIP3    H156855   4.040   4.056   1.142  0.0821  0.4055  0.3585
11788TIP3    H256856   4.059   4.044   0.992 -0.3173 -0.8744  0.4012
11789TIP3   OH256857   1.942   6.620   1.469 -0.6010 -0.3118  0.1682
11789TIP3    H156858   1.954   6.615   1.374  1.3831  1.4629  0.2497
11789TIP3    H256859   1.947   6.529   1.499 -1.7548 -0.9561 -1.4171
11790TIP3   OH256860   3.663   3.568   3.541 -0.1371 -0.2972 -0.1878
11790TIP3    H156861   3.609   3.501   3.581 -1.9922  1.4668  0.4250
11790TIP3    H256862   3.616   3.650   3.557  1.4849  1.0434 -1.8166
11791TIP3   OH256863   3.641   2.660  11.676 -0.4899 -0.4076 -0.2612
11791TIP3    H156864   3.567   2.619  11.720 -0.6653  0.3156  0.1343
11791TIP3    H256865   3.626   2.754  11.686  0.2699 -0.2489 -0.5279
11792TIP3   OH256866   1.154   5.161   6.069  0.3108  0.0191  0.1177
11792TIP3    H156867   1.190   5.152   6.158 -0.9770 -0.9526  0.5823
11792TIP3    H256868   1.100   5.240   6.073  0.6552  0.2619  0.0407
11793TIP3   OH256869   5.350   1.108   0.375  0.3232  0.0508  0.6146
11793TIP3    H156870   5.376   1.062   0.295  0.6756 -2.5892  2.1312
11793TIP3    H256871   5.431   1.122   0.422 -0.1862 -1.8509  2.1709
11794TIP3   OH256872   5.724   5.386   2.150  0.7105 -0.4065  0.1319
11794TIP3    H156873   5.811   5.404   2.114 -0.2813 -1.7613 -3.3137
11794TIP3    H256874   5.663   5.424   2.086 -1.2617 -1.3213  1.3565
11795TIP3   OH256875   6.142   4.950  17.345  0.2479  0.4615  0.1059
11795TIP3    H156876   6.089   5.026  17.367  0.2221 -0.5257  4.2200
11795TIP3    H256877   6.225   4.964  17.391  1.6743 -0.4193 -2.0019
11796TIP3   OH256878   1.065   3.431   0.730  0.0099  0.6433 -0.0231
11796TIP3    H156879   1.021   3.369   0.673 -1.0996  0.7666  0.6603
11796TIP3    H256880   1.113   3.489   0.671  0.3819 -0.3527 -0.7064
11797TIP3   OH256881   3.492   1.101   4.964 -0.3874 -0.0275 -0.3802
11797TIP3    H156882   3.562   1.156   4.928  1.0450 -1.6739 -0.2306
11797TIP3    H256883   3.414   1.125   4.913  0.6969  0.5595 -1.8341
11798TIP3   OH256884   5.377   1.732  16.794  0.6482 -0.1612 -0.0205
11798TIP3    H156885   5.390   1.818  16.753  0.8890 -1.3218 -2.5446
11798TIP3    H256886   5.287   1.709  16.773  0.0689  0.0832  1.9902
11799TIP3   OH256887   3.246   3.799   5.296  0.0174 -0.0472 -0.0483
11799TIP3    H156888   3.225   3.724   5.352  0.6718  0.8432  1.4366
11799TIP3    H256889   3.325   3.837   5.335 -1.0883  2.2594  0.1142
11800TIP3   OH256890   5.192   3.387  11.640  0.2517  0.4098 -0.1090
11800TIP3    H156891   5.137   3.348  11.571  0.5263  1.9913 -1.2995
11800TIP3    H256892   5.280   3.356  11.620 -0.0497 -1.7413  1.5188
11801TIP3   OH256893   5.619   5.398   4.058 -0.4264 -0.0449  0.3089
11801TIP3    H156894   5.713   5.407   4.071 -0.4272 -0.6048  0.7453
11801TIP3    H256895   5.604   5.303   4.054 -1.0740  0.0062  1.1295
11802TIP3   OH256896   5.637   5.984   0.662 -0.0177 -0.7066 -0.1260
11802TIP3    H156897   5.638   5.943   0.575  0.6614  0.1760 -0.5457
11802TIP3    H256898   5.610   6.074   0.645  3.4208  0.4791  0.0988
11803TIP3   OH256899   2.603   0.088  13.723  0.2580  0.2653 -0.0474
11803TIP3    H156900   2.674   0.152  13.724 -0.5110  1.2442 -2.4651
11803TIP3    H256901   2.573   0.085  13.814  1.0242  2.5697  0.3534
11804TIP3   OH256902   1.591   6.163   5.951 -0.0716 -0.2627  0.3436
11804TIP3    H156903   1.574   6.189   6.041 -2.4999  0.1720 -0.1773
11804TIP3    H256904   1.631   6.240   5.910 -1.2019  0.3985  0.4560
11805TIP3   OH256905   1.619   6.426  12.439  0.3710 -0.3687  0.0924
11805TIP3    H156906   1.699   6.381  12.411  0.8849 -1.0188  2.4306
11805TIP3    H256907   1.550   6.360  12.428  0.2624 -0.0664 -1.1714
11806TIP3   OH256908   3.625   1.302  15.069  0.7041  0.1469  0.4083
11806TIP3    H156909   3.609   1.221  15.118  2.0566  0.5617  1.5941
11806TIP3    H256910   3.589   1.371  15.124 -0.5939  0.3918 -0.6782
11807TIP3   OH256911   3.835   1.456   1.029 -0.3968 -0.2674  0.3675
11807TIP3    H156912   3.809   1.453   1.121  0.9760 -0.7665  0.7688
11807TIP3    H256913   3.860   1.366   1.008  0.6480  0.1022 -0.0643
11808TIP3   OH256914   5.256   6.696  12.685  0.5053 -0.2433  0.1919
11808TIP3    H156915   5.327   6.634  12.671  0.9593  0.6627 -1.9280
11808TIP3    H256916   5.176   6.642  12.680  0.9603 -1.0173  0.9735
11809TIP3   OH256917   4.298   2.572  12.751  0.3632  0.2840  0.5332
11809TIP3    H156918   4.249   2.653  12.733 -0.8407 -0.8833 -1.8937
11809TIP3    H256919   4.359   2.564  12.677  0.3052 -1.1437  0.6210
11810TIP3   OH256920   2.529   6.501  14.457 -0.3215 -0.0997  0.5234
11810TIP3    H156921   2.500   6.523  14.546 -0.8046 -0.0703  0.3620
11810TIP3    H256922   2.575   6.580  14.427  0.2813 -0.2897  0.9264
11811TIP3   OH256923   5.063   4.886  13.675 -0.0153 -0.6030 -0.0489
11811TIP3    H156924   4.968   4.895  13.676 -0.0046 -0.4974  0.1933
11811TIP3    H256925   5.093   4.940  13.748  0.2016 -0.9402  0.1153
11812TIP3   OH256926   2.327   2.105  13.463  0.3192 -0.2137 -0.7469
11812TIP3    H156927   2.241   2.063  13.462  0.2820 -0.1872 -2.4106
11812TIP3    H256928   2.326   2.160  13.541 -0.5470 -1.4472  0.1500
11813TIP3   OH256929   3.167   2.333   1.404 -0.4353 -0.2339 -0.2960
11813TIP3    H156930   3.187   2.418   1.363  1.0648 -0.3459  0.1368
11813TIP3    H256931   3.196   2.269   1.339 -1.7383 -0.4346 -0.6993
11814TIP3   OH256932   2.129   0.823  13.412  0.6031  0.7384  0.1718
11814TIP3    H156933   2.102   0.824  13.320  0.3338  1.5009  0.2516
11814TIP3    H256934   2.217   0.786  13.411  0.8593  1.3537 -0.4696
11815TIP3   OH256935   1.245   2.211  13.370 -0.4645 -0.1577 -0.0832
11815TIP3    H156936   1.181   2.223  13.300  0.5333 -1.7380 -1.3499
11815TIP3    H256937   1.212   2.135  13.419 -0.2497 -0.1615  0.0554
11816TIP3   OH256938   1.969   1.839   3.763 -0.1144  0.3345 -0.3223
11816TIP3    H156939   2.019   1.913   3.799 -1.6081 -0.5601  4.2149
11816TIP3    H256940   2.035   1.776   3.735  1.1817  2.1339 -1.5154
11817TIP3   OH256941   5.795   3.389   1.582  0.5191 -0.0830  0.1164
11817TIP3    H156942   5.719   3.334   1.601 -0.5282  1.2949  0.0449
11817TIP3    H256943   5.779   3.422   1.494  0.6382  1.1230  0.5375
11818TIP3   OH256944   0.359   3.331   1.067  0.1252  0.0632 -0.3975
11818TIP3    H156945   0.273   3.318   1.029  0.2913  1.5778 -1.3628
11818TIP3    H256946   0.343   3.380   1.148  0.0758  0.5618 -0.7020
11819TIP3   OH256947   6.394   6.058   1.905 -0.4677 -1.0118  0.0030
11819TIP3    H156948   6.418   6.033   1.815 -0.1326 -1.7839  0.2951
11819TIP3    H256949   6.475   6.092   1.943 -1.0000  0.9438 -0.4999
11820TIP3   OH256950   4.311   6.546  15.692  0.5793  0.2619 -0.1694
11820TIP3    H156951   4.395   6.519  15.655 -0.2795 -2.1307 -0.5262
11820TIP3    H256952   4.262   6.581  15.618  0.4292 -0.5449 -0.4648
11821TIP3   OH256953   3.906   3.759   2.202 -0.1019  0.1227 -0.2570
11821TIP3    H156954   3.968   3.823   2.167 -1.1285  1.3622  0.0924
11821TIP3    H256955   3.955   3.677   2.206  1.0003  0.6863 -1.5205
11822TIP3   OH256956   2.225   4.683   6.782 -0.2507  0.1447  0.4345
11822TIP3    H156957   2.291   4.614   6.791 -0.4539 -0.0772  0.2486
11822TIP3    H256958   2.148   4.648   6.828 -0.7340 -0.2566 -0.6503
11823TIP3   OH256959   0.746   6.672  14.432 -0.2551  0.0789  0.2047
11823TIP3    H156960   0.705   6.651  14.348 -0.9044 -0.2052  0.5844
11823TIP3    H256961   0.779   6.589  14.464  0.7610  0.3340 -0.1669
11824TIP3   OH256962   3.734   4.030   0.954 -0.4722 -0.0051  0.1477
11824TIP3    H156963   3.687   4.072   0.882  0.4857  2.0396  0.6521
11824TIP3    H256964   3.668   3.973   0.995 -1.5931  0.3493 -1.0779
11825TIP3   OH256965   5.219   2.979   2.368 -0.2235  0.4040 -0.5112
11825TIP3    H156966   5.212   2.998   2.274  0.6776  0.5185 -0.5721
11825TIP3    H256967   5.236   2.885   2.372 -3.5754 -0.2942 -0.2649
11826TIP3   OH256968   2.375   6.143   0.659 -0.0776  0.1110 -0.3789
11826TIP3    H156969   2.359   6.145   0.753  0.0481  2.5342 -0.3633
11826TIP3    H256970   2.462   6.105   0.650 -0.3849 -0.8178  0.3958
11827TIP3   OH256971   5.947   0.816  13.594  0.3506 -0.3137 -0.1765
11827TIP3    H156972   5.897   0.753  13.646  0.0308  0.2204  0.1687
11827TIP3    H256973   5.987   0.763  13.525 -1.5836 -0.5921 -1.1448
11828TIP3   OH256974   1.323   2.605   6.337 -0.6834 -0.1996 -0.7045
11828TIP3    H156975   1.250   2.553   6.371 -0.7191 -0.3587 -1.0222
11828TIP3    H256976   1.315   2.597   6.242 -0.4006 -0.0113 -0.7424
11829TIP3   OH256977   4.986   5.886   4.646  0.5419  0.3333  0.8018
11829TIP3    H156978   4.974   5.826   4.720 -3.7841  0.2507  0.2667
11829TIP3    H256979   4.925   5.957   4.662 -1.9698 -0.5330 -3.3544
11830TIP3   OH256980   0.071   1.971   2.102 -0.4261  0.6643  0.1160
11830TIP3    H156981   0.005   1.968   2.171 -2.6466 -2.5953 -1.8393
11830TIP3    H256982   0.030   2.023   2.033 -0.1767  0.1810 -0.4033
11831TIP3   OH256983   0.123   1.756  15.653  0.1347 -0.3295 -0.3509
11831TIP3    H156984   0.046   1.727  15.605  0.0013 -0.2768 -0.1689
11831TIP3    H256985   0.126   1.851  15.638 -0.1649 -0.2409  0.1100
11832TIP3   OH256986   0.568   5.758  15.653 -0.0931 -0.2101 -0.2592
11832TIP3    H156987   0.613   5.796  15.729  1.7532  1.5534 -2.0821
11832TIP3    H256988   0.493   5.816  15.638 -1.1013 -1.1974  0.8070
11833TIP3   OH256989   4.296   6.189   2.075  0.0850  0.1225  0.3851
11833TIP3    H156990   4.207   6.192   2.111  0.0515 -2.2944  0.6629
11833TIP3    H256991   4.351   6.164   2.149  0.6578 -0.5839 -0.2637
11834TIP3   OH256992   2.034   4.424  11.301  0.0452  0.0602  0.4958
11834TIP3    H156993   2.001   4.340  11.269 -0.3192  0.1518  0.6273
11834TIP3    H256994   2.110   4.443  11.246  0.1948 -0.4117  0.5412
11835TIP3   OH256995   1.534   2.380   1.851 -0.1272  0.4108  0.0866
11835TIP3    H156996   1.604   2.428   1.897  0.0498 -0.1534  0.4166
11835TIP3    H256997   1.530   2.296   1.896 -1.8391  0.8506  0.8711
11836TIP3   OH256998   1.650   3.192  14.767 -0.0720 -0.1794 -0.1182
11836TIP3    H156999   1.558   3.168  14.755 -0.4509  1.0239  0.2881
11836TIP3    H257000   1.655   3.283  14.739  0.9607 -0.1679  0.0708
11837TIP3   OH257001   2.632   4.377   4.808 -0.2557  0.2863  0.0108
11837TIP3    H157002   2.563   4.375   4.741  0.8258 -2.1402 -1.1185
11837TIP3    H257003   2.668   4.465   4.802 -1.4338  0.7201 -1.2731
11838TIP3   OH257004   1.308   6.388   2.649  0.5619  0.1594 -0.2083
11838TIP3    H157005   1.352   6.311   2.611  1.6368  0.3554  0.5808
11838TIP3    H257006   1.341   6.392   2.738 -0.3365  0.9137  0.1017
11839TIP3   OH257007   0.889   4.355  13.052 -0.2602  0.4600 -0.1098
11839TIP3    H157008   0.841   4.437  13.068 -0.6680  0.2087 -0.0279
11839TIP3    H257009   0.934   4.338  13.135 -0.2816  0.5277 -0.0832
11840TIP3   OH257010   3.876   1.674  17.247  0.1580  0.1173 -0.2448
11840TIP3    H157011   3.816   1.629  17.306  0.6320  0.6186  0.6347
11840TIP3    H257012   3.898   1.755  17.292  0.2631  0.6715 -1.2724
11841TIP3   OH257013   6.475   3.634  14.753  0.0994  0.1773  0.5599
11841TIP3    H157014   6.452   3.727  14.748  0.5150  0.2232 -2.3093
11841TIP3    H257015   6.401   3.589  14.713 -0.3201 -0.8087  2.3768
11842TIP3   OH257016   5.250   5.552   2.760  0.1512 -0.4153 -0.0826
11842TIP3    H157017   5.247   5.569   2.855  0.8380  0.2355 -0.1685
11842TIP3    H257018   5.159   5.555   2.732 -0.0918 -0.9752  0.6239
11843TIP3   OH257019   1.775   2.240  15.112  0.0426 -0.6634 -0.1370
11843TIP3    H157020   1.784   2.207  15.202  0.2861 -0.8087 -0.2140
11843TIP3    H257021   1.747   2.331  15.123  1.4082 -0.2406  0.1206
11844TIP3   OH257022   1.449   5.106   1.842  0.3978  0.1270 -0.3817
11844TIP3    H157023   1.475   5.073   1.756  4.5906 -0.2599  0.8258
11844TIP3    H257024   1.442   5.201   1.830  0.8547  0.0727 -1.1493
11845TIP3   OH257025   5.853   5.691  16.232 -0.0993  0.0132  0.1696
11845TIP3    H157026   5.815   5.718  16.149  0.7722 -1.5014 -0.7527
11845TIP3    H257027   5.833   5.763  16.292 -3.0600 -0.0068 -0.6418
11846TIP3   OH257028   0.300   5.312  13.596 -0.3413  0.3006 -0.1122
11846TIP3    H157029   0.354   5.364  13.656 -0.0962 -0.5096  0.4000
11846TIP3    H257030   0.259   5.376  13.538 -0.1128  1.0603  0.5431
11847TIP3   OH257031   3.382   4.019   4.737  0.3385  0.0211  0.3146
11847TIP3    H157032   3.417   3.937   4.703 -0.1414  0.0790 -0.3470
11847TIP3    H257033   3.452   4.056   4.790  1.6117  0.5499 -1.6394
11848TIP3   OH257034   2.260   3.211   1.313 -0.0169 -0.1949 -0.1723
11848TIP3    H157035   2.186   3.251   1.358 -1.4640 -0.8545 -1.8772
11848TIP3    H257036   2.259   3.250   1.226  0.7845 -1.2510 -0.6717
11849TIP3   OH257037   4.302   3.117   6.189  0.1331 -0.5247  0.3758
11849TIP3    H157038   4.280   3.154   6.103 -0.8200 -1.1674  0.3269
11849TIP3    H257039   4.395   3.095   6.182  0.0220 -0.7520 -0.5735
11850TIP3   OH257040   3.067   1.260   4.449 -0.5704  0.4143  0.5088
11850TIP3    H157041   3.065   1.351   4.419  1.0082  1.0722  2.2043
11850TIP3    H257042   3.159   1.234   4.442 -1.0747 -1.2754 -0.4731
11851TIP3   OH257043   1.611   2.642  12.180  0.1333 -0.2344  0.0553
11851TIP3    H157044   1.527   2.610  12.146  1.2315 -3.0720 -0.2878
11851TIP3    H257045   1.624   2.593  12.262  1.5208  0.0276  0.0179
11852TIP3   OH257046   2.078   0.460   4.925 -0.3792  0.1442  0.2213
11852TIP3    H157047   2.128   0.500   4.854  1.4818 -3.4896 -0.7211
11852TIP3    H257048   1.998   0.428   4.884  0.0170 -0.6468  0.0474
11853TIP3   OH257049   3.624   5.602   4.784 -0.1634  0.1603 -0.3469
11853TIP3    H157050   3.587   5.610   4.696 -1.6619 -1.5138  0.0794
11853TIP3    H257051   3.562   5.648   4.841  0.0478  0.0162  0.0034
11854TIP3   OH257052   3.824   5.375  15.335  0.1902  0.6014 -0.3031
11854TIP3    H157053   3.885   5.347  15.267  0.5617  1.8061 -0.4905
11854TIP3    H257054   3.757   5.306  15.337  2.0446 -1.2818  0.6295
11855TIP3   OH257055   2.604   5.157  12.611  0.0428  0.4310 -0.7709
11855TIP3    H157056   2.565   5.090  12.667  2.0516  1.4518  2.1509
11855TIP3    H257057   2.628   5.112  12.531 -2.5607 -1.2674 -0.6872
11856TIP3   OH257058   3.366   6.570  12.885 -1.0859  0.5839 -0.0640
11856TIP3    H157059   3.359   6.578  12.790  0.0881 -0.7653 -0.3032
11856TIP3    H257060   3.283   6.603  12.919 -2.2888 -0.6870 -1.6695
11857TIP3   OH257061   4.688   3.523  15.388  0.3014 -0.7114 -0.5860
11857TIP3    H157062   4.641   3.448  15.351 -0.7000  0.1391 -1.1021
11857TIP3    H257063   4.728   3.490  15.468  1.7523 -2.3734 -1.9273
11858TIP3   OH257064   5.634   4.571  14.299 -0.0334 -0.6306 -0.1580
11858TIP3    H157065   5.659   4.637  14.234 -0.3784 -0.7380 -0.3991
11858TIP3    H257066   5.713   4.559  14.352 -0.7735  2.1165  1.7595
11859TIP3   OH257067   4.348   3.249   2.849  0.1207 -0.3656  0.4189
11859TIP3    H157068   4.341   3.238   2.754  0.4972  0.2398  0.3190
11859TIP3    H257069   4.293   3.324   2.869 -0.6937 -1.0426  0.8142
11860TIP3   OH257070   1.394   4.858  13.157 -0.4261  0.3752 -0.0530
11860TIP3    H157071   1.431   4.944  13.138 -1.7346  1.2914  1.3539
11860TIP3    H257072   1.300   4.868  13.140 -0.7258 -0.4817  0.9758
11861TIP3   OH257073   4.306   1.883  16.847  0.4400 -0.6165 -0.2136
11861TIP3    H157074   4.293   1.841  16.932 -0.8773 -0.4945 -0.3383
11861TIP3    H257075   4.349   1.966  16.867 -1.1457  0.0717  0.5096
11862TIP3   OH257076   4.064   3.651   2.577  0.0641 -0.6235  0.0035
11862TIP3    H157077   4.062   3.648   2.672 -0.2970 -0.2919  0.0075
11862TIP3    H257078   4.114   3.573   2.552  2.9069  0.8874  0.5570
11863TIP3   OH257079   4.576   0.226   1.952  0.7792 -0.0627  0.2421
11863TIP3    H157080   4.576   0.159   2.019 -1.6079  0.3906  0.7604
11863TIP3    H257081   4.536   0.302   1.993 -0.6686  0.2686 -1.6337
11864TIP3   OH257082   6.456   4.549   6.767  0.6316  0.2903 -0.1989
11864TIP3    H157083   6.469   4.486   6.838 -1.4069  1.1685  1.0404
11864TIP3    H257084   6.479   4.634   6.805 -1.5702  0.9269 -0.1365
11865TIP3   OH257085   2.998   5.610  13.585  0.1375 -0.1556  0.0771
11865TIP3    H157086   2.936   5.554  13.538  0.5559 -0.3304 -0.2746
11865TIP3    H257087   3.014   5.564  13.667  0.6238 -0.6513 -0.2914
11866TIP3   OH257088   4.100   3.996   1.570  0.2745 -0.0346  0.0722
11866TIP3    H157089   4.186   3.970   1.604  0.1640 -1.6936 -0.8204
11866TIP3    H257090   4.076   3.926   1.509 -0.0787  2.1599 -2.5264
11867TIP3   OH257091   6.089   1.297   1.482  0.0700  0.0613  0.5726
11867TIP3    H157092   6.065   1.308   1.390 -1.8678 -1.9902  0.7529
11867TIP3    H257093   6.028   1.353   1.530  0.4123  0.3522  0.6718
11868TIP3   OH257094   6.079   4.006   1.721 -0.2024 -0.3610 -0.4138
11868TIP3    H157095   6.019   3.992   1.793  0.5552 -0.5219  0.1990
11868TIP3    H257096   6.165   3.985   1.757  0.2405  0.0148 -1.2244
11869TIP3   OH257097   3.289   0.518   5.738 -0.0906 -0.1377  0.3642
11869TIP3    H157098   3.206   0.482   5.769  0.4658 -0.5203  1.4632
11869TIP3    H257099   3.315   0.582   5.805  0.2587  0.3446 -0.2170
11870TIP3   OH257100   4.448   0.230  12.197 -0.0741  0.1730  0.0888
11870TIP3    H157101   4.505   0.277  12.259  0.5386  1.6287 -1.4789
11870TIP3    H257102   4.362   0.271  12.207 -0.1006  0.0563  0.3343
11871TIP3   OH257103   0.986   0.250   5.922 -0.4814 -0.5651  0.3055
11871TIP3    H157104   0.959   0.339   5.947 -2.0668 -0.9358  0.0024
11871TIP3    H257105   1.034   0.218   5.998  0.7672  0.7996  0.1366
11872TIP3   OH257106   1.086   4.950  13.595 -0.8831  0.5020 -0.1420
11872TIP3    H157107   1.077   4.857  13.617 -1.9608  0.7181  0.4402
11872TIP3    H257108   1.179   4.962  13.577 -0.3670 -0.2749  1.7619
11873TIP3   OH257109   4.038   2.319  13.415 -0.1952  0.1734 -0.2316
11873TIP3    H157110   4.047   2.244  13.357 -2.2488 -0.1403 -0.2083
11873TIP3    H257111   3.953   2.357  13.393  0.3193  1.8689  0.4955
11874TIP3   OH257112   1.135   5.603   1.735 -0.2595 -0.7736  0.2364
11874TIP3    H157113   1.220   5.640   1.760  0.8738 -2.1055 -1.4474
11874TIP3    H257114   1.101   5.566   1.817 -0.0074  1.1483  1.2838
11875TIP3   OH257115   5.255   4.505  17.045 -0.2628  0.4920 -0.0599
11875TIP3    H157116   5.189   4.569  17.071  0.3598  1.1123  0.0644
11875TIP3    H257117   5.251   4.505  16.949 -2.2333 -1.4463 -0.0485
11876TIP3   OH257118   0.210   3.930   4.225  0.1455  0.0226 -0.1450
11876TIP3    H157119   0.154   3.968   4.157 -0.0300  2.6172  1.3432
11876TIP3    H257120   0.263   3.865   4.179 -0.7353  0.8917 -2.5257
11877TIP3   OH257121   5.181   2.449   4.475  0.0638  0.3691  0.0036
11877TIP3    H157122   5.169   2.468   4.568  0.4695 -2.9194  0.8737
11877TIP3    H257123   5.276   2.444   4.464  0.0441  1.4174 -0.7960
11878TIP3   OH257124   1.362   0.760  15.764  0.2533 -0.0968 -0.0912
11878TIP3    H157125   1.293   0.825  15.775  0.4667  0.1297 -0.0744
11878TIP3    H257126   1.363   0.741  15.670 -0.7189 -1.0868  0.0858
11879TIP3   OH257127   2.467   4.475  14.296  0.3644 -0.3191 -1.2054
11879TIP3    H157128   2.389   4.482  14.241 -0.5208 -2.3644 -0.3556
11879TIP3    H257129   2.467   4.383  14.325 -0.8323  1.0687  4.4013
11880TIP3   OH257130   6.736   2.636   6.085 -0.0001 -0.7238  0.3048
11880TIP3    H157131   6.830   2.625   6.102  0.0693 -0.3537  0.1823
11880TIP3    H257132   6.704   2.547   6.071  0.6571 -0.7642 -1.2551
11881TIP3   OH257133   2.075   1.825  10.756  0.0934 -0.7020  0.3063
11881TIP3    H157134   1.991   1.837  10.711 -0.4251 -1.6000  0.9871
11881TIP3    H257135   2.059   1.751  10.815  1.1779 -0.4605  0.9174
11882TIP3   OH257136   5.132   4.238   0.089 -0.4133 -0.0886 -0.2956
11882TIP3    H157137   5.136   4.334   0.084 -0.8747  0.0483  1.3817
11882TIP3    H257138   5.042   4.216   0.064 -0.3088 -0.0972 -0.6752
11883TIP3   OH257139   1.251   3.851  16.011  0.4361  0.3470  0.1723
11883TIP3    H157140   1.192   3.926  16.010  1.0602  0.8439  0.3130
11883TIP3    H257141   1.322   3.875  15.951  0.2273 -0.4729 -0.4199
11884TIP3   OH257142   0.985   4.238  11.340  0.1191  0.0364  0.1634
11884TIP3    H157143   0.951   4.174  11.403  0.0732 -0.1576 -0.0553
11884TIP3    H257144   1.077   4.249  11.364 -0.4707  1.8813  1.8607
11885TIP3   OH257145   0.791   3.453  11.106  0.0424 -0.3816  0.0079
11885TIP3    H157146   0.778   3.547  11.099 -0.2396 -0.2978  1.4061
11885TIP3    H257147   0.843   3.430  11.028  1.5654  1.1994  0.4831
11886TIP3   OH257148   0.076   0.155   5.551 -0.2506  0.0926 -0.0226
11886TIP3    H157149   0.027   0.074   5.568  0.5238 -0.4020 -0.0738
11886TIP3    H257150   0.028   0.223   5.598  0.6062 -0.8509  2.3992
11887TIP3   OH257151   2.695   6.507  15.311  0.2846  0.4248 -0.6876
11887TIP3    H157152   2.619   6.467  15.352  1.4134 -0.7769  0.3571
11887TIP3    H257153   2.758   6.517  15.382  0.7722  2.2734 -1.3336
11888TIP3   OH257154   1.311   5.320  14.412 -0.1263 -0.3714  0.4936
11888TIP3    H157155   1.347   5.292  14.496  1.3645 -2.2322 -0.6899
11888TIP3    H257156   1.280   5.240  14.371  3.0516 -0.3230 -2.4697
11889TIP3   OH257157   4.941   1.636   3.535  0.3702  0.0784  0.3642
11889TIP3    H157158   4.911   1.645   3.444 -0.5801  0.0379  0.6647
11889TIP3    H257159   5.036   1.637   3.529  0.3264  1.1008 -0.5411
11890TIP3   OH257160   4.226   6.666  16.733 -0.4065 -0.3176  0.4295
11890TIP3    H157161   4.279   6.586  16.729 -0.8906 -0.6172 -0.1739
11890TIP3    H257162   4.256   6.710  16.812  0.6056 -0.5729  0.2088
11891TIP3   OH257163   1.939   2.183   4.762  0.8616  0.3298  0.1498
11891TIP3    H157164   1.917   2.111   4.704 -1.5117  1.6156 -0.6805
11891TIP3    H257165   1.963   2.255   4.703  0.9284  0.9094  0.8665
11892TIP3   OH257166   4.394   5.857  14.311  0.0538 -0.3436  0.7081
11892TIP3    H157167   4.373   5.835  14.221 -2.1499 -2.3762  1.6214
11892TIP3    H257168   4.488   5.878  14.310  0.1337 -0.5893 -1.9691
11893TIP3   OH257169   3.952   1.935  13.647 -0.0461 -0.3260 -0.3464
11893TIP3    H157170   4.036   1.895  13.626 -0.5897 -1.8474  0.2395
11893TIP3    H257171   3.887   1.882  13.600 -0.7002  0.7378 -0.6834
11894TIP3   OH257172   1.811   2.881  17.337 -0.2603 -0.1809  0.3207
11894TIP3    H157173   1.817   2.815  17.269 -1.9366  2.3285 -2.4963
11894TIP3    H257174   1.739   2.852  17.393  0.1997 -1.5740  0.2304
11895TIP3   OH257175   0.726   3.050   0.791  0.1305 -0.0273 -0.0047
11895TIP3    H157176   0.744   3.113   0.860  1.5135 -0.5930  0.1837
11895TIP3    H257177   0.765   2.968   0.822  1.8783 -0.0285 -1.9283
11896TIP3   OH257178   4.114   4.372   1.484  0.1287  0.1540 -0.1845
11896TIP3    H157179   4.115   4.442   1.549  0.9523  1.6763 -1.7640
11896TIP3    H257180   4.111   4.291   1.536 -1.2520  1.3306  1.6765
11897TIP3   OH257181   2.132   1.578  15.197  0.3885  0.1428  1.0746
11897TIP3    H157182   2.151   1.671  15.206 -1.9315  0.5563  2.4384
11897TIP3    H257183   2.092   1.569  15.110 -0.7197  0.7110  1.5059
11898TIP3   OH257184   4.692   2.334   0.662  0.2559  0.2524  0.0718
11898TIP3    H157185   4.747   2.360   0.587 -0.7596 -0.8135 -1.1025
11898TIP3    H257186   4.752   2.285   0.719  0.8903  0.4408 -0.4142
11899TIP3   OH257187   3.739   4.250  10.752 -0.4045  0.1774  0.1206
11899TIP3    H157188   3.757   4.159  10.776 -1.0254  0.3052  1.1334
11899TIP3    H257189   3.719   4.293  10.836 -2.5227  0.6874 -0.5938
11900TIP3   OH257190   4.446   5.353  16.715 -0.3686  0.1378 -0.4047
11900TIP3    H157191   4.396   5.368  16.796 -1.2697 -1.8018 -0.5355
11900TIP3    H257192   4.380   5.322  16.652  0.2041  2.2053 -2.1130
11901TIP3   OH257193   0.436   5.964   5.616 -0.8134 -0.1701 -0.3062
11901TIP3    H157194   0.465   5.966   5.708 -0.2455 -0.2826 -0.4787
11901TIP3    H257195   0.373   5.892   5.612 -1.1365  0.0869  0.0810
11902TIP3   OH257196   5.644   5.080  10.587  0.2766 -0.1767  0.3824
11902TIP3    H157197   5.555   5.070  10.553 -0.0434 -0.1227  1.1704
11902TIP3    H257198   5.683   5.149  10.533 -0.0870 -0.3454 -0.1061
11903TIP3   OH257199   0.760   5.461  13.669  0.6587  0.4331  0.6583
11903TIP3    H157200   0.835   5.501  13.713 -0.3734 -0.3572  3.3129
11903TIP3    H257201   0.756   5.373  13.705 -1.3563  0.3510  0.3231
11904TIP3   OH257202   2.367   0.144  14.734 -0.0895 -0.1775 -0.1319
11904TIP3    H157203   2.459   0.154  14.709 -0.0234 -1.8497 -0.7467
11904TIP3    H257204   2.369   0.102  14.820 -0.2982  0.7202  0.3211
11905TIP3   OH257205   6.395   0.184   0.078  0.4480  0.2370  0.2132
11905TIP3    H157206   6.321   0.157   0.024  0.9254 -0.1398 -0.2552
11905TIP3    H257207   6.361   0.181   0.168  1.3185 -5.1536  0.6522
11906TIP3   OH257208   6.248   6.498   5.069 -0.0590  0.2010  0.1006
11906TIP3    H157209   6.197   6.472   5.146 -2.8089  0.7834 -1.4079
11906TIP3    H257210   6.254   6.419   5.016 -0.1818  0.3577 -0.1482
11907TIP3   OH257211   3.410   6.520   2.141  0.4842 -0.1163 -0.3984
11907TIP3    H157212   3.434   6.427   2.139  0.1057 -0.2207 -0.1451
11907TIP3    H257213   3.428   6.548   2.230 -0.9684 -0.3744  0.0004
11908TIP3   OH257214   0.667   2.025   6.053  0.0605 -0.0464  0.1837
11908TIP3    H157215   0.603   2.096   6.062 -0.2999 -0.3502  0.0339
11908TIP3    H257216   0.658   1.995   5.963  0.1878 -0.3064  0.2562
11909TIP3   OH257217   2.248   5.017  17.370 -0.0461 -0.1416 -0.6328
11909TIP3    H157218   2.207   5.067  17.441  1.0024  0.7435 -0.6343
11909TIP3    H257219   2.336   5.052  17.364  0.5880 -1.7311 -0.9169
11910TIP3   OH257220   1.369   0.266   2.293 -0.2759  0.4092  0.3127
11910TIP3    H157221   1.291   0.292   2.244  0.6380 -1.0279 -2.1029
11910TIP3    H257222   1.421   0.346   2.299  0.0386  0.4528 -2.0729
11911TIP3   OH257223   1.844   3.751  16.203 -0.0589  0.4826 -0.3068
11911TIP3    H157224   1.750   3.771  16.209 -0.2470 -0.7048  3.0991
11911TIP3    H257225   1.885   3.815  16.261  0.9519 -0.4163 -0.0112
11912TIP3   OH257226   2.881   0.986   1.511 -0.2363 -0.1783  0.1559
11912TIP3    H157227   2.949   1.049   1.534 -2.6437  2.7883 -0.1539
11912TIP3    H257228   2.929   0.911   1.476  2.9226  0.5394  2.4468
11913TIP3   OH257229   6.308   5.067   6.733  0.6095 -0.2830  0.2644
11913TIP3    H157230   6.372   5.136   6.752 -0.8217  1.1748  0.0849
11913TIP3    H257231   6.283   5.080   6.642  0.9121 -1.5868 -0.0253
11914TIP3   OH257232   1.177   6.544   2.433  0.5120  0.2352  0.0316
11914TIP3    H157233   1.247   6.609   2.425  0.1377  0.5320 -1.0272
11914TIP3    H257234   1.208   6.483   2.500  1.4261  0.8032  0.1419
11915TIP3   OH257235   4.020   0.484   3.440  0.2098  0.4860  0.4002
11915TIP3    H157236   3.942   0.432   3.458  0.4591 -0.0825 -0.1071
11915TIP3    H257237   4.016   0.557   3.501 -2.1964  2.0613 -1.4764
11916TIP3   OH257238   6.743   1.249   1.162  0.4482  0.4164  0.0297
11916TIP3    H157239   6.803   1.242   1.237  0.5693  1.4968  0.0553
11916TIP3    H257240   6.708   1.338   1.169 -0.4356  0.1179 -0.5345
11917TIP3   OH257241   4.417   3.100   0.233  0.0027  0.2197  0.4664
11917TIP3    H157242   4.461   3.016   0.220  0.8402  0.5684  0.9545
11917TIP3    H257243   4.338   3.078   0.283 -0.6959 -0.4851 -0.8930
11918TIP3   OH257244   1.916   5.372   2.486  0.1905 -0.0675  0.5535
11918TIP3    H157245   1.970   5.404   2.558 -0.6373 -1.1514  1.7004
11918TIP3    H257246   1.827   5.399   2.509 -0.4063 -2.2964  1.1034
11919TIP3   OH257247   0.436   6.227   1.571  0.5884  1.0341 -0.2420
11919TIP3    H157248   0.350   6.187   1.559  0.4966  1.2752 -0.3858
11919TIP3    H257249   0.452   6.273   1.489  1.6357 -0.4925 -0.9501
11920TIP3   OH257250   4.973   5.469   0.580 -0.1578  0.2122  0.8482
11920TIP3    H157251   4.965   5.425   0.495 -0.3081 -0.4027  1.1753
11920TIP3    H257252   4.943   5.404   0.644 -2.7359  1.5854  1.1597
11921TIP3   OH257253   6.045   0.515  13.125  0.1188  0.6271 -0.1602
11921TIP3    H157254   6.047   0.598  13.172  0.8908 -0.0380  1.0530
11921TIP3    H257255   6.113   0.523  13.058 -0.0673  1.1039 -0.2948
11922TIP3   OH257256   4.409   5.260   3.454  0.5784 -0.4112  0.2793
11922TIP3    H157257   4.452   5.303   3.529  2.3603 -1.5769 -0.0198
11922TIP3    H257258   4.399   5.169   3.481  2.2648 -1.1088 -1.2545
11923TIP3   OH257259   2.615   6.732  14.794 -0.4346  0.1391  0.5253
11923TIP3    H157260   2.656   6.808  14.753  0.1107  0.3945  1.5128
11923TIP3    H257261   2.540   6.713  14.738 -1.0074  1.8491  0.6537
11924TIP3   OH257262   2.741   1.297  13.230 -0.4979 -0.1579 -0.1139
11924TIP3    H157263   2.700   1.360  13.290 -1.1264  0.1413 -0.8327
11924TIP3    H257264   2.773   1.351  13.158 -3.2978 -0.8222 -2.0082
11925TIP3   OH257265   1.247   4.016   3.450 -0.6086  0.4932  0.1966
11925TIP3    H157266   1.193   4.006   3.372 -1.4339  0.5022  0.7471
11925TIP3    H257267   1.315   4.078   3.425 -1.2006  0.9413 -0.3388
11926TIP3   OH257268   6.296   5.323  10.869 -0.0360 -0.2947  0.2689
11926TIP3    H157269   6.207   5.354  10.855  0.3392  0.6235 -0.1261
11926TIP3    H257270   6.308   5.327  10.964 -0.4828 -0.6410  0.3445
11927TIP3   OH257271   1.572   0.876   0.868  0.4129 -0.1191 -0.4878
11927TIP3    H157272   1.601   0.843   0.783 -0.3218  0.7770 -1.1122
11927TIP3    H257273   1.504   0.815   0.896 -1.3713  1.0827 -1.9146
11928TIP3   OH257274   2.292   6.500  11.182 -0.5849 -0.5832 -0.3927
11928TIP3    H157275   2.228   6.438  11.146 -1.0477 -0.2190 -0.1948
11928TIP3    H257276   2.339   6.449  11.249 -1.3294 -0.5622  0.1505
11929TIP3   OH257277   0.894   0.856  11.381 -0.3860 -0.8500  0.1559
11929TIP3    H157278   0.964   0.846  11.446  1.1837 -1.3763 -1.5425
11929TIP3    H257279   0.823   0.800  11.414  0.8982 -2.2095  0.7201
11930TIP3   OH257280   1.969   0.731   1.024 -0.1610  0.0077  0.0348
11930TIP3    H157281   2.051   0.760   1.063 -0.6394 -0.0250  1.1218
11930TIP3    H257282   1.978   0.749   0.931  0.4895  1.4003  0.3438
11931TIP3   OH257283   0.362   0.598   1.350  0.1954  0.3886  0.0241
11931TIP3    H157284   0.351   0.527   1.287 -0.8200  0.7443 -0.2153
11931TIP3    H257285   0.423   0.563   1.416 -0.4492 -0.7756  0.0250
11932TIP3   OH257286   2.185   2.513   1.732 -0.1222  0.7654 -0.1087
11932TIP3    H157287   2.098   2.546   1.709  0.3320  2.2282  0.1206
11932TIP3    H257288   2.210   2.458   1.659 -0.3060  2.2190 -1.3190
11933TIP3   OH257289   4.106   2.068   1.582 -0.0370 -0.2935  0.5643
11933TIP3    H157290   4.131   2.151   1.622 -1.5802  0.2786  0.4337
11933TIP3    H257291   4.010   2.066   1.590  0.0067 -2.3287  1.0819
11934TIP3   OH257292   5.491   5.773   5.064 -0.3228 -0.8848  0.5680
11934TIP3    H157293   5.561   5.837   5.046 -2.1498  1.8980  2.4886
11934TIP3    H257294   5.534   5.706   5.118  1.4736 -0.8930 -0.7663
11935TIP3   OH257295   2.451   5.707   0.321 -0.5249 -0.4475  0.3833
11935TIP3    H157296   2.404   5.789   0.335  0.0400 -0.1437  0.5174
11935TIP3    H257297   2.416   5.673   0.239 -1.2948 -0.4480  0.7014
11936TIP3   OH257298   2.813   6.689   3.817 -0.3404  0.7591  0.0671
11936TIP3    H157299   2.783   6.654   3.901 -0.0623 -0.2490 -0.2326
11936TIP3    H257300   2.907   6.705   3.830  0.5252 -2.5315 -0.9426
11937TIP3   OH257301   0.192   3.904   5.732  0.2661  0.0483 -0.4396
11937TIP3    H157302   0.228   3.875   5.815 -1.5165  0.3790  0.4811
11937TIP3    H257303   0.219   3.996   5.725  0.5282 -0.0175 -0.2960
11938TIP3   OH257304   4.378   6.372   3.173 -0.3398 -0.1084 -0.6546
11938TIP3    H157305   4.383   6.467   3.158  0.4864 -0.5552 -4.1433
11938TIP3    H257306   4.467   6.346   3.195 -0.7053 -0.0387  1.0140
11939TIP3   OH257307   1.970   3.759  14.860  0.2366 -0.2515  0.3185
11939TIP3    H157308   1.959   3.813  14.938  1.0596 -0.4706  0.6012
11939TIP3    H257309   1.894   3.701  14.860 -0.7881  1.0526 -0.1244
11940TIP3   OH257310   1.131   6.555  16.590 -0.3077 -0.0253 -0.6672
11940TIP3    H157311   1.060   6.587  16.645 -0.2889 -0.9659 -0.0767
11940TIP3    H257312   1.096   6.476  16.548 -0.1948  0.4610 -1.7260
11941TIP3   OH257313   4.508   1.235   6.710  0.1690 -0.4822 -0.8250
11941TIP3    H157314   4.431   1.248   6.765 -0.2317  1.5720 -1.7954
11941TIP3    H257315   4.545   1.152   6.741 -1.5110 -0.7262  0.7278
11942TIP3   OH257316   5.826   0.346   1.465  0.2886 -0.2507  0.0893
11942TIP3    H157317   5.820   0.254   1.436  0.3099 -0.5115  0.8839
11942TIP3    H257318   5.745   0.360   1.515 -0.8391  0.8737 -1.9236
11943TIP3   OH257319   2.047   5.010   3.130  0.2466  0.4337  0.6822
11943TIP3    H157320   1.966   5.051   3.159  0.3566  1.6954 -0.7190
11943TIP3    H257321   2.033   4.992   3.036  1.0384 -0.7174  0.7560
11944TIP3   OH257322   3.144   2.409  12.511 -0.7319 -0.4193 -0.0946
11944TIP3    H157323   3.155   2.364  12.595 -0.3976  1.1205  0.7207
11944TIP3    H257324   3.085   2.482  12.531  0.8897  1.1196 -0.7424
11945TIP3   OH257325   3.497   6.616  14.656  0.0122  0.3007 -0.4629
11945TIP3    H157326   3.578   6.616  14.604 -1.1591  0.1375 -2.3694
11945TIP3    H257327   3.509   6.545  14.718 -0.0312 -2.1383 -3.0607
11946TIP3   OH257328   3.453   3.964   5.411 -0.0966  0.3099  0.2441
11946TIP3    H157329   3.495   4.006   5.487  1.9715 -0.0652 -0.6309
11946TIP3    H257330   3.519   3.968   5.342 -1.0406 -1.5107 -0.8254
11947TIP3   OH257331   4.058   0.421   1.252 -0.2417 -0.4163  0.3332
11947TIP3    H157332   4.093   0.408   1.164 -0.6408  0.7360 -0.0273
11947TIP3    H257333   4.094   0.350   1.304  1.4127 -0.1230 -0.3630
11948TIP3   OH257334   4.552   4.546   5.357 -0.6551 -0.2826 -0.5321
11948TIP3    H157335   4.516   4.460   5.382 -1.0522 -0.0711 -0.3752
11948TIP3    H257336   4.645   4.528   5.341  0.1583 -0.1090  3.0989
11949TIP3   OH257337   0.690   4.525   2.805 -0.3492 -0.0519 -0.4493
11949TIP3    H157338   0.784   4.539   2.793 -0.0950 -0.0340  1.2777
11949TIP3    H257339   0.651   4.545   2.720  1.1049  0.9510 -0.9121
11950TIP3   OH257340   0.740   4.382  11.372 -0.2538 -0.3955  0.2408
11950TIP3    H157341   0.783   4.306  11.332  0.1535 -0.3475  0.5873
11950TIP3    H257342   0.739   4.363  11.466  2.3716  1.2256  0.7275
11951TIP3   OH257343   4.133   4.292   2.753 -0.3506 -0.3215  0.6857
11951TIP3    H157344   4.120   4.341   2.671 -0.4747  0.9479  1.4380
11951TIP3    H257345   4.060   4.230   2.755  0.1040 -0.9249 -0.5461
11952TIP3   OH257346   5.505   3.218  11.370  0.1449  0.3578 -0.0541
11952TIP3    H157347   5.427   3.171  11.339  0.1226  1.4898 -1.9296
11952TIP3    H257348   5.520   3.284  11.302  2.9511 -0.0453  0.0759
11953TIP3   OH257349   2.257   6.158   2.557  0.0665  0.2667  0.4004
11953TIP3    H157350   2.309   6.099   2.612 -0.5468 -0.7117 -0.0254
11953TIP3    H257351   2.320   6.218   2.518  0.9246 -1.0417 -0.3010
11954TIP3   OH257352   4.204   5.129   6.020 -0.1698  0.2162 -0.2026
11954TIP3    H157353   4.126   5.076   6.040  0.9113 -1.5811 -0.5320
11954TIP3    H257354   4.272   5.065   6.002  0.9076  1.7425 -1.8904
11955TIP3   OH257355   1.054   0.683   6.676  0.5039  0.3871 -0.4212
11955TIP3    H157356   1.137   0.695   6.629 -0.0111  0.3982 -1.3464
11955TIP3    H257357   1.036   0.589   6.668 -1.2226  0.8474 -3.1414
11956TIP3   OH257358   3.365   5.284  16.703  0.4734 -0.4642 -0.3367
11956TIP3    H157359   3.323   5.229  16.768  0.6129  0.0974  0.2365
11956TIP3    H257360   3.298   5.347  16.677  0.6512 -0.1962 -0.1560
11957TIP3   OH257361   5.320   1.792   1.926  0.3533  0.2826  0.5839
11957TIP3    H157362   5.414   1.806   1.935  0.2460  1.8213 -0.3749
11957TIP3    H257363   5.306   1.702   1.955  2.2583 -0.3293 -0.2701
11958TIP3   OH257364   4.463   4.607  13.929 -0.2785  0.0842 -0.6933
11958TIP3    H157365   4.445   4.697  13.901 -0.6480  0.3374  0.3106
11958TIP3    H257366   4.517   4.616  14.007 -0.4575 -0.5610 -0.4851
11959TIP3   OH257367   1.874   0.918   3.990 -0.3335  0.1767 -0.0475
11959TIP3    H157368   1.939   0.940   4.057 -0.0573  2.0291 -0.8573
11959TIP3    H257369   1.925   0.883   3.917 -0.6679 -2.1967  0.7823
11960TIP3   OH257370   6.038   6.672   0.524  0.0490  0.3718  0.0374
11960TIP3    H157371   6.023   6.579   0.540 -0.2107  0.4091  0.0121
11960TIP3    H257372   6.031   6.681   0.429 -0.1611  0.4589  0.0613
11961TIP3   OH257373   5.392   1.841  13.931 -0.4163  0.0394  0.2534
11961TIP3    H157374   5.347   1.902  13.989  0.2936  1.8601 -1.0108
11961TIP3    H257375   5.322   1.793  13.887 -1.0881  1.5128 -0.3410
11962TIP3   OH257376   0.026   2.155   1.894 -0.5047  0.0592 -0.2579
11962TIP3    H157377   0.106   2.118   1.856  1.6640  0.9652  2.9455
11962TIP3    H257378   0.028   2.248   1.869 -0.3451  0.1525  0.0892
11963TIP3   OH257379   3.365   4.049  13.416  0.3553 -0.1703  0.3219
11963TIP3    H157380   3.398   3.980  13.358  0.5191  1.7340 -2.0277
11963TIP3    H257381   3.287   4.012  13.457 -0.7460 -1.1102 -2.4327
11964TIP3   OH257382   0.068   0.782  10.564 -0.4372 -0.4258  0.0322
11964TIP3    H157383   0.076   0.874  10.590 -0.2448 -0.1726 -0.8938
11964TIP3    H257384   0.034   0.785  10.475 -2.1431 -1.3046  0.6119
11965TIP3   OH257385   5.124   6.470  13.813 -0.3659 -0.1488 -0.0122
11965TIP3    H157386   5.100   6.497  13.901  1.5811  0.8456  0.2730
11965TIP3    H257387   5.218   6.454  13.817 -0.5268 -1.8089 -1.5117
11966TIP3   OH257388   2.933   3.677  11.205 -0.0065  0.2534 -0.4461
11966TIP3    H157389   2.992   3.752  11.209  0.1966  0.0288  2.0645
11966TIP3    H257390   2.955   3.634  11.122  2.2327  1.0725 -0.3417
11967TIP3   OH257391   1.238   5.557  14.511  0.1966 -0.4765  0.1930
11967TIP3    H157392   1.228   5.465  14.488 -1.5727 -0.3076  0.1365
11967TIP3    H257393   1.231   5.604  14.428 -0.1192 -0.2225  0.3628
11968TIP3   OH257394   4.741   1.132   1.198  0.2709  0.0760 -0.4607
11968TIP3    H157395   4.757   1.168   1.111  4.2101 -2.0085 -0.8101
11968TIP3    H257396   4.733   1.037   1.183  0.1732 -0.2345  1.3510
11969TIP3   OH257397   2.071   6.330  13.224  0.4268 -0.1025  0.8514
11969TIP3    H157398   2.124   6.355  13.301 -1.1474  0.8978  1.6734
11969TIP3    H257399   2.006   6.400  13.217 -1.0313 -1.4740  0.1261
11970TIP3   OH257400   3.661   3.499  14.223 -0.4576 -0.3787 -0.0890
11970TIP3    H157401   3.684   3.499  14.315  0.0443  1.4348 -0.1723
11970TIP3    H257402   3.574   3.460  14.220  0.1673 -1.9226  0.9311
11971TIP3   OH257403   2.977   4.504  14.234  0.4199  0.1038  0.3174
11971TIP3    H157404   3.054   4.537  14.280 -0.0521  0.8373  0.6027
11971TIP3    H257405   2.915   4.482  14.304  0.9574 -2.0415  0.1668
11972TIP3   OH257406   5.129   4.882   3.991  1.1342 -0.6045  0.3804
11972TIP3    H157407   5.039   4.858   3.973  0.2475  0.8733  2.4265
11972TIP3    H257408   5.163   4.810   4.044  0.2590 -0.0015  1.8310
11973TIP3   OH257409   5.838   0.979  12.564  1.1485  0.6318  0.0263
11973TIP3    H157410   5.874   0.937  12.486  0.6080 -0.4075  0.3300
11973TIP3    H257411   5.871   0.928  12.637 -1.1176 -0.5408  0.3072
11974TIP3   OH257412   0.734   1.647   4.144 -0.0726  0.7244 -0.2310
11974TIP3    H157413   0.748   1.740   4.123  0.4823  0.6765 -0.0843
11974TIP3    H257414   0.791   1.600   4.083  0.5730  0.5289  0.5161
11975TIP3   OH257415   2.505   3.597   0.772 -0.3258 -0.0776 -0.3400
11975TIP3    H157416   2.508   3.632   0.861 -1.7255 -0.1856 -0.2170
11975TIP3    H257417   2.590   3.619   0.734  0.4717 -0.4319  1.1651
11976TIP3   OH257418   3.880   4.201  16.687  0.1713 -0.6412  0.0522
11976TIP3    H157419   3.911   4.284  16.651  1.2318 -1.1166 -0.1650
11976TIP3    H257420   3.952   4.140  16.671 -1.2746 -2.0382 -1.3615
11977TIP3   OH257421   2.240   0.831   4.476 -0.4484  0.4803 -0.1053
11977TIP3    H157422   2.316   0.837   4.533 -0.4504  0.6379 -0.1195
11977TIP3    H257423   2.253   0.749   4.427 -0.5908  0.2018  0.3230
11978TIP3   OH257424   4.273   2.412  15.378 -0.0090  0.7259 -0.4166
11978TIP3    H157425   4.190   2.456  15.356 -1.3326 -1.9594 -1.1833
11978TIP3    H257426   4.284   2.429  15.471 -1.3340  1.2851 -0.3253
11979TIP3   OH257427   6.659   2.922  10.709  0.5827 -0.1520 -0.0441
11979TIP3    H157428   6.598   2.887  10.643  0.9220 -1.0142  0.1000
11979TIP3    H257429   6.744   2.888  10.684  0.9943  0.8902 -0.1223
11980TIP3   OH257430   2.791   0.746  12.801 -0.5882 -0.3059 -0.7647
11980TIP3    H157431   2.811   0.692  12.725 -0.4532  0.6149 -1.4109
11980TIP3    H257432   2.866   0.734  12.860  1.7958  2.5685 -2.8544
11981TIP3   OH257433   5.831   2.311   2.668 -0.3287  0.2020  0.0592
11981TIP3    H157434   5.743   2.279   2.649 -0.6478  1.3900 -0.6283
11981TIP3    H257435   5.888   2.261   2.610 -0.4879 -0.8431  0.7805
11982TIP3   OH257436   5.692   2.596  12.201 -0.3570  0.2606 -0.0552
11982TIP3    H157437   5.778   2.591  12.243 -1.1742  0.9208  1.7641
11982TIP3    H257438   5.693   2.681  12.156 -0.2846  0.5663  0.5116
11983TIP3   OH257439   5.831   4.147  12.234  0.1150 -0.4670  0.4060
11983TIP3    H157440   5.799   4.124  12.147 -1.1959  0.2663  0.6651
11983TIP3    H257441   5.841   4.064  12.280 -2.1565 -0.7324  0.5330
11984TIP3   OH257442   6.142   6.518  11.520  0.1008 -0.5558 -0.2698
11984TIP3    H157443   6.058   6.536  11.564 -0.9881  0.3279 -2.5460
11984TIP3    H257444   6.145   6.423  11.513  0.2011 -0.7097  1.4311
11985TIP3   OH257445   3.364   5.513  14.845 -0.1605  0.2125  0.4881
11985TIP3    H157446   3.442   5.513  14.789 -1.5369  1.2735 -1.5699
11985TIP3    H257447   3.372   5.434  14.898  0.9986 -1.1615 -1.5870
11986TIP3   OH257448   4.956   1.410   1.099 -0.3374 -0.4500  0.4568
11986TIP3    H157449   4.966   1.370   1.013  0.2761  0.3830  0.1348
11986TIP3    H257450   4.926   1.499   1.082  0.8097  0.0701  1.0408
11987TIP3   OH257451   0.167   3.314  12.124  0.0595  0.2340  0.2923
11987TIP3    H157452   0.096   3.344  12.182 -0.5006 -0.7261  0.1387
11987TIP3    H257453   0.151   3.359  12.041  0.2789  0.8610  0.5893
11988TIP3   OH257454   5.046   1.624   5.194 -0.0568 -0.0078  0.3670
11988TIP3    H157455   5.014   1.540   5.227 -1.9231  0.1685 -0.8591
11988TIP3    H257456   5.052   1.679   5.271 -1.7666 -0.3864  0.8109
11989TIP3   OH257457   4.100   2.163  17.390  0.6149  0.3260  0.5498
11989TIP3    H157458   4.030   2.145  17.452  0.4106 -1.2410 -0.1006
11989TIP3    H257459   4.061   2.223  17.326 -0.2392 -0.7564  0.0346
11990TIP3   OH257460   6.336   2.745   4.567 -0.1487 -0.3305  0.2373
11990TIP3    H157461   6.300   2.805   4.503 -0.1830  1.0559  1.4919
11990TIP3    H257462   6.410   2.703   4.523 -0.3367  0.3773 -0.7770
11991TIP3   OH257463   4.552   4.898   4.536  0.8585 -0.2629 -0.2491
11991TIP3    H157464   4.611   4.968   4.565  0.8641  0.0409 -0.9593
11991TIP3    H257465   4.526   4.853   4.616  0.6434  0.7237  0.2493
11992TIP3   OH257466   5.903   3.759   1.102 -0.4255  0.1597  0.4739
11992TIP3    H157467   5.857   3.793   1.179  0.1205  0.7286  0.5544
11992TIP3    H257468   5.833   3.731   1.043 -0.8568  0.2293  0.9430
11993TIP3   OH257469   5.967   1.032  14.209 -0.0664 -0.5744  0.1120
11993TIP3    H157470   6.030   1.101  14.188 -0.2347 -0.9504 -1.7707
11993TIP3    H257471   5.995   0.957  14.156 -0.8320 -1.4542  0.9081
11994TIP3   OH257472   6.218   3.041  10.957 -0.1712  0.6736  0.0952
11994TIP3    H157473   6.136   3.082  10.929  0.1752  1.3835  0.0858
11994TIP3    H257474   6.217   2.955  10.916 -0.7544  0.8054 -0.1850
11995TIP3   OH257475   3.581   0.487   3.906  0.7299  0.3773 -0.3932
11995TIP3    H157476   3.670   0.495   3.872  1.3081 -0.4867  0.8469
11995TIP3    H257477   3.584   0.409   3.962 -0.6661  0.6534  0.0970
11996TIP3   OH257478   1.009   5.006   1.465  0.6863 -0.7450 -0.2002
11996TIP3    H157479   1.083   5.017   1.524  0.2963  1.7857 -0.0348
11996TIP3    H257480   1.015   5.081   1.405 -0.6464 -1.5599 -1.4281
11997TIP3   OH257481   0.762   1.843  12.533  0.5475  0.2323  0.6678
11997TIP3    H157482   0.685   1.889  12.567 -0.5005 -0.8622 -0.1499
11997TIP3    H257483   0.807   1.812  12.612  0.9772  2.1018  1.2139
11998TIP3   OH257484   6.421   5.108   4.706 -0.0771  0.2924 -0.3334
11998TIP3    H157485   6.459   5.043   4.647 -1.6798 -0.3339 -0.7373
11998TIP3    H257486   6.487   5.177   4.713  1.2421 -0.8869 -0.7123
11999TIP3   OH257487   0.040   0.619  11.602 -0.6726  0.2862 -0.3610
11999TIP3    H157488   0.070   0.528  11.601 -1.1568  0.1237 -0.6748
11999TIP3    H257489   0.108   0.666  11.651 -0.9418 -0.4199  0.7370
12000TIP3   OH257490   0.391   0.296   6.379 -0.1669  0.3948 -0.3127
12000TIP3    H157491   0.466   0.297   6.437  0.7689 -0.1321 -1.4735
12000TIP3    H257492   0.395   0.381   6.334  0.2585  0.0216 -0.9992
12001TIP3   OH257493   6.239   3.024   3.750  0.1248  0.1935 -0.4739
12001TIP3    H157494   6.251   3.107   3.795 -1.2632  0.1001  0.1030
12001TIP3    H257495   6.145   3.006   3.755  0.2630 -0.9704 -1.3783
12002TIP3   OH257496   6.021   5.427   4.081  0.4843  0.4730  0.4125
12002TIP3    H157497   5.997   5.493   4.015  0.0532  0.9543  1.0447
12002TIP3    H257498   5.997   5.344   4.040 -3.5616  0.9315  1.4423
12003TIP3   OH257499   0.822   6.117  13.816  0.4614 -0.4331  0.7672
12003TIP3    H157500   0.877   6.154  13.747 -1.3735  0.6020 -0.2103
12003TIP3    H257501   0.851   6.163  13.896  0.3577  0.8468  0.0992
12004TIP3   OH257502   1.771   4.966  14.857 -0.6054  0.1984  0.1906
12004TIP3    H157503   1.781   5.041  14.800 -2.1104  0.4347  0.2103
12004TIP3    H257504   1.796   4.998  14.944 -0.9565  0.5916  0.1474
12005TIP3   OH257505   1.315   2.697   0.338  0.5036 -0.0304 -0.6663
12005TIP3    H157506   1.345   2.663   0.254  1.2442  0.8303 -0.7736
12005TIP3    H257507   1.305   2.620   0.393  0.8589 -0.5302 -1.2870
12006TIP3   OH257508   3.882   1.176   4.328 -0.6313 -0.1342 -0.7189
12006TIP3    H157509   3.925   1.108   4.380 -0.7094  0.9407  0.8032
12006TIP3    H257510   3.929   1.175   4.244  0.7652 -0.6390  0.0327
12007TIP3   OH257511   5.506   3.285  15.727  0.3448 -0.4971 -0.1216
12007TIP3    H157512   5.586   3.337  15.719 -0.2170  0.2899 -0.7942
12007TIP3    H257513   5.478   3.270  15.636 -2.9497  3.5360 -0.0674
12008TIP3   OH257514   4.454   0.582  14.757  0.0239 -0.5968 -0.3192
12008TIP3    H157515   4.411   0.497  14.747  1.4508 -1.6726  1.8616
12008TIP3    H257516   4.385   0.640  14.787 -0.5455 -1.5319  0.2191
12009TIP3   OH257517   3.074   5.920  17.244  0.2783 -0.1223  0.3397
12009TIP3    H157518   3.072   5.915  17.339  1.0066  0.0672  0.3746
12009TIP3    H257519   3.103   6.009  17.225  0.3555 -0.2267 -0.0534
12010TIP3   OH257520   6.048   4.129  11.301  0.1320 -0.2129  0.6980
12010TIP3    H157521   6.100   4.127  11.221  0.0090 -1.2323  0.6400
12010TIP3    H257522   5.966   4.086  11.278 -0.0857 -0.1038  1.2473
12011TIP3   OH257523   4.920   4.395   3.843 -0.9487  0.0877  0.5779
12011TIP3    H157524   4.901   4.414   3.935 -0.5661 -1.0454  0.9050
12011TIP3    H257525   4.984   4.324   3.846  0.4172  1.2104 -0.5411
12012TIP3   OH257526   2.799   3.414  13.081 -0.2159 -0.3828 -0.0680
12012TIP3    H157527   2.846   3.344  13.036  2.1624  1.3289 -0.4266
12012TIP3    H257528   2.707   3.402  13.055  0.6807 -0.9060 -3.4330
12013TIP3   OH257529   5.576   6.443   5.782 -0.1314  0.0766  0.6994
12013TIP3    H157530   5.491   6.423   5.821  0.0068 -1.4982  0.2289
12013TIP3    H257531   5.558   6.516   5.722 -1.1233 -0.1385  0.7191
12014TIP3   OH257532   3.244   6.129  11.238 -0.3517 -0.1295  0.4798
12014TIP3    H157533   3.264   6.109  11.146 -0.3389 -1.9988  0.8516
12014TIP3    H257534   3.315   6.188  11.265  0.0076 -0.0716 -0.5268
12015TIP3   OH257535   0.388   2.280   0.997 -0.2246 -0.1888 -0.0883
12015TIP3    H157536   0.318   2.219   1.022  0.1113 -0.3335  0.5081
12015TIP3    H257537   0.447   2.229   0.942  0.1012 -0.4236  0.4812
12016TIP3   OH257538   3.524   0.803  14.403 -0.1059 -0.5190 -0.3463
12016TIP3    H157539   3.537   0.788  14.309  1.7484 -0.5423 -0.1169
12016TIP3    H257540   3.524   0.898  14.412 -1.3179 -0.4884 -0.4709
12017TIP3   OH257541   5.116   2.080  14.695 -0.5022 -0.1622 -0.3772
12017TIP3    H157542   5.100   2.009  14.633 -0.9432  0.4194 -0.9445
12017TIP3    H257543   5.072   2.156  14.657  0.6386  0.6279 -0.1902
12018TIP3   OH257544   2.886   5.912  11.520  0.1725  0.6377 -0.1097
12018TIP3    H157545   2.819   5.935  11.585  0.0979  0.6032 -0.1751
12018TIP3    H257546   2.920   5.996  11.491 -0.0364  0.6630 -0.2801
12019TIP3   OH257547   6.730   2.931   2.291 -0.4018 -0.1078 -0.1188
12019TIP3    H157548   6.809   2.907   2.242 -0.6998 -0.9823 -0.1927
12019TIP3    H257549   6.759   2.998   2.352 -0.2191  1.8636 -2.2069
12020TIP3   OH257550   5.015   1.065   1.272 -0.3025  0.1095  0.7417
12020TIP3    H157551   4.995   1.151   1.235 -0.0564  0.1137  0.6166
12020TIP3    H257552   5.032   1.009   1.197 -1.5697 -0.3442  0.7684
12021TIP3   OH257553   5.662   4.505   0.594  0.2133  0.6705  0.5246
12021TIP3    H157554   5.735   4.564   0.612 -0.3644  1.3024  0.8716
12021TIP3    H257555   5.593   4.562   0.560  0.5467 -0.1976 -1.7409
12022TIP3   OH257556   4.630   4.077  11.256 -0.0934  0.0803 -0.5022
12022TIP3    H157557   4.566   4.030  11.202  0.9982 -0.6373 -1.2181
12022TIP3    H257558   4.635   4.164  11.216 -4.9331  2.4742  3.0184
12023TIP3   OH257559   4.377   6.422   6.287  0.1184 -0.1125  0.2540
12023TIP3    H157560   4.470   6.442   6.284  0.0472  0.1889  0.0045
12023TIP3    H257561   4.371   6.329   6.268  0.4264 -0.2908  1.0248
12024TIP3   OH257562   1.519   3.523  15.781 -0.0592  0.0651  0.1248
12024TIP3    H157563   1.495   3.532  15.873  2.0946  1.8016  0.6007
12024TIP3    H257564   1.470   3.592  15.737 -2.9903 -2.2589 -0.5628
12025TIP3   OH257565   2.000   3.474  12.437 -0.0473 -0.1152 -0.9569
12025TIP3    H157566   1.906   3.492  12.436 -0.6519 -2.7863 -2.5083
12025TIP3    H257567   2.040   3.552  12.398 -1.5137  1.3064  0.2398
12026TIP3   OH257568   3.687   1.374   0.425  1.2904  0.1622  0.0733
12026TIP3    H157569   3.617   1.372   0.360  0.2075  0.3609  1.1982
12026TIP3    H257570   3.764   1.340   0.379  0.7358  0.9583 -1.5057
12027TIP3   OH257571   5.399   1.655   6.101  0.1300  0.1888 -0.0808
12027TIP3    H157572   5.343   1.626   6.173  2.0160 -1.7068  0.7213
12027TIP3    H257573   5.457   1.581   6.084  2.7087  2.1802 -0.5267
12028TIP3   OH257574   4.079   1.172  13.336 -0.1536  0.5439  0.0484
12028TIP3    H157575   4.130   1.150  13.414  0.0321  0.2525 -0.1581
12028TIP3    H257576   4.019   1.240  13.366 -1.1474 -0.6447  0.8366
12029TIP3   OH257577   4.325   6.251   4.000 -0.0478  0.2962 -0.2470
12029TIP3    H157578   4.263   6.190   3.960  0.6775  0.6309 -2.0055
12029TIP3    H257579   4.273   6.301   4.063 -1.8228  1.0914 -2.2013
12030TIP3   OH257580   5.635   1.684   1.267 -0.1852  0.0343 -0.1869
12030TIP3    H157581   5.544   1.704   1.289  0.0293  0.2192  0.5696
12030TIP3    H257582   5.630   1.607   1.210 -0.8939  0.9098 -1.3537
12031TIP3   OH257583   4.074   0.592   2.301 -0.1941  0.6455 -0.3862
12031TIP3    H157584   4.058   0.518   2.243  1.7441 -0.0366 -0.1364
12031TIP3    H257585   4.088   0.553   2.387  1.2911  1.2004 -0.3324
12032TIP3   OH257586   1.381   1.350  13.451  0.2662 -0.2450  0.4989
12032TIP3    H157587   1.369   1.366  13.357  1.3094 -1.2497  0.1649
12032TIP3    H257588   1.473   1.324  13.459  0.2851  0.1626  1.8564
12033TIP3   OH257589   2.033   4.901   5.481 -0.3418  0.3221 -1.0760
12033TIP3    H157590   2.028   4.877   5.573  2.0765  0.7712 -0.7630
12033TIP3    H257591   2.091   4.977   5.479  1.3792 -0.9406 -3.1419
12034TIP3   OH257592   6.265   4.744   3.721 -0.7811  0.2375 -0.0518
12034TIP3    H157593   6.272   4.682   3.648 -2.1998 -0.1974  0.1547
12034TIP3    H257594   6.355   4.753   3.752 -0.3912 -0.9158 -0.7455
12035TIP3   OH257595   6.063   5.437   6.156 -0.1326 -0.4438 -0.2411
12035TIP3    H157596   6.150   5.412   6.127 -0.0614 -0.3577 -0.1017
12035TIP3    H257597   6.056   5.530   6.135  0.4406 -0.0350  1.2639
12036TIP3   OH257598   6.185   5.651   5.494 -0.1060  0.1714  0.3355
12036TIP3    H157599   6.222   5.575   5.538 -2.4251 -0.2066  1.8081
12036TIP3    H257600   6.241   5.724   5.521  0.8243 -0.6681  0.7313
12037TIP3   OH257601   3.015   5.245   1.808  0.3305  0.7278  0.8723
12037TIP3    H157602   3.050   5.282   1.727 -1.2413  0.3440 -0.0226
12037TIP3    H257603   2.930   5.289   1.820 -0.0937 -0.2222  1.5387
12038TIP3   OH257604   5.562   1.020   1.778  0.3883 -0.2094 -0.5305
12038TIP3    H157605   5.509   0.944   1.755 -0.7969 -0.2758  2.0325
12038TIP3    H257606   5.506   1.096   1.760  0.7174 -0.0597 -0.9556
12039TIP3   OH257607   6.706   6.333   4.026 -0.3014  0.0397  0.6628
12039TIP3    H157608   6.759   6.328   3.946  1.4993  0.8841  1.7314
12039TIP3    H257609   6.620   6.361   3.996  0.0473 -0.6059 -1.0761
12040TIP3   OH257610   3.701   3.617   4.568  0.2027  0.8358 -0.2149
12040TIP3    H157611   3.641   3.669   4.515 -1.0602 -1.2355 -0.9136
12040TIP3    H257612   3.789   3.642   4.537 -0.3917  1.8480 -1.1408
12041TIP3   OH257613   1.914   5.172  17.226  0.1259  0.4640  0.1998
12041TIP3    H157614   1.987   5.127  17.184  1.1044  1.4630  0.7823
12041TIP3    H257615   1.841   5.161  17.165  0.9681  0.1200 -0.7838
12042TIP3   OH257616   3.133   1.039  15.111  0.3412 -0.1696 -0.2066
12042TIP3    H157617   3.203   1.079  15.059  0.9300 -0.5187  0.3073
12042TIP3    H257618   3.061   1.028  15.049  1.4847 -1.8208 -1.3333
12043TIP3   OH257619   1.990   6.069  12.347  0.1789 -0.0524 -0.3348
12043TIP3    H157620   2.055   6.124  12.302  0.2960 -0.5274 -0.7561
12043TIP3    H257621   2.015   5.980  12.324 -0.6004 -0.2384 -0.4713
12044TIP3   OH257622   0.660   2.100  14.733 -0.9007  0.0598  0.1250
12044TIP3    H157623   0.723   2.043  14.690 -0.4062  0.2349  0.6006
12044TIP3    H257624   0.709   2.180  14.751 -1.1834  0.1024  0.7338
12045TIP3   OH257625   3.679   3.368   2.351 -0.1924  0.2048 -0.0060
12045TIP3    H157626   3.769   3.340   2.334 -0.7702 -1.5582 -0.4272
12045TIP3    H257627   3.679   3.397   2.442  0.9901  1.1038 -0.2790
12046TIP3   OH257628   3.753   5.947  14.920  0.1746  0.3407 -0.1737
12046TIP3    H157629   3.737   5.958  14.826  1.4396 -0.1711 -0.4759
12046TIP3    H257630   3.756   5.852  14.932  2.2434  0.3775 -0.0626
12047TIP3   OH257631   6.486   3.726   1.101  0.4357  0.2952 -0.1280
12047TIP3    H157632   6.473   3.705   1.008 -0.0118  1.9779 -0.4798
12047TIP3    H257633   6.398   3.727   1.137  0.5353  0.5181  0.1095
12048TIP3   OH257634   3.734   1.602   0.068  0.1903  0.6228  0.0976
12048TIP3    H157635   3.674   1.615   0.141 -0.1907 -1.3877  0.1911
12048TIP3    H257636   3.821   1.620   0.103  0.3848 -3.0349  1.9941
12049TIP3   OH257637   1.178   5.306   4.383 -0.5049 -0.2743  0.0473
12049TIP3    H157638   1.234   5.358   4.441 -0.5986  0.2755 -0.3491
12049TIP3    H257639   1.132   5.247   4.443 -0.4695  0.1653  0.5227
12050TIP3   OH257640   5.188   3.815  11.642  0.5367  0.3268  0.1238
12050TIP3    H157641   5.196   3.902  11.603 -0.3907 -0.3146 -1.6229
12050TIP3    H257642   5.175   3.831  11.735  2.3513  1.9623  0.1581
12051TIP3   OH257643   4.547   1.165  17.396 -0.1881 -0.7618  0.0965
12051TIP3    H157644   4.618   1.208  17.443  0.6622  0.1551 -1.9009
12051TIP3    H257645   4.542   1.078  17.436  0.0689  0.1280  2.2172
12052TIP3   OH257646   5.151   4.205   1.988 -0.1944  0.1402  0.2017
12052TIP3    H157647   5.139   4.156   2.070 -0.4369 -1.2815 -0.6491
12052TIP3    H257648   5.233   4.170   1.951 -1.0169 -0.5473 -1.0265
12053TIP3   OH257649   1.221   4.639  11.242  0.3620 -0.1363 -0.0161
12053TIP3    H157650   1.205   4.572  11.175  1.2246 -1.5114  1.0980
12053TIP3    H257651   1.159   4.709  11.221  2.5157  0.8831 -4.0215
12054TIP3   OH257652   3.199   4.968   3.065  0.5358 -0.0126  0.4633
12054TIP3    H157653   3.270   4.904   3.060  0.7939  0.1946  1.3720
12054TIP3    H257654   3.213   5.025   2.989 -0.5904 -1.9029 -1.2839
12055TIP3   OH257655   1.261   3.054  11.199 -0.6615  0.1316  0.2713
12055TIP3    H157656   1.192   3.029  11.261 -0.7001  0.9050  0.5610
12055TIP3    H257657   1.255   3.150  11.196  0.4682  0.2103  0.3870
12056TIP3   OH257658   2.819   2.082  12.655  0.2909  0.0965 -0.2229
12056TIP3    H157659   2.904   2.083  12.700  0.2246  1.1758 -0.1094
12056TIP3    H257660   2.841   2.073  12.562  0.5240  0.1874 -0.1775
12057TIP3   OH257661   6.292   6.627  13.336  0.1959 -0.5496 -0.1928
12057TIP3    H157662   6.207   6.664  13.358  0.2953 -0.4665  0.0524
12057TIP3    H257663   6.289   6.614  13.241 -0.5799 -1.7626 -0.0310
12058TIP3   OH257664   3.126   4.856   5.820 -0.0052 -0.6914 -0.2626
12058TIP3    H157665   3.057   4.916   5.793  0.0187 -0.6759 -0.2905
12058TIP3    H257666   3.132   4.793   5.748  0.4777 -0.2945 -0.5787
12059TIP3   OH257667   2.139   0.179   5.299 -0.1904 -0.0288  0.1585
12059TIP3    H157668   2.114   0.088   5.286 -0.8942  0.1520  0.1771
12059TIP3    H257669   2.159   0.211   5.211  0.9291 -0.4354  0.2540
12060TIP3   OH257670   1.416   3.327  16.069 -0.8299  0.1418 -0.2617
12060TIP3    H157671   1.332   3.347  16.026 -0.7146 -0.4045 -0.7531
12060TIP3    H257672   1.450   3.412  16.095 -1.7121  0.3371  0.2653
12061TIP3   OH257673   0.670   1.144   3.507 -0.0765 -0.6622 -0.2343
12061TIP3    H157674   0.578   1.117   3.506 -0.2882 -0.2687  2.3647
12061TIP3    H257675   0.676   1.210   3.576  1.9670  0.1360 -1.0857
12062TIP3   OH257676   1.382   0.953  12.825  0.3773  0.0483 -0.0652
12062TIP3    H157677   1.426   0.893  12.764  0.3848  0.6330 -0.6491
12062TIP3    H257678   1.301   0.907  12.849  1.0693 -0.8323  0.6586
12063TIP3   OH257679   3.814   6.046   2.089 -0.2667  0.3003  0.2559
12063TIP3    H157680   3.827   6.134   2.124 -1.6675  1.4063 -1.8340
12063TIP3    H257681   3.808   6.058   1.994 -1.4610 -1.9197 -0.0106
12064TIP3   OH257682   4.904   2.363  17.303 -0.7277 -0.0140  0.0414
12064TIP3    H157683   4.919   2.283  17.353  0.7356 -1.1664 -2.0415
12064TIP3    H257684   4.846   2.336  17.231  0.2599  0.5984 -1.0267
12065TIP3   OH257685   3.995   1.559  15.315  0.6197 -0.5109  0.1183
12065TIP3    H157686   4.030   1.628  15.371  1.1926  0.5108 -1.4627
12065TIP3    H257687   4.063   1.491  15.315  0.6259 -0.5085  0.6181
12066TIP3   OH257688   0.838   4.018  12.387  0.1725  0.2514  0.5973
12066TIP3    H157689   0.825   3.994  12.479 -2.0213  1.8304  0.7793
12066TIP3    H257690   0.763   3.978  12.342 -0.8967  2.5979  0.1682
12067TIP3   OH257691   6.583   4.892  14.325  0.9225  0.1220 -0.1060
12067TIP3    H157692   6.495   4.853  14.320  0.3011  1.5790 -1.5730
12067TIP3    H257693   6.594   4.937  14.242  4.0133 -1.8339 -0.9045
12068TIP3   OH257694   6.686   4.783  16.564 -0.0029 -0.0338  0.4436
12068TIP3    H157695   6.609   4.792  16.620 -1.6952 -0.0124 -1.7428
12068TIP3    H257696   6.693   4.689  16.547 -1.1121  0.1584 -1.3222
12069TIP3   OH257697   0.312   3.093   0.406 -0.4187  0.0774 -0.6345
12069TIP3    H157698   0.371   3.051   0.469  0.1592 -0.3459 -1.4475
12069TIP3    H257699   0.351   3.179   0.390 -0.9759  0.4935  0.1413
12070TIP3   OH257700   0.005   4.438  16.681 -0.1123 -0.0405  0.2574
12070TIP3    H157701   0.042   4.442  16.593 -0.1796  0.5911  0.2575
12070TIP3    H257702   0.013   4.527  16.715 -1.4636  0.0657  0.3350
12071TIP3   OH257703   6.060   2.475  13.941  0.5406  0.2750 -0.2918
12071TIP3    H157704   5.981   2.425  13.919  1.0581 -1.7197  1.8978
12071TIP3    H257705   6.037   2.566  13.922 -2.0396 -0.3103 -0.3956
12072TIP3   OH257706   2.247   3.364  16.301  0.2072 -0.1542  0.1741
12072TIP3    H157707   2.173   3.399  16.251 -0.5296 -3.0714 -1.0031
12072TIP3    H257708   2.320   3.366  16.239  0.5097  0.4938  0.5440
12073TIP3   OH257709   5.081   0.949  15.022 -0.0320 -0.1698  0.0748
12073TIP3    H157710   5.091   1.030  14.972 -0.3900 -0.9778 -1.3700
12073TIP3    H257711   4.991   0.952  15.054 -0.4397 -0.4995 -0.9735
12074TIP3   OH257712   5.014   2.880   3.280 -0.7688  0.1694 -0.0988
12074TIP3    H157713   5.053   2.804   3.323  1.3878  1.9826  1.4105
12074TIP3    H257714   4.936   2.900   3.331 -0.1759  0.2038  0.8155
12075TIP3   OH257715   5.975   3.299   3.564 -0.2770 -0.7425  0.0480
12075TIP3    H157716   5.905   3.363   3.573 -0.3590 -0.7030 -0.7406
12075TIP3    H257717   6.006   3.309   3.473  2.4869  1.0075  1.0473
12076TIP3   OH257718   5.812   6.316   0.396 -0.6222 -0.5114  1.5681
12076TIP3    H157719   5.821   6.223   0.378  1.2181 -0.3444  1.4293
12076TIP3    H257720   5.887   6.337   0.452 -0.4628  1.0636  0.8123
12077TIP3   OH257721   6.782   2.348  13.751 -0.0644  0.2998 -0.1478
12077TIP3    H157722   6.742   2.435  13.745  0.2398  0.6768  2.2705
12077TIP3    H257723   6.870   2.360  13.716 -0.6321  0.4502 -1.6263
12078TIP3   OH257724   2.366   2.724  15.702 -0.2842  0.2012  0.1038
12078TIP3    H157725   2.458   2.700  15.695  0.0907 -0.6351  4.6195
12078TIP3    H257726   2.349   2.779  15.625  4.6885  2.5619  0.3019
12079TIP3   OH257727   4.502   5.403   0.514  0.6356 -0.2682  0.3296
12079TIP3    H157728   4.412   5.372   0.528  1.2146 -1.4386  1.7462
12079TIP3    H257729   4.521   5.381   0.423 -0.0801 -1.1965  0.3910
12080TIP3   OH257730   2.079   4.329   2.704 -0.0201  0.5061 -0.3431
12080TIP3    H157731   2.051   4.376   2.783  1.5905  1.1239 -0.1045
12080TIP3    H257732   2.000   4.285   2.674 -1.2164  2.0574  0.3542
12081TIP3   OH257733   0.924   6.737   0.707 -0.8325  0.5267  0.1928
12081TIP3    H157734   0.913   6.650   0.747 -0.5170  0.0619 -0.6911
12081TIP3    H257735   0.841   6.752   0.662 -0.2863 -0.0961 -1.0771
12082TIP3   OH257736   5.536   0.368   4.361  0.0705  0.4322  0.2070
12082TIP3    H157737   5.501   0.457   4.373  1.2638  0.9137  0.1810
12082TIP3    H257738   5.491   0.335   4.283 -2.4028 -0.0281  1.7172
12083TIP3   OH257739   1.816   1.071   2.777  0.0941 -0.1077  0.1780
12083TIP3    H157740   1.908   1.082   2.752  0.7102 -2.2285  1.3203
12083TIP3    H257741   1.768   1.080   2.694  1.4011  0.0103 -0.5978
12084TIP3   OH257742   2.351   3.577  13.773  0.0419  0.1764  0.4233
12084TIP3    H157743   2.295   3.610  13.843 -1.2699 -1.4004  0.1854
12084TIP3    H257744   2.294   3.575  13.696 -0.0203 -2.6509  0.4477
12085TIP3   OH257745   5.956   2.679   4.286  0.2810 -0.3084  0.2765
12085TIP3    H157746   5.965   2.593   4.247 -0.2561 -0.2030 -0.0843
12085TIP3    H257747   5.880   2.718   4.243  1.1879  0.7994 -0.3961
12086TIP3   OH257748   5.230   6.765  12.402 -0.1239  0.1921  0.4722
12086TIP3    H157749   5.252   6.726  12.486  0.9043 -2.2586 -0.8267
12086TIP3    H257750   5.144   6.728  12.380  0.6851 -1.1760 -0.5934
12087TIP3   OH257751   2.468   5.453   1.982  0.4871 -0.0963 -0.2221
12087TIP3    H157752   2.495   5.511   2.053  2.2677 -0.1876 -0.7680
12087TIP3    H257753   2.463   5.366   2.022 -3.6123  0.4700  0.9534
12088TIP3   OH257754   5.338   4.601  14.315 -0.1098  0.0335 -0.7732
12088TIP3    H157755   5.417   4.546  14.317 -0.4951 -0.5428  1.5441
12088TIP3    H257756   5.366   4.682  14.274  1.1249 -0.9466 -1.9620
12089TIP3   OH257757   1.770   1.403   2.139 -0.7582 -0.5577 -0.2301
12089TIP3    H157758   1.683   1.412   2.099 -0.5310 -1.9290 -1.0918
12089TIP3    H257759   1.783   1.308   2.148  1.2079 -0.4400 -1.3772
12090TIP3   OH257760   1.782   0.738  14.715 -0.4094  0.7569  0.7212
12090TIP3    H157761   1.772   0.655  14.763 -0.5481 -1.4487 -2.7984
12090TIP3    H257762   1.873   0.763  14.730 -0.8828  1.1859  3.4699
12091TIP3   OH257763   0.778   3.797  15.186 -0.2882  0.8393  0.1097
12091TIP3    H157764   0.831   3.856  15.239  2.2747 -0.8811 -0.3466
12091TIP3    H257765   0.739   3.736  15.250  0.8596  0.2263  0.2518
12092TIP3   OH257766   0.706   3.965   5.986 -0.9002 -0.0031  0.1127
12092TIP3    H157767   0.689   3.901   6.055 -1.7452  0.0985  0.0138
12092TIP3    H257768   0.757   4.033   6.029 -0.1149 -0.6676  0.2533
12093TIP3   OH257769   2.045   0.177  14.764  0.6606  0.1003  0.4059
12093TIP3    H157770   2.082   0.184  14.676  0.7033 -0.5708  0.3646
12093TIP3    H257771   2.018   0.266  14.786  0.5788  0.2620 -0.3201
12094TIP3   OH257772   6.607   3.033   1.242 -0.6037 -0.4417 -0.2478
12094TIP3    H157773   6.615   2.956   1.185 -0.5143 -0.0649 -0.7567
12094TIP3    H257774   6.553   3.094   1.191 -0.2534  0.0279 -0.0664
12095TIP3   OH257775   4.329   2.362  17.180  0.0967 -0.2582  0.5287
12095TIP3    H157776   4.261   2.405  17.231  0.7159 -0.5379  1.6461
12095TIP3    H257777   4.371   2.302  17.243  0.7345 -0.7952 -0.3870
12096TIP3   OH257778   6.654   0.608   1.071  0.3916 -1.1144 -0.0690
12096TIP3    H157779   6.602   0.683   1.041  2.0014  0.4908  0.8828
12096TIP3    H257780   6.615   0.583   1.154  0.5561 -0.5042  0.2023
12097TIP3   OH257781   0.552   4.593  16.452  0.1699  0.4745  0.4176
12097TIP3    H157782   0.492   4.614  16.380  1.7674  1.8305 -0.5965
12097TIP3    H257783   0.595   4.512  16.424 -0.7226 -0.1666  0.8642
12098TIP3   OH257784   3.155   0.304  16.591 -0.2425  0.1278 -0.5580
12098TIP3    H157785   3.114   0.344  16.668  0.1907 -0.7815  0.1544
12098TIP3    H257786   3.106   0.341  16.517 -0.4029  1.3221  0.1166
12099TIP3   OH257787   5.376   5.345   4.401 -0.1835  0.4097 -0.1669
12099TIP3    H157788   5.299   5.290   4.408  0.0692 -0.1182 -1.3553
12099TIP3    H257789   5.448   5.284   4.385  0.8190  0.7079  2.5616
12100TIP3   OH257790   5.386   0.735  14.207 -0.2852 -0.0749 -0.2933
12100TIP3    H157791   5.360   0.677  14.136 -0.5264  1.2177 -1.3062
12100TIP3    H257792   5.400   0.677  14.282  0.0775 -1.4907 -1.4055
12101TIP3   OH257793   1.518   1.690  15.412 -0.3711  0.1893  0.2310
12101TIP3    H157794   1.429   1.675  15.380  0.0453 -0.5498 -0.6087
12101TIP3    H257795   1.566   1.723  15.336  0.1033  0.5003  0.6565
12102TIP3   OH257796   0.916   2.915  14.285  0.6115  0.1324 -0.8258
12102TIP3    H157797   1.005   2.881  14.275  0.8012  0.5786 -0.6806
12102TIP3    H257798   0.873   2.895  14.202  0.4662 -1.1678 -0.4718
12103TIP3   OH257799   1.219   0.548   4.984  0.2185 -0.0491  0.1966
12103TIP3    H157800   1.243   0.640   4.998 -0.0676 -0.0639  0.8620
12103TIP3    H257801   1.134   0.539   5.027  0.1222 -0.5628 -0.0907
12104TIP3   OH257802   1.852   2.466  14.079  0.1717  0.7823  0.0113
12104TIP3    H157803   1.926   2.428  14.127 -0.9529 -1.9835 -0.2821
12104TIP3    H257804   1.785   2.480  14.146 -0.6753 -1.1819 -0.3718
12105TIP3   OH257805   0.671   1.560  11.428  0.2017 -0.0625  0.1259
12105TIP3    H157806   0.723   1.489  11.464  1.1916  0.3100 -0.5397
12105TIP3    H257807   0.644   1.529  11.342  0.3836  0.2535 -0.0454
12106TIP3   OH257808   4.725   3.315  15.056  0.7449  0.3217 -0.3627
12106TIP3    H157809   4.745   3.241  15.113 -2.0567  0.0528  0.4182
12106TIP3    H257810   4.780   3.302  14.978 -0.0991 -2.9490 -0.5309
12107TIP3   OH257811   0.221   0.601  14.538  0.6087  0.2849 -0.2978
12107TIP3    H157812   0.168   0.529  14.573 -1.9913  2.6110  0.9334
12107TIP3    H257813   0.299   0.558  14.504 -0.0947 -2.9630  1.6793
12108TIP3   OH257814   6.018   6.040  14.691  0.3897  0.2726  0.3135
12108TIP3    H157815   6.040   6.127  14.724 -3.6025  1.3263  0.7110
12108TIP3    H257816   5.992   6.055  14.600  1.8348 -0.9545 -0.3422
12109TIP3   OH257817   5.707   3.531  13.520 -0.4750 -0.4637 -0.0006
12109TIP3    H157818   5.690   3.624  13.534 -1.8888 -0.5183 -1.1376
12109TIP3    H257819   5.620   3.491  13.516  0.1105 -1.8923  0.6927
12110TIP3   OH257820   1.133   4.348   0.287  0.4531 -0.0146  0.6525
12110TIP3    H157821   1.094   4.419   0.338 -0.1970 -0.2522  0.4983
12110TIP3    H257822   1.059   4.292   0.264  0.4599  0.8832 -1.8864
12111TIP3   OH257823   5.181   5.261  12.305 -0.0511 -0.1756 -0.3184
12111TIP3    H157824   5.260   5.233  12.259 -0.1149  0.8068 -1.0592
12111TIP3    H257825   5.192   5.355  12.318 -1.1853  0.0229 -0.6550
12112TIP3   OH257826   3.102   6.726   5.129 -0.2996 -0.3819 -0.0743
12112TIP3    H157827   3.140   6.805   5.092 -0.2011  0.4555  1.6973
12112TIP3    H257828   3.169   6.692   5.187 -1.0421 -0.6943  0.6292
12113TIP3   OH257829   1.763   6.687  15.162 -0.3393  0.2165 -0.5048
12113TIP3    H157830   1.706   6.760  15.139 -0.2043  0.4557 -0.1079
12113TIP3    H257831   1.751   6.623  15.093 -0.5351  0.5786 -0.8067
12114TIP3   OH257832   6.556   3.158   6.375 -0.1505 -0.3291  0.5254
12114TIP3    H157833   6.492   3.187   6.311 -0.1527 -1.5360 -0.0614
12114TIP3    H257834   6.564   3.230   6.437  2.1273  2.2432 -2.4637
12115TIP3   OH257835   6.437   1.920  15.635 -0.5489 -0.4999 -0.2995
12115TIP3    H157836   6.348   1.887  15.623 -0.9675  0.8517 -1.0716
12115TIP3    H257837   6.487   1.843  15.663 -2.1252 -1.1018  1.0414
12116TIP3   OH257838   2.062   5.813  11.538  0.4931 -0.2850  0.3866
12116TIP3    H157839   2.137   5.814  11.479 -0.0749 -0.9061 -0.3676
12116TIP3    H257840   1.988   5.842  11.484  0.3313  1.1813  1.3410
12117TIP3   OH257841   0.381   3.669  15.272  0.3973 -0.2092 -0.4195
12117TIP3    H157842   0.382   3.762  15.294  0.0006 -0.3127  0.0505
12117TIP3    H257843   0.470   3.638  15.288  0.2848 -0.1268  0.3559
12118TIP3   OH257844   0.873   1.521  13.702 -0.0669  0.1360  0.4459
12118TIP3    H157845   0.871   1.442  13.755 -0.2162 -0.4745 -0.4523
12118TIP3    H257846   0.866   1.490  13.611 -0.9361  1.2247  0.1182
12119TIP3   OH257847   5.473   4.368   0.767  0.2683 -0.2159  0.2225
12119TIP3    H157848   5.500   4.447   0.721  1.1426  0.0001  1.0867
12119TIP3    H257849   5.441   4.310   0.697 -2.1059  1.5120 -0.2635
12120TIP3   OH257850   2.606   4.226   0.618  0.0656  0.1218 -0.2677
12120TIP3    H157851   2.679   4.184   0.662  1.1326  1.5269 -0.6308
12120TIP3    H257852   2.535   4.224   0.682  1.2329  1.1023  1.1097
12121TIP3   OH257853   1.587   3.704   2.000 -0.2509 -0.0089  0.2706
12121TIP3    H157854   1.653   3.637   1.981 -0.9815 -0.3959 -1.0289
12121TIP3    H257855   1.637   3.786   2.002  0.1990 -0.1967 -1.4716
12122TIP3   OH257856   0.236   1.632  13.036 -0.3126  0.0214  0.2169
12122TIP3    H157857   0.315   1.632  13.091 -0.1305 -0.2641 -0.0387
12122TIP3    H257858   0.166   1.658  13.095  0.0930  1.0169  0.2731
12123TIP3   OH257859   1.568   5.999  11.805 -0.3175 -0.7651  0.3723
12123TIP3    H157860   1.525   5.922  11.842 -0.0170 -1.0528  0.1216
12123TIP3    H257861   1.629   5.964  11.740 -1.4041 -0.2441 -0.9845
12124TIP3   OH257862   2.141   3.936  13.915 -0.5802  0.2221 -0.3222
12124TIP3    H157863   2.164   3.843  13.906  0.3226  0.4807 -0.8524
12124TIP3    H257864   2.046   3.937  13.912 -0.5793 -0.6006 -1.3129
12125TIP3   OH257865   1.918   5.525   4.627  1.1145  0.2051  0.0137
12125TIP3    H157866   2.008   5.555   4.617  0.5987  1.6415 -0.4939
12125TIP3    H257867   1.913   5.445   4.574  2.3536 -0.4990  0.9149
12126TIP3   OH257868   6.024   5.381  10.790 -0.2332 -0.1363 -0.0620
12126TIP3    H157869   5.934   5.391  10.758  0.1246 -1.8539 -1.7906
12126TIP3    H257870   6.071   5.456  10.753 -0.9386  0.8335  0.9431
12127TIP3   OH257871   1.893   5.823   1.789 -0.3179 -0.1985  0.0561
12127TIP3    H157872   1.968   5.847   1.843  0.0371 -1.1919  0.0222
12127TIP3    H257873   1.841   5.764   1.843 -0.3964 -0.5313 -0.3696
12128TIP3   OH257874   5.234   5.434   2.447 -0.3190 -0.1211  0.1520
12128TIP3    H157875   5.329   5.440   2.443 -0.3311  1.3791  1.2750
12128TIP3    H257876   5.217   5.379   2.524 -0.3879 -2.7074 -1.5929
12129TIP3   OH257877   3.314   5.586   2.685 -0.5093 -0.0898  0.7341
12129TIP3    H157878   3.302   5.500   2.643 -0.2628  0.0554  0.3600
12129TIP3    H257879   3.252   5.643   2.641  0.2202  0.2225  0.0863
12130TIP3   OH257880   2.119   4.097  16.242  0.1884  0.1729 -0.0613
12130TIP3    H157881   2.057   4.169  16.234  1.5865  1.4575  0.1528
12130TIP3    H257882   2.199   4.130  16.202  1.7187 -0.2021  2.4751
12131TIP3   OH257883   2.958   4.695   5.234  0.2379 -0.0241  0.6522
12131TIP3    H157884   3.014   4.622   5.260  0.6824  0.3161  0.6726
12131TIP3    H257885   2.979   4.711   5.142 -0.4286 -0.4214  0.4226
12132TIP3   OH257886   0.568   3.733   1.615  0.1023  0.5047 -0.3463
12132TIP3    H157887   0.659   3.730   1.646 -0.3680  1.3898  1.2582
12132TIP3    H257888   0.516   3.742   1.695 -1.3821  0.4230 -1.2605
12133TIP3   OH257889   1.893   5.282   5.165  0.0099  0.6163 -0.3188
12133TIP3    H157890   1.898   5.377   5.154 -0.8909  0.7967  0.6708
12133TIP3    H257891   1.842   5.269   5.245  1.5353 -0.6868  0.5176
12134TIP3   OH257892   0.372   1.356   3.643 -0.0669 -0.2546  0.5954
12134TIP3    H157893   0.282   1.336   3.669  0.1268 -0.3616  1.1998
12134TIP3    H257894   0.364   1.435   3.590 -0.6301 -0.8430 -0.2254
12135TIP3   OH257895   4.269   0.521   3.763  0.8699  0.4821  0.4454
12135TIP3    H157896   4.248   0.428   3.769 -0.3258  0.8312  2.3831
12135TIP3    H257897   4.246   0.544   3.673 -3.7073 -0.0857  1.1952
12136TIP3   OH257898   5.922   4.290   5.784 -0.1725  0.5091  0.0927
12136TIP3    H157899   5.916   4.241   5.702  0.3736  0.8700 -0.1722
12136TIP3    H257900   5.839   4.274   5.828  0.1331 -0.9869  0.2013
12137TIP3   OH257901   3.647   0.767   4.001  0.3464  0.2072 -0.2819
12137TIP3    H157902   3.564   0.735   4.036  0.4057 -0.0111 -0.3391
12137TIP3    H257903   3.698   0.688   3.982  1.9798  0.2744  2.9945
12138TIP3   OH257904   1.558   4.906  17.117  0.3055 -0.3965  0.5893
12138TIP3    H157905   1.646   4.890  17.081  0.0087 -0.4806 -0.1225
12138TIP3    H257906   1.519   4.819  17.124  0.4136 -0.3898  1.2572
12139TIP3   OH257907   2.789   4.171   3.501 -0.4688 -0.0395 -0.3325
12139TIP3    H157908   2.868   4.219   3.528 -0.7029  0.0462  0.2341
12139TIP3    H257909   2.807   4.144   3.411  1.0377 -1.7548  0.4126
12140TIP3   OH257910   4.443   1.373   4.744 -0.1425  0.0110 -0.0519
12140TIP3    H157911   4.441   1.293   4.691  0.6441 -0.0551  0.0113
12140TIP3    H257912   4.519   1.421   4.712  0.0504  0.1988  0.6889
12141TIP3   OH257913   5.860   1.076  17.229 -0.4397 -0.2342  0.4157
12141TIP3    H157914   5.917   1.153  17.221 -0.4459 -0.1208  1.4435
12141TIP3    H257915   5.798   1.098  17.297  0.6716 -1.8189  2.0471
12142TIP3   OH257916   1.024   5.625  13.653 -0.0865 -0.0761  0.1510
12142TIP3    H157917   1.000   5.615  13.561  3.0890  2.1522 -1.1227
12142TIP3    H257918   1.000   5.715  13.674  0.2560 -0.2038  1.1340
12143TIP3   OH257919   4.153   2.983   2.219 -0.3288  0.1776  0.0369
12143TIP3    H157920   4.209   2.982   2.142 -0.3895  0.6539 -0.0150
12143TIP3    H257921   4.064   2.989   2.184 -0.5612 -2.1967  0.0502
12144TIP3   OH257922   2.564   6.314   3.829  0.0918  0.5394  0.0434
12144TIP3    H157923   2.575   6.299   3.735  1.0117  0.4161  0.1616
12144TIP3    H257924   2.653   6.318   3.863 -0.2421 -0.0889  1.0245
12145TIP3   OH257925   4.533   5.829   0.463 -0.3485 -0.2760  0.0287
12145TIP3    H157926   4.442   5.843   0.489  0.6558  3.1751  2.3723
12145TIP3    H257927   4.550   5.737   0.485 -2.7273 -0.4864  1.3281
12146TIP3   OH257928   2.449   6.309  15.772  0.3381 -0.0203 -0.6651
12146TIP3    H157929   2.390   6.314  15.697  0.3343  1.1661 -0.6090
12146TIP3    H257930   2.531   6.348  15.741 -0.1374  1.8941  0.3452
12147TIP3   OH257931   4.481   4.412  13.740  0.3665 -0.1538 -0.0760
12147TIP3    H157932   4.413   4.439  13.678  1.8297  1.9661 -0.8522
12147TIP3    H257933   4.473   4.472  13.814 -1.0869 -2.3918  1.7631
12148TIP3   OH257934   2.130   6.206  17.283  0.1329  0.1212 -0.3229
12148TIP3    H157935   2.055   6.205  17.342 -0.3606  0.7922 -0.9197
12148TIP3    H257936   2.149   6.299  17.269  0.6813 -0.0360 -0.6650
12149TIP3   OH257937   1.332   0.491   0.067 -0.0800 -0.0873  1.1766
12149TIP3    H157938   1.246   0.526   0.045 -0.6063 -1.1309  1.5247
12149TIP3    H257939   1.386   0.513  -0.009 -0.8822 -0.2199  0.5512
12150TIP3   OH257940   6.275   3.175  16.539 -0.0101  0.4184 -0.0277
12150TIP3    H157941   6.297   3.143  16.452 -0.4175 -0.5380  0.2067
12150TIP3    H257942   6.179   3.174  16.542 -0.0130 -1.0317  0.9199
12151TIP3   OH257943   4.708   5.183   1.414  0.2341  0.6437  0.5393
12151TIP3    H157944   4.697   5.091   1.388 -1.1519  0.8640  0.2703
12151TIP3    H257945   4.717   5.230   1.331  2.1021  0.6522  0.7020
12152TIP3   OH257946   2.112   2.393  16.218  0.6388 -0.1819 -0.0783
12152TIP3    H157947   2.094   2.301  16.197  2.1624 -0.0746 -2.1225
12152TIP3    H257948   2.189   2.415  16.166 -1.3116  3.0845 -1.9039
12153TIP3   OH257949   5.590   5.184   4.334  0.1627 -0.2157  0.8299
12153TIP3    H157950   5.600   5.155   4.244  0.3531  0.1409  0.7333
12153TIP3    H257951   5.675   5.164   4.375  0.3957  0.4611  0.6871
12154TIP3   OH257952   4.265   2.894  15.386  0.1790  0.4560  0.3506
12154TIP3    H157953   4.210   2.906  15.463 -0.4973  0.0867 -0.0620
12154TIP3    H257954   4.257   2.977  15.338 -1.1865 -0.0737 -0.4202
12155TIP3   OH257955   5.336   6.095  16.757 -0.5094  0.1854  0.2596
12155TIP3    H157956   5.348   6.189  16.745 -1.3775  0.1941 -0.7603
12155TIP3    H257957   5.390   6.055  16.689  2.1721 -0.2290  2.4610
12156TIP3   OH257958   2.995   4.491  15.477 -0.3697 -0.6598  0.3348
12156TIP3    H157959   3.071   4.501  15.419  0.3535 -0.7361  1.2462
12156TIP3    H257960   2.926   4.458  15.420  0.5832 -1.6303 -0.3114
12157TIP3   OH257961   6.401   3.099   2.357  0.1565 -0.2351 -0.6815
12157TIP3    H157962   6.453   3.159   2.305  0.1799 -0.5431 -1.0187
12157TIP3    H257963   6.392   3.142   2.442 -1.2428  1.0389 -1.4276
12158TIP3   OH257964   5.839   2.434  15.354 -0.4878 -0.2177 -0.0240
12158TIP3    H157965   5.863   2.486  15.430  1.1739 -1.3549  0.2782
12158TIP3    H257966   5.803   2.353  15.391  1.7782 -1.4551 -0.3320
12159TIP3   OH257967   2.833   6.796  13.227  0.1489 -0.0119  0.4224
12159TIP3    H157968   2.782   6.828  13.302 -1.3657  0.2548 -0.6639
12159TIP3    H257969   2.821   6.864  13.160  1.7806 -0.0655  0.0332
12160TIP3   OH257970   5.854   1.689  15.591  0.0922  0.2249  0.6091
12160TIP3    H157971   5.811   1.607  15.568  1.7170 -0.2879 -0.7729
12160TIP3    H257972   5.783   1.745  15.623 -1.2773 -1.2046  0.1904
12161TIP3   OH257973   5.946   4.467  15.053  0.4267 -0.5051  0.0232
12161TIP3    H157974   6.023   4.519  15.076 -0.4294  0.4247  0.8829
12161TIP3    H257975   5.982   4.389  15.011  1.9161 -0.6634  1.4689
12162TIP3   OH257976   1.260   1.389   1.869 -0.1966  0.1731  0.8972
12162TIP3    H157977   1.203   1.313   1.869  2.3997 -1.9117  0.8085
12162TIP3    H257978   1.292   1.396   1.959  0.6532  0.2787  0.5981
12163TIP3   OH257979   0.404   5.178  12.359  0.2365  0.0076 -0.0463
12163TIP3    H157980   0.438   5.106  12.306  1.2511  0.0118  0.5486
12163TIP3    H257981   0.430   5.257  12.312 -1.6474  0.0106 -1.1555
12164TIP3   OH257982   2.747   4.296   6.103  0.0447  0.0319 -0.2384
12164TIP3    H157983   2.835   4.303   6.139 -0.1253  1.1608 -0.0108
12164TIP3    H257984   2.699   4.242   6.167  0.4449 -0.1764 -0.1148
12165TIP3   OH257985   5.139   5.669  15.632 -0.0298  0.2772 -0.6934
12165TIP3    H157986   5.174   5.609  15.699 -1.2714  1.0496  0.7121
12165TIP3    H257987   5.044   5.657  15.637 -0.2304  1.5644 -1.1477
12166TIP3   OH257988   6.384   6.601   4.292 -0.2498 -0.1013  0.3730
12166TIP3    H157989   6.294   6.595   4.258  0.2542  1.8191 -1.4901
12166TIP3    H257990   6.373   6.625   4.384 -1.6177 -2.0745  0.8068
12167TIP3   OH257991   2.248   4.619  15.789  0.8119  0.3813  0.8720
12167TIP3    H157992   2.317   4.677  15.756  1.5860  0.0978  1.9357
12167TIP3    H257993   2.273   4.533  15.757  0.6413  0.3658  0.7826
12168TIP3   OH257994   6.064   4.420   0.232 -0.4603  0.0398  0.4687
12168TIP3    H157995   6.093   4.328   0.236  1.4314  0.4996 -1.1189
12168TIP3    H257996   6.039   4.441   0.322 -0.6320 -1.9377  0.9283
12169TIP3   OH257997   3.195   4.767   5.530  0.3562  0.6779 -0.1678
12169TIP3    H157998   3.267   4.732   5.478  0.3395  0.0686  0.2128
12169TIP3    H257999   3.190   4.859   5.504  0.9209  0.5988 -0.5883
12170TIP3   OH258000   1.812   2.752   5.149  0.2697  1.1117 -0.8065
12170TIP3    H158001   1.871   2.800   5.091 -1.0575  1.3191 -2.0636
12170TIP3    H258002   1.762   2.695   5.090  0.6853 -0.6528  0.4592
12171TIP3   OH258003   4.024   4.823  12.686  0.3760  0.2114  0.0277
12171TIP3    H158004   4.026   4.831  12.781 -1.9161  2.2711  0.0070
12171TIP3    H258005   4.064   4.903  12.653 -0.1538  0.1994 -0.6909
12172TIP3   OH258006   4.872   5.970   1.566 -0.0173 -0.1174  0.2403
12172TIP3    H158007   4.779   5.981   1.587 -0.0844 -1.2168  0.5974
12172TIP3    H258008   4.873   5.908   1.492  0.4940 -2.5442  2.1389
12173TIP3   OH258009   2.831   5.073   0.373  0.6660  0.2048 -0.4584
12173TIP3    H158010   2.813   5.058   0.466 -0.9707 -1.0161 -0.9217
12173TIP3    H258011   2.839   5.169   0.365  0.2300  0.3692  0.8428
12174TIP3   OH258012   3.586   3.334  11.749 -0.4025 -0.2832  0.3410
12174TIP3    H158013   3.664   3.283  11.771  0.3386 -0.0415 -1.4963
12174TIP3    H258014   3.527   3.271  11.707  0.3640  0.2147 -1.5981
12175TIP3   OH258015   6.501   6.040  11.750  0.8790 -0.0688 -0.6077
12175TIP3    H158016   6.525   5.967  11.693  2.5450  1.5020 -2.0408
12175TIP3    H258017   6.580   6.058  11.801  0.0465 -0.1476  0.7309
12176TIP3   OH258018   5.277   6.105   1.425 -0.7973 -0.3483 -0.5744
12176TIP3    H158019   5.312   6.019   1.449 -0.3501 -0.1961 -0.6755
12176TIP3    H258020   5.228   6.134   1.502 -1.8736 -1.1731 -0.9186
12177TIP3   OH258021   3.236   2.373  11.818  0.0256  0.4230 -0.2253
12177TIP3    H158022   3.281   2.340  11.740 -0.1918  0.2363 -0.2741
12177TIP3    H258023   3.187   2.297  11.850 -0.1932  0.6047 -0.1314
12178TIP3   OH258024   2.679   5.428   2.761  0.1036 -0.2512 -0.2414
12178TIP3    H158025   2.693   5.458   2.851 -1.7117 -1.6025  0.5473
12178TIP3    H258026   2.594   5.465   2.737 -1.1284 -2.7671 -0.0374
12179TIP3   OH258027   6.748   2.867  14.603  0.7029 -0.0007  0.3045
12179TIP3    H158028   6.717   2.821  14.526  0.6303 -2.9658  1.9349
12179TIP3    H258029   6.844   2.864  14.596  0.7231 -1.2217  0.7575
12180TIP3   OH258030   1.443   2.456  15.807  0.2986 -0.1537  0.0369
12180TIP3    H158031   1.418   2.382  15.753 -1.2683 -0.9236  1.6958
12180TIP3    H258032   1.361   2.504  15.821  0.5691 -0.1475  1.8918
12181TIP3   OH258033   6.156   3.436   4.247  0.2196  0.0968 -0.4521
12181TIP3    H158034   6.212   3.359   4.250  1.4255  0.9148 -1.1800
12181TIP3    H258035   6.212   3.505   4.212 -1.6491  0.5855 -2.6714
12182TIP3   OH258036   1.734   6.589  13.069 -0.1192  0.2055 -0.3661
12182TIP3    H158037   1.672   6.659  13.090  0.1200  0.4612 -0.5139
12182TIP3    H258038   1.678   6.512  13.054 -0.5102  0.7361 -1.8371
12183TIP3   OH258039   3.749   6.578  12.429 -0.1411 -0.3169  0.3155
12183TIP3    H158040   3.811   6.646  12.456 -0.6242 -0.3111  1.4948
12183TIP3    H258041   3.728   6.599  12.338  0.9045  0.1971  0.1841
12184TIP3   OH258042   2.117   6.429  14.222  0.2361  0.0869 -0.2007
12184TIP3    H158043   2.127   6.352  14.279  0.9735  1.5786  1.7845
12184TIP3    H258044   2.022   6.434  14.206  0.1562 -1.1331 -0.2501
12185TIP3   OH258045   2.382   4.393   3.214 -0.3081 -0.9486  0.8648
12185TIP3    H158046   2.441   4.319   3.202 -1.7626 -2.0280 -0.0196
12185TIP3    H258047   2.409   4.432   3.297  2.3470 -0.6628 -0.0663
12186TIP3   OH258048   2.417   5.328   3.148 -0.1150  0.6397 -0.3911
12186TIP3    H158049   2.495   5.354   3.196  0.3973 -0.8768 -0.3222
12186TIP3    H258050   2.347   5.383   3.182  0.7977  1.5862 -0.0020
12187TIP3   OH258051   2.636   3.130  11.295  0.0308  0.2169 -0.0396
12187TIP3    H158052   2.561   3.073  11.313 -1.6384  1.9924 -0.9653
12187TIP3    H258053   2.663   3.106  11.206  0.8461 -0.6699  0.4250
12188TIP3   OH258054   0.828   5.896   3.364 -0.8009 -0.2108  0.0550
12188TIP3    H158055   0.786   5.966   3.413 -0.6005  1.1414 -1.6000
12188TIP3    H258056   0.756   5.837   3.339 -0.9997 -0.4944  1.2614
12189TIP3   OH258057   6.674   2.597   3.548  0.1480 -0.3888 -0.1596
12189TIP3    H158058   6.703   2.612   3.458 -1.3885 -0.3933 -0.6712
12189TIP3    H258059   6.584   2.568   3.541  0.3671 -1.5883  1.3297
12190TIP3   OH258060   2.242   2.106  14.696 -1.0505 -0.4340 -0.0482
12190TIP3    H158061   2.310   2.060  14.646 -1.0079  0.5566 -0.9168
12190TIP3    H258062   2.221   2.183  14.643 -0.5173  1.0231  1.7748
12191TIP3   OH258063   3.868   4.004  12.927  0.0648 -0.0357 -0.5884
12191TIP3    H158064   3.850   3.956  13.008 -0.3745  1.5658  0.3047
12191TIP3    H258065   3.955   4.041  12.940 -0.4075  1.0398 -0.4231
12192TIP3   OH258066   5.550   4.721  12.001  0.5746 -0.0239  0.1017
12192TIP3    H158067   5.591   4.643  11.963  0.6818  1.1729 -2.3974
12192TIP3    H258068   5.456   4.708  11.986  0.4065 -0.4628  1.3573
12193TIP3   OH258069   4.654   4.383  11.713 -0.3784  0.3823  0.1395
12193TIP3    H158070   4.586   4.356  11.776 -1.8402 -1.4634 -2.0676
12193TIP3    H258071   4.690   4.300  11.680  3.2031  1.2715  1.3351
12194TIP3   OH258072   3.278   1.343  13.587  0.7014 -0.0880 -0.0654
12194TIP3    H158073   3.308   1.252  13.585 -0.4602 -0.5835  1.9480
12194TIP3    H258074   3.346   1.390  13.637  2.0069  0.5047 -2.2852
12195TIP3   OH258075   2.939   6.398   3.230  0.3080  0.5402 -0.0253
12195TIP3    H158076   2.914   6.371   3.142 -1.4535  1.0455  0.2635
12195TIP3    H258077   2.905   6.330   3.287  2.8577 -0.6249  0.2200
12196TIP3   OH258078   2.753   2.993   0.654  0.2703  0.8245 -0.4555
12196TIP3    H158079   2.706   3.007   0.737  1.2404 -0.5721  0.3937
12196TIP3    H258080   2.808   2.916   0.671 -0.4321 -0.2812 -2.8088
12197TIP3   OH258081   5.418   3.450   5.084 -0.0249  0.0855 -0.6529
12197TIP3    H158082   5.492   3.487   5.037 -0.5466 -0.4324 -1.9368
12197TIP3    H258083   5.351   3.519   5.080 -0.6868 -0.5955 -2.2727
12198TIP3   OH258084   2.427   2.101   5.747  0.1584 -0.2651  0.7605
12198TIP3    H158085   2.427   2.181   5.694  0.0844 -0.1892  0.8749
12198TIP3    H258086   2.379   2.125   5.827 -2.1788 -1.1277 -0.2742
12199TIP3   OH258087   5.507   1.970  11.705 -0.3491 -0.0400 -0.2514
12199TIP3    H158088   5.507   1.922  11.622  0.5017 -2.0679  0.8426
12199TIP3    H258089   5.465   1.910  11.767  0.8917  0.5610  1.2316
12200TIP3   OH258090   4.081   6.455  14.327 -0.4725 -0.1236 -0.6222
12200TIP3    H158091   4.094   6.485  14.418  0.9900  3.8430 -1.9077
12200TIP3    H258092   4.147   6.387  14.315 -0.9125 -0.9603  1.3469
12201TIP3   OH258093   4.839   0.523   5.628  0.3533  0.0969 -0.7391
12201TIP3    H158094   4.861   0.538   5.720  0.8335 -0.4755 -0.7577
12201TIP3    H258095   4.905   0.573   5.579  0.4498 -0.0685 -0.7779
12202TIP3   OH258096   4.208   0.841  13.580 -0.1721  0.2034  0.1769
12202TIP3    H158097   4.183   0.788  13.656  0.1097 -1.8968 -1.1292
12202TIP3    H258098   4.297   0.871  13.601  0.1947 -0.9794  0.3858
12203TIP3   OH258099   4.404   2.878   3.679 -0.1751 -0.3210 -0.1021
12203TIP3    H158100   4.423   2.807   3.617  0.5320 -0.3481  0.1344
12203TIP3    H258101   4.367   2.948   3.625  1.9366  0.2984 -0.8672
12204TIP3   OH258102   2.524   0.136  15.343  0.1140  0.0105  0.0462
12204TIP3    H158103   2.599   0.077  15.355  1.5538  2.1386  2.3064
12204TIP3    H258104   2.546   0.185  15.263 -0.1700 -1.1081 -0.7515
12205TIP3   OH258105   3.069   3.184   1.468 -0.5114  0.0221 -0.2302
12205TIP3    H158106   3.131   3.189   1.540  1.8979  0.9169 -2.1901
12205TIP3    H258107   3.038   3.094   1.468  1.2546 -0.6246  0.5116
12206TIP3   OH258108   4.587   1.973   1.972 -0.3537  0.3963  0.6574
12206TIP3    H158109   4.661   1.930   1.929 -1.2655 -0.4441 -0.1277
12206TIP3    H258110   4.603   1.962   2.066  0.8001  0.7517  0.5127
12207TIP3   OH258111   6.267   1.047   2.499  0.0020 -0.1216 -0.1665
12207TIP3    H158112   6.247   0.957   2.526  0.5954 -0.4681 -0.8325
12207TIP3    H258113   6.233   1.052   2.409 -3.2873  1.4619  1.0221
12208TIP3   OH258114   1.082   0.527  11.420  0.1380 -0.0906  0.6826
12208TIP3    H158115   1.156   0.576  11.456  1.4362  1.0107 -3.0492
12208TIP3    H258116   1.005   0.566  11.462  1.3780  2.4964  0.7553
12209TIP3   OH258117   6.464   0.003  15.914  1.3297 -0.2877 -0.3529
12209TIP3    H158118   6.438   0.094  15.923  1.0871 -0.5214  1.6932
12209TIP3    H258119   6.506  -0.002  15.828 -0.0208  1.3938 -1.1650
12210TIP3   OH258120   3.293   5.012  16.294 -0.2479  0.3769 -0.2131
12210TIP3    H158121   3.376   5.053  16.270 -0.9775  1.8245 -0.3900
12210TIP3    H258122   3.280   5.036  16.386 -0.3735 -0.0129 -0.1267
12211TIP3   OH258123   6.591   3.559  12.584  0.6153  0.3099  0.1390
12211TIP3    H158124   6.544   3.614  12.521 -1.2523 -0.7162  0.5785
12211TIP3    H258125   6.565   3.470  12.562  0.8409 -0.1424  1.6265
12212TIP3   OH258126   4.136   0.133   4.057 -0.0382  0.2138  0.1867
12212TIP3    H158127   4.163   0.216   4.096  1.3603  0.2764 -0.8320
12212TIP3    H258128   4.129   0.073   4.132  0.5051  0.8513  0.7652
12213TIP3   OH258129   1.643   1.179  12.640  0.1527  0.2216  0.1395
12213TIP3    H158130   1.694   1.240  12.587 -0.8951 -1.0289 -2.4514
12213TIP3    H258131   1.596   1.126  12.577 -1.2070 -1.3769  2.3689
12214TIP3   OH258132   4.346   1.010  15.774 -0.4520  0.4290 -0.7751
12214TIP3    H158133   4.315   1.091  15.815  3.7534  1.7449  0.2761
12214TIP3    H258134   4.346   0.945  15.845  0.3665  0.7827 -0.4467
12215TIP3   OH258135   0.214   0.773   3.683  0.2178  0.1687  0.0264
12215TIP3    H158136   0.133   0.759   3.731  1.3141  0.0527  1.9898
12215TIP3    H258137   0.222   0.868   3.677  0.1180  0.1908  0.2195
12216TIP3   OH258138   6.332   5.382  14.710  0.4417 -0.4020  0.0278
12216TIP3    H158139   6.378   5.375  14.626 -0.1264  0.0544 -0.3267
12216TIP3    H258140   6.332   5.476  14.730 -0.4849 -0.3745 -0.0642
12217TIP3   OH258141   3.342   4.897  12.008  0.4057  0.7211 -0.2688
12217TIP3    H158142   3.306   4.973  12.053  1.5162  1.0729  0.0557
12217TIP3    H258143   3.395   4.934  11.938  0.6218  0.2285 -0.3693
12218TIP3   OH258144   1.292   4.893   0.853  0.7316  0.3816 -0.3407
12218TIP3    H158145   1.214   4.937   0.817  0.3254 -0.0326  0.0253
12218TIP3    H258146   1.267   4.870   0.942  0.4525 -1.7748 -0.9250
12219TIP3   OH258147   0.833   3.437   1.272 -0.2191 -0.0272  0.3965
12219TIP3    H158148   0.767   3.464   1.336  0.5826 -1.2937  1.8500
12219TIP3    H258149   0.874   3.518   1.244 -1.7764  0.7074  0.1272
12220TIP3   OH258150   5.829   4.270   6.158  0.2077 -0.0059  0.3291
12220TIP3    H158151   5.802   4.285   6.249  1.7710 -0.7218  0.9378
12220TIP3    H258152   5.920   4.300   6.155  0.7810 -1.7088 -0.5069
12221TIP3   OH258153   5.695   6.356   0.739 -0.4034  0.5787 -0.4151
12221TIP3    H158154   5.617   6.358   0.794 -0.3550 -2.7678 -0.0254
12221TIP3    H258155   5.668   6.400   0.658 -2.3792  0.3905  0.0894
12222TIP3   OH258156   1.185   5.741  15.605  0.4890 -0.0717  0.2600
12222TIP3    H158157   1.131   5.662  15.605 -0.1578  0.3538  1.3515
12222TIP3    H258158   1.200   5.759  15.512 -1.5655  0.0001 -0.1081
12223TIP3   OH258159   4.976   2.677   0.923  0.0198  0.0618  0.2081
12223TIP3    H158160   4.935   2.592   0.938 -1.4074  0.2483 -2.1157
12223TIP3    H258161   4.939   2.707   0.839  2.2523  1.9112 -0.2107
12224TIP3   OH258162   5.697   2.454  11.216 -0.5999  0.3427 -0.6897
12224TIP3    H158163   5.687   2.372  11.168 -1.1825  0.0139 -0.0108
12224TIP3    H258164   5.676   2.522  11.151 -1.2971 -0.0951 -0.9363
12225TIP3   OH258165   1.731   2.649   1.234 -0.0783 -0.3515 -0.2165
12225TIP3    H158166   1.769   2.708   1.300  0.4136  0.9107 -1.5665
12225TIP3    H258167   1.643   2.629   1.267  0.4951 -0.5576  1.2824
12226TIP3   OH258168   3.414   3.072  14.295  0.0037 -0.0362  0.1299
12226TIP3    H158169   3.484   3.010  14.314  0.7092  0.7193  0.0351
12226TIP3    H258170   3.372   3.088  14.380  0.0752 -0.3301  0.2222
12227TIP3   OH258171   1.274   3.451   4.526  0.0839 -0.2318  0.4434
12227TIP3    H158172   1.216   3.527   4.520  1.6226  0.9507 -0.0578
12227TIP3    H258173   1.216   3.376   4.512 -1.3628  0.8746  0.2447
12228TIP3   OH258174   3.877   3.802  14.473  0.6223 -0.0388 -0.3097
12228TIP3    H158175   3.965   3.784  14.508  1.2790  0.0589 -1.8386
12228TIP3    H258176   3.856   3.889  14.507  2.0223  0.8432 -1.5493
12229TIP3   OH258177   3.736   5.031   5.832  0.5028  0.2946  0.0051
12229TIP3    H158178   3.652   4.985   5.828 -0.1566  1.5531 -1.5765
12229TIP3    H258179   3.716   5.115   5.873  1.2967  0.0537  0.9343
12230TIP3   OH258180   4.391   4.604  12.005  0.0848 -0.6158 -0.1563
12230TIP3    H158181   4.307   4.597  11.961 -1.5760  0.3156  2.6236
12230TIP3    H258182   4.433   4.519  11.991 -1.4563 -1.2150 -1.3250
12231TIP3   OH258183   3.997   6.660   1.264  0.2562 -0.7394  0.2458
12231TIP3    H158184   3.937   6.604   1.215 -1.9152  2.4198 -1.0167
12231TIP3    H258185   3.999   6.742   1.215  2.1768  0.8066  2.6756
12232TIP3   OH258186   3.312   1.967  15.473 -0.1008 -0.3096  0.1271
12232TIP3    H158187   3.328   1.947  15.565 -1.6009  0.0150  0.4847
12232TIP3    H258188   3.385   1.926  15.427  2.4952  2.2491  1.6873
12233TIP3   OH258189   2.492   4.002   5.725 -0.1588 -0.1978 -0.5140
12233TIP3    H158190   2.511   4.088   5.687  0.0037  0.2275  0.5004
12233TIP3    H258191   2.463   3.949   5.651 -0.8980  0.9152 -1.0498
12234TIP3   OH258192   2.821   6.334   2.356 -0.4239  0.5402 -0.0420
12234TIP3    H158193   2.776   6.258   2.321 -1.3078  0.5815  0.9458
12234TIP3    H258194   2.826   6.395   2.283 -0.4977 -0.1157 -0.6021
12235TIP3   OH258195   4.761   3.737   5.468 -0.0397  0.6179 -0.2263
12235TIP3    H158196   4.825   3.723   5.399 -0.6362  0.2986 -0.7232
12235TIP3    H258197   4.700   3.664   5.460 -1.9860  2.2766 -1.4694
12236TIP3   OH258198   1.410   5.636  16.772  0.0976 -0.5082 -0.1044
12236TIP3    H158199   1.369   5.631  16.686  1.4013 -1.0775 -0.7126
12236TIP3    H258200   1.346   5.681  16.827 -0.9819 -0.6494 -1.2263
12237TIP3   OH258201   0.235   0.956  15.555 -0.6772 -0.3486 -0.0186
12237TIP3    H158202   0.205   1.008  15.480 -2.5718 -2.1009 -0.5497
12237TIP3    H258203   0.155   0.918  15.591  0.5743 -2.4216  0.6982
12238TIP3   OH258204   6.201   1.019  16.439 -0.4219 -0.3547  0.7916
12238TIP3    H158205   6.162   0.943  16.396  1.4836 -0.0951 -1.6263
12238TIP3    H258206   6.127   1.076  16.458 -1.4508 -0.0516 -3.2034
12239TIP3   OH258207   1.477   3.984  11.797  0.4952 -0.2401  0.1829
12239TIP3    H158208   1.469   3.910  11.858  0.8639  0.6094  1.3051
12239TIP3    H258209   1.548   4.037  11.833  0.6075  0.3851 -0.9096
12240TIP3   OH258210   1.149   6.153   5.605  0.1355 -0.0862 -0.2916
12240TIP3    H158211   1.091   6.087   5.643  0.5095  0.2553  0.9119
12240TIP3    H258212   1.220   6.162   5.668 -1.0987  3.1961  0.8598
12241TIP3   OH258213   0.458   5.179   6.448 -0.0663 -0.1862 -0.3308
12241TIP3    H158214   0.399   5.113   6.411 -1.7508  1.0272  0.0873
12241TIP3    H258215   0.463   5.157   6.541 -0.6348  0.2619 -0.1898
12242TIP3   OH258216   1.627   6.012  12.094  0.3316  0.1821  0.5423
12242TIP3    H158217   1.617   5.920  12.067  0.8722  0.2018  0.2515
12242TIP3    H258218   1.646   6.059  12.013  2.0064  0.2375  0.9378
12243TIP3   OH258219   0.565   6.708  16.241  0.0919 -0.0677 -0.1589
12243TIP3    H158220   0.590   6.728  16.151 -0.4158 -2.5882 -0.9490
12243TIP3    H258221   0.642   6.731  16.294  0.7025  0.6576 -1.3384
12244TIP3   OH258222   0.551   0.778   1.777  0.3158 -0.4615  0.1453
12244TIP3    H158223   0.498   0.856   1.761  0.2367 -0.4313  0.5394
12244TIP3    H258224   0.502   0.729   1.843 -0.3371 -1.5368 -1.0864
12245TIP3   OH258225   2.216   0.819   4.141  0.0482 -0.2479 -0.0200
12245TIP3    H158226   2.256   0.771   4.214  2.3711 -1.9242 -2.2575
12245TIP3    H258227   2.173   0.894   4.183  0.8925 -1.3466  3.0857
12246TIP3   OH258228   5.107   6.722   1.641 -0.3313  0.0368  0.3919
12246TIP3    H158229   5.058   6.793   1.599 -0.5916 -0.3201  0.0883
12246TIP3    H258230   5.190   6.719   1.594 -0.5587 -0.2565  0.0051
12247TIP3   OH258231   0.900   3.948   4.945  0.1611 -0.5713 -0.6722
12247TIP3    H158232   0.873   3.994   4.866  0.3809 -0.7502 -0.8538
12247TIP3    H258233   0.842   3.872   4.950 -1.6009  0.7906  0.7494
12248TIP3   OH258234   6.397   1.558   5.005  0.0921  0.9898  0.4957
12248TIP3    H158235   6.468   1.615   5.035  0.8858  0.2911  0.0018
12248TIP3    H258236   6.356   1.525   5.085  0.5763  1.0968  0.7903
12249TIP3   OH258237   3.933   2.028  15.276  0.9660  0.4284  0.1532
12249TIP3    H158238   4.008   2.064  15.229  1.9582 -1.3343  0.2663
12249TIP3    H258239   3.913   1.947  15.230  1.5005 -0.9913  2.2340
12250TIP3   OH258240   2.992   4.965  15.977  0.5179 -0.5173  0.2228
12250TIP3    H158241   3.009   4.990  16.068 -0.3283  0.7403  0.0691
12250TIP3    H258242   3.077   4.970  15.934  0.4558  2.1307  0.2408
12251TIP3   OH258243   6.486   0.059  14.450 -0.1676 -0.3770  0.1717
12251TIP3    H158244   6.501   0.141  14.497  1.1951  0.4069 -1.5414
12251TIP3    H258245   6.440   0.004  14.513  0.5154  1.0372  2.0027
12252TIP3   OH258246   0.564   5.030   0.148  0.6856 -0.5504  0.1435
12252TIP3    H158247   0.545   4.948   0.102  1.0953  0.1042 -1.2764
12252TIP3    H258248   0.479   5.073   0.157  0.2983 -1.6164  1.9427
12253TIP3   OH258249   0.381   5.203  14.271 -0.4434  0.2892 -0.1669
12253TIP3    H158250   0.383   5.296  14.247 -2.5822  0.7897  1.2761
12253TIP3    H258251   0.297   5.171  14.239  0.3153 -1.2239 -0.7636
12254TIP3   OH258252   5.910   3.849  11.442  0.2770  0.3913 -1.0877
12254TIP3    H158253   5.865   3.901  11.375 -0.8159 -0.1056 -0.7495
12254TIP3    H258254   6.001   3.879  11.437  0.0659  0.9070 -2.2660
12255TIP3   OH258255   0.222   4.245   0.135  0.0733 -0.5113 -0.2496
12255TIP3    H158256   0.215   4.303   0.059  0.3396  0.2873  0.3197
12255TIP3    H258257   0.208   4.303   0.210 -1.3989 -1.4981  0.2805
12256TIP3   OH258258   1.307   2.299   5.520 -0.1510  0.3348 -0.0741
12256TIP3    H158259   1.224   2.255   5.536 -0.1710  0.5685  0.4971
12256TIP3    H258260   1.293   2.350   5.440 -0.5826  0.4518  0.0777
12257TIP3   OH258261   6.404   4.805  17.089 -0.6280  0.1674 -0.0915
12257TIP3    H158262   6.490   4.789  17.127  0.0180  0.7646 -1.2499
12257TIP3    H258263   6.379   4.721  17.049 -0.7346 -0.0882  0.4946
12258TIP3   OH258264   0.553   5.007   0.749  0.1463  0.0426  0.2514
12258TIP3    H158265   0.543   5.045   0.837 -2.5621 -1.3148  0.6576
12258TIP3    H258266   0.551   4.912   0.764  2.3678 -0.2907 -1.1015
12259TIP3   OH258267   5.573   5.964  16.137 -0.4385  0.6359 -0.1423
12259TIP3    H158268   5.660   5.944  16.172  0.0191  1.4631 -0.7977
12259TIP3    H258269   5.588   6.029  16.069 -1.7839  2.4706  1.2271
12260TIP3   OH258270   4.687   2.133   0.355  0.0603  0.1113 -0.0663
12260TIP3    H158271   4.756   2.177   0.307  1.2095 -1.7044 -0.1777
12260TIP3    H258272   4.632   2.204   0.389  2.4576  1.6620  0.7864
12261TIP3   OH258273   4.406   6.027  12.923 -0.7065  0.3107 -0.1885
12261TIP3    H158274   4.369   5.960  12.865 -0.6592 -0.3443  0.5248
12261TIP3    H258275   4.347   6.029  12.998 -0.2490  0.4790  0.1690
12262TIP3   OH258276   6.639   1.443  13.107 -0.1741  0.2395 -0.0815
12262TIP3    H158277   6.714   1.383  13.110  0.7963  1.4471  1.4125
12262TIP3    H258278   6.625   1.468  13.199 -2.5765 -0.1139 -0.2836
12263TIP3   OH258279   0.461   3.951  10.526  0.3394 -0.2882 -0.2620
12263TIP3    H158280   0.528   4.014  10.499 -0.6198  0.2590 -1.4771
12263TIP3    H258281   0.378   3.995  10.506 -0.3547 -1.6068 -0.3596
12264TIP3   OH258282   5.451   6.257  15.295  0.4010 -0.3044 -0.1795
12264TIP3    H158283   5.536   6.245  15.252  0.3277  1.1690 -0.7844
12264TIP3    H258284   5.387   6.244  15.226  0.0562 -2.1965  0.4404
12265TIP3   OH258285   5.493   0.444  11.056 -0.1596 -0.0235 -0.2128
12265TIP3    H158286   5.578   0.483  11.033 -0.0726  1.0824  1.7998
12265TIP3    H258287   5.515   0.374  11.118 -0.6266 -0.6668 -0.7624
12266TIP3   OH258288   6.075   4.583   6.179 -0.2270  0.2751  0.4268
12266TIP3    H158289   6.020   4.633   6.118  0.5538 -0.5393 -1.0023
12266TIP3    H258290   6.164   4.590   6.143  0.2954 -0.1051  1.5749
12267TIP3   OH258291   0.134   3.373  16.098 -0.1731  0.2831  0.1129
12267TIP3    H158292   0.180   3.441  16.147 -1.8111  0.5488  1.3547
12267TIP3    H258293   0.104   3.417  16.018 -1.2249  1.0474  0.9080
12268TIP3   OH258294   5.563   3.475   0.535 -0.3257 -0.2759  0.1154
12268TIP3    H158295   5.520   3.555   0.568 -0.4862  0.5887 -2.0566
12268TIP3    H258296   5.566   3.417   0.612  0.3206  2.0000  1.9302
12269TIP3   OH258297   1.600   1.720  15.150 -0.5652  0.3940 -0.6176
12269TIP3    H158298   1.522   1.696  15.101 -0.3804 -0.5728 -0.4765
12269TIP3    H258299   1.668   1.730  15.084 -0.6192  0.3915 -0.6730
12270TIP3   OH258300   3.219   2.333   3.634  0.1648  0.2874  0.2074
12270TIP3    H158301   3.226   2.428   3.639  0.1858  0.3021 -0.0919
12270TIP3    H258302   3.285   2.307   3.569 -1.0859  0.2416 -1.1123
12271TIP3   OH258303   1.176   4.106   6.259 -0.0257  0.1417  0.2112
12271TIP3    H158304   1.155   4.199   6.267  0.7768  0.3759 -0.3013
12271TIP3    H258305   1.157   4.086   6.167 -0.3228 -0.2346  0.3527
12272TIP3   OH258306   2.289   6.522   3.247 -0.4536  0.3278  0.4099
12272TIP3    H158307   2.268   6.513   3.340  2.1254 -0.3450  0.9949
12272TIP3    H258308   2.316   6.435   3.220  0.1247  0.8105 -0.6291
12273TIP3   OH258309   1.890   5.802  13.897 -0.2145 -0.3792  0.0009
12273TIP3    H158310   1.813   5.828  13.846  0.3204  2.4423  0.4389
12273TIP3    H258311   1.955   5.775  13.832 -1.1891 -1.7964 -0.4228
12274TIP3   OH258312   3.884   5.892  15.469  0.1078 -0.2747  0.2971
12274TIP3    H158313   3.888   5.826  15.538  1.1145 -0.1015  0.4210
12274TIP3    H258314   3.901   5.843  15.388  4.3846  0.2079  0.6692
12275TIP3   OH258315   6.336   6.251   4.939  0.6602 -0.2972  0.0262
12275TIP3    H158316   6.427   6.234   4.915  0.5242 -1.0914  0.0577
12275TIP3    H258317   6.338   6.260   5.035  0.3987 -2.5087  0.2958
12276TIP3   OH258318   4.580   0.639  16.864 -0.1665 -0.0970  0.3926
12276TIP3    H158319   4.576   0.718  16.919  2.3778  1.2535 -1.1471
12276TIP3    H258320   4.497   0.640  16.816 -0.6677  1.0152  1.2221
12277TIP3   OH258321   1.336   5.271  12.189 -0.3756  0.1565 -0.2190
12277TIP3    H158322   1.265   5.292  12.249 -1.0631 -0.2062 -0.8897
12277TIP3    H258323   1.294   5.263  12.104  0.2325 -1.4499 -0.4061
12278TIP3   OH258324   6.766   4.924   3.883 -0.2750  0.3525  0.1112
12278TIP3    H158325   6.748   5.004   3.834 -1.0998 -0.2427 -0.5868
12278TIP3    H258326   6.753   4.948   3.974 -2.5145  0.5212 -0.2170
12279TIP3   OH258327   3.133   6.538   1.603  0.6487  0.6768 -0.1958
12279TIP3    H158328   3.116   6.628   1.575 -3.0094  1.4392  3.5691
12279TIP3    H258329   3.209   6.545   1.661  1.2024  1.0457 -0.9447
12280TIP3   OH258330   0.954   5.239   3.886  0.6991 -0.1398  0.1046
12280TIP3    H158331   0.926   5.155   3.850  1.0290 -1.0525  1.8491
12280TIP3    H258332   0.873   5.287   3.902  0.3451 -1.0275  1.1071
12281TIP3   OH258333   0.212   2.532  11.658  0.2354 -0.2917  0.0247
12281TIP3    H158334   0.270   2.458  11.679  0.2618 -0.0875  0.6857
12281TIP3    H258335   0.217   2.589  11.735  0.5889  0.6404 -0.6733
12282TIP3   OH258336   5.193   3.620   0.400 -0.2813  0.0840 -0.1383
12282TIP3    H158337   5.118   3.615   0.342  0.7199  0.1963 -1.4808
12282TIP3    H258338   5.257   3.673   0.352  1.1640 -1.1164  0.3926
12283TIP3   OH258339   5.359   1.423  13.726 -0.6929  0.2620 -0.0782
12283TIP3    H158340   5.383   1.488  13.792  1.7214 -1.7783  1.2425
12283TIP3    H258341   5.440   1.406  13.679 -1.3034 -1.5737 -0.5495
12284TIP3   OH258342   4.330   5.753  14.994 -0.3519 -0.1137  0.4499
12284TIP3    H158343   4.269   5.813  14.951 -0.2104  0.2100  0.6989
12284TIP3    H258344   4.290   5.666  14.984 -0.1495 -0.0986 -0.6561
12285TIP3   OH258345   1.658   4.706  15.892 -0.3273  0.5697 -0.1811
12285TIP3    H158346   1.626   4.786  15.934  2.0955  1.7767 -0.4847
12285TIP3    H258347   1.627   4.714  15.802 -0.9068  0.6873  0.0223
12286TIP3   OH258348   2.790   1.854   1.998 -0.7956  0.4458 -0.4597
12286TIP3    H158349   2.755   1.770   1.967  1.0735 -1.2938  1.8253
12286TIP3    H258350   2.758   1.862   2.088  0.4222  1.3578 -0.0794
12287TIP3   OH258351   2.682   3.995   2.996 -0.3229  0.7862 -0.5550
12287TIP3    H158352   2.773   4.024   2.991 -0.0972  0.0467 -0.8637
12287TIP3    H258353   2.682   3.908   2.956 -0.6847 -0.3428  1.7543
12288TIP3   OH258354   3.256   2.237  11.155 -0.3768  0.4469  0.1630
12288TIP3    H158355   3.199   2.203  11.086 -0.5555  0.2922  0.3879
12288TIP3    H258356   3.205   2.307  11.196 -1.0048 -0.6668  1.3386
12289TIP3   OH258357   5.044   5.643   5.153 -0.0674  0.0050  0.4535
12289TIP3    H158358   4.995   5.623   5.073  0.2686 -1.4015  0.5761
12289TIP3    H258359   4.981   5.630   5.223 -0.2109  0.7236  0.4746
12290TIP3   OH258360   0.871   2.636   4.883 -0.3140  0.1956 -0.4497
12290TIP3    H158361   0.804   2.572   4.909 -1.4558  1.6104  0.2406
12290TIP3    H258362   0.924   2.648   4.961 -1.9037  2.1966  0.4378
12291TIP3   OH258363   5.693   3.593   3.991  0.6290 -0.1023  0.8941
12291TIP3    H158364   5.677   3.687   3.999 -1.7525 -0.1853 -1.5298
12291TIP3    H258365   5.653   3.555   4.069  0.6234  0.8015  1.3450
12292TIP3   OH258366   6.405   2.932   0.238  0.5279 -0.1824 -0.7159
12292TIP3    H158367   6.452   2.850   0.256  0.9786 -0.0725 -1.3809
12292TIP3    H258368   6.463   2.981   0.180  0.7286  1.0778  0.5218
12293TIP3   OH258369   4.586   5.000  16.445  0.3534  0.0048  0.1624
12293TIP3    H158370   4.644   5.018  16.519  0.0599 -0.1475  0.4325
12293TIP3    H258371   4.573   5.085  16.403 -1.2560  0.5245  1.5933
12294TIP3   OH258372   6.237   3.762  12.899 -0.4993 -0.1334 -0.0577
12294TIP3    H158373   6.189   3.821  12.841  0.2314 -0.8464 -1.4403
12294TIP3    H258374   6.329   3.780  12.882 -0.2539 -0.1092  1.1697
12295TIP3   OH258375   0.452   4.666  15.500 -0.3408  0.2459  0.1582
12295TIP3    H158376   0.446   4.745  15.553  2.4111  0.8159 -0.2107
12295TIP3    H258377   0.540   4.669  15.462 -0.2898 -2.7769 -0.2245
12296TIP3   OH258378   4.336   3.321   4.880  0.8075 -0.0919  0.0085
12296TIP3    H158379   4.310   3.378   4.808 -0.8490 -0.7820  0.0048
12296TIP3    H258380   4.340   3.234   4.841 -0.2458 -0.4937  0.7342
12297TIP3   OH258381   0.899   2.700  12.703  0.8075 -0.3002  0.4652
12297TIP3    H158382   0.815   2.694  12.657  0.6498  2.8754  0.0807
12297TIP3    H258383   0.922   2.610  12.723 -1.7822 -1.4218 -1.0615
12298TIP3   OH258384   0.468   4.908   5.713 -0.1049 -0.1129  0.0012
12298TIP3    H158385   0.376   4.890   5.695 -0.9072  0.8474  2.7532
12298TIP3    H258386   0.497   4.833   5.765  1.2480 -1.2730 -2.2527
12299TIP3   OH258387   5.577   3.335   0.192  0.2683 -0.5094  0.0248
12299TIP3    H158388   5.526   3.293   0.261  0.5912 -1.9099 -0.5573
12299TIP3    H258389   5.635   3.266   0.159  0.0317  0.0807 -1.7343
12300TIP3   OH258390   0.806   0.539  14.495  0.3925 -0.3789  0.1443
12300TIP3    H158391   0.901   0.547  14.504  0.2102  0.4936  1.7367
12300TIP3    H258392   0.792   0.452  14.458  1.7787 -0.9783  0.9631
12301TIP3   OH258393   0.201   2.260   6.576  0.4305  0.2563  0.4335
12301TIP3    H158394   0.131   2.320   6.601  2.1956  2.8966 -0.4637
12301TIP3    H258395   0.268   2.272   6.644  1.4471  0.5205 -0.5859
12302TIP3   OH258396   5.612   4.176   5.797  0.0083 -0.3801 -0.0920
12302TIP3    H158397   5.593   4.121   5.721  1.0734  0.2589 -0.8464
12302TIP3    H258398   5.581   4.125   5.872  0.7596 -1.9227 -0.7783
12303TIP3   OH258399   5.614   2.536  11.965  0.1317  0.1659 -0.5856
12303TIP3    H158400   5.643   2.520  12.055 -0.1066 -0.5066 -0.6218
12303TIP3    H258401   5.518   2.539  11.972  0.1020 -0.1678 -0.8629
12304TIP3   OH258402   0.984   6.008  11.831 -0.6248  0.1625 -0.3179
12304TIP3    H158403   1.032   5.972  11.756  0.0302  0.7546 -0.2020
12304TIP3    H258404   0.892   6.005  11.805 -0.3702  0.8886 -1.3944
12305TIP3   OH258405   4.867   4.713   3.761 -0.1836 -0.1158  0.4213
12305TIP3    H158406   4.852   4.773   3.834 -0.1494  0.1238  0.2319
12305TIP3    H258407   4.948   4.667   3.783 -0.2693 -0.1752  0.6186
12306TIP3   OH258408   0.372   1.968  11.724  0.3779  0.1064 -0.4248
12306TIP3    H158409   0.292   1.917  11.739 -0.8707  1.7284 -1.1674
12306TIP3    H258410   0.352   2.020  11.645  1.7360  1.3751  0.0298
12307TIP3   OH258411   6.046   5.452  11.478  0.2447  0.4505 -0.6802
12307TIP3    H158412   5.994   5.496  11.546  1.5478 -0.0569  0.6940
12307TIP3    H258413   5.996   5.373  11.457 -0.3553  0.8035 -0.6092
12308TIP3   OH258414   5.987   6.370   6.380  0.2461 -0.1376 -0.1208
12308TIP3    H158415   6.068   6.416   6.355 -1.0592  1.0813 -2.4260
12308TIP3    H258416   6.016   6.305   6.445  3.2171 -0.3345 -1.4512
12309TIP3   OH258417   5.961   2.808  12.934 -0.0940  0.0670 -0.5151
12309TIP3    H158418   5.925   2.785  13.019 -0.1353 -0.0118 -0.5532
12309TIP3    H258419   5.921   2.746  12.873  0.1011 -0.0157 -0.5597
12310TIP3   OH258420   5.795   1.508  16.237 -0.5730 -0.6489  0.4769
12310TIP3    H158421   5.745   1.427  16.229 -0.1635 -0.8150 -0.5656
12310TIP3    H258422   5.741   1.565  16.292 -0.3477 -2.0195  2.1790
12311TIP3   OH258423   5.899   2.235  14.848  0.4681  0.5220  0.7124
12311TIP3    H158424   5.826   2.206  14.903 -0.5825  1.0935 -0.3534
12311TIP3    H258425   5.937   2.154  14.814  0.5577  0.2081  1.5174
12312TIP3   OH258426   5.483   1.397   3.328 -0.2027 -0.1520 -0.4961
12312TIP3    H158427   5.472   1.483   3.288 -1.5215 -0.0236  0.0696
12312TIP3    H258428   5.431   1.338   3.272 -0.9542 -0.2039  0.2308
12313TIP3   OH258429   2.154   1.385  16.567 -0.2662 -0.6095 -0.3455
12313TIP3    H158430   2.212   1.441  16.515  0.0031 -0.0023  0.5952
12313TIP3    H258431   2.091   1.445  16.607 -0.8384 -1.1389 -0.4309
12314TIP3   OH258432   3.987   1.340  15.966 -0.0269 -0.8996  0.1915
12314TIP3    H158433   3.901   1.380  15.958  0.2487  0.3914  2.7461
12314TIP3    H258434   4.042   1.389  15.905 -0.1034  1.5373  1.9506
12315TIP3   OH258435   1.619   2.067   5.490 -0.1191  0.1773 -0.0014
12315TIP3    H158436   1.638   2.054   5.397  2.1253  2.5086  0.0036
12315TIP3    H258437   1.582   2.155   5.495 -2.4149 -0.7784  1.1470
12316TIP3   OH258438   5.940   4.828  16.967 -0.1756 -0.9647  0.1874
12316TIP3    H158439   6.014   4.881  16.996 -0.2367 -0.6917 -0.1441
12316TIP3    H258440   5.924   4.767  17.039  0.6710 -1.3360  0.0779
12317TIP3   OH258441   1.707   6.393  11.359 -0.4230  1.0566  0.4246
12317TIP3    H158442   1.664   6.317  11.397  1.4129 -0.5667 -0.5256
12317TIP3    H258443   1.662   6.408  11.276 -0.7718  0.9987  0.6034
12318TIP3   OH258444   1.139   2.479  10.323  0.0512  0.5657 -0.0433
12318TIP3    H158445   1.125   2.432  10.405 -0.0564  0.9275  0.1480
12318TIP3    H258446   1.214   2.435  10.282  0.6073  0.8853  0.6201
12319TIP3   OH258447   6.294   4.937   5.985  0.3585 -0.0144  0.1565
12319TIP3    H158448   6.248   4.873   5.932 -2.1644  1.5843  0.2558
12319TIP3    H258449   6.243   4.942   6.066  1.3461  1.0346  0.7418
12320TIP3   OH258450   0.004   1.258  12.406 -0.5337  0.2059  0.3323
12320TIP3    H158451   0.030   1.347  12.381 -1.2322  0.9186  1.9637
12320TIP3    H258452  -0.056   1.271  12.479 -0.8190 -1.6204  0.4567
12321TIP3   OH258453   4.980   5.383  14.127  0.0440 -0.5267  0.2392
12321TIP3    H158454   4.969   5.452  14.062 -0.5159 -1.3890 -0.6185
12321TIP3    H258455   4.907   5.395  14.188  0.3779  0.0847  0.5204
12322TIP3   OH258456   3.585   0.178  12.193 -0.4141 -0.0759  0.2772
12322TIP3    H158457   3.590   0.085  12.168 -0.0670  0.2710 -1.0528
12322TIP3    H258458   3.495   0.203  12.172 -0.1663  0.1772 -0.5280
12323TIP3   OH258459   4.702   5.209   6.374  0.3933  0.9892  0.0229
12323TIP3    H158460   4.783   5.165   6.348 -1.5957 -1.2989 -3.0740
12323TIP3    H258461   4.676   5.165   6.455  0.0892 -1.5122 -1.3252
12324TIP3   OH258462   1.435   1.988  15.477 -0.8840  0.2121  0.1375
12324TIP3    H158463   1.452   2.030  15.392 -0.0949  1.0611  0.7017
12324TIP3    H258464   1.477   1.903  15.470 -2.4304 -0.5119 -0.9889
12325TIP3   OH258465   5.038   5.592  16.773  0.1018 -0.5055  0.3272
12325TIP3    H158466   4.943   5.587  16.765 -0.2142  2.1296  1.2912
12325TIP3    H258467   5.059   5.543  16.852 -1.0075  1.8328  2.2234
12326TIP3   OH258468   1.889   0.128   0.088  0.0082  0.1505  0.3779
12326TIP3    H158469   1.854   0.097   0.171 -0.3490  0.3322  0.2978
12326TIP3    H258470   1.959   0.189   0.113 -0.3826  0.5308  0.5495
12327TIP3   OH258471   3.511   3.806   1.002 -0.5729  0.4383  0.3686
12327TIP3    H158472   3.511   3.818   0.907  0.0508  1.4140  0.4790
12327TIP3    H258473   3.439   3.860   1.033  0.1173  1.2716  0.5648
12328TIP3   OH258474   3.704   5.022  11.109 -0.2179 -0.2576 -0.0490
12328TIP3    H158475   3.741   4.996  11.193  4.0483  1.8636 -1.0069
12328TIP3    H258476   3.751   4.967  11.045  0.0135  1.2884 -1.2621
12329TIP3   OH258477   2.804   0.786  14.189 -0.3531 -0.1863  0.8424
12329TIP3    H158478   2.766   0.735  14.117  1.0713  0.4613 -0.4522
12329TIP3    H258479   2.741   0.856  14.205 -0.3230  0.1608 -0.4131
12330TIP3   OH258480   4.509   3.069  15.005  0.1031 -0.4936  0.5052
12330TIP3    H158481   4.441   3.032  14.948  0.0865  0.5634 -0.1843
12330TIP3    H258482   4.566   2.995  15.024 -0.3807 -1.0633 -0.1806
12331TIP3   OH258483   1.588   4.065   3.418  0.1310  0.2062  0.1194
12331TIP3    H158484   1.550   4.149   3.390  0.9594  0.8175  0.7848
12331TIP3    H258485   1.662   4.089   3.473 -0.3414 -0.9769  1.3279
12332TIP3   OH258486   2.106   6.792  11.365 -0.2914  0.5143  0.5151
12332TIP3    H158487   2.015   6.778  11.337  0.2507 -0.9917 -0.6530
12332TIP3    H258488   2.144   6.848  11.296  0.0368 -0.0590  0.2214
12333TIP3   OH258489   0.117   2.243  12.086  0.0347  0.6815 -0.2930
12333TIP3    H158490   0.178   2.200  12.146  0.6618  2.3115  0.2823
12333TIP3    H258491   0.033   2.200  12.104  0.5057  0.1269  0.7100
12334TIP3   OH258492   0.493   0.668  16.099 -0.0795 -0.1354 -0.3954
12334TIP3    H158493   0.584   0.694  16.109  0.0567 -0.5436 -0.5683
12334TIP3    H258494   0.480   0.662  16.004 -0.3493  0.1430 -0.3796
12335TIP3   OH258495   3.950   3.612  11.268  0.0410 -0.2283 -0.2731
12335TIP3    H158496   3.905   3.647  11.345  1.4937  1.4781 -0.1336
12335TIP3    H258497   3.885   3.619  11.198 -0.7372 -0.1706  0.4312
12336TIP3   OH258498   3.458   4.530  16.562  0.3682  0.0920  0.1408
12336TIP3    H158499   3.385   4.469  16.553  1.3440 -1.5056  2.1519
12336TIP3    H258500   3.418   4.611  16.594 -0.5689 -0.6675  0.9567
12337TIP3   OH258501   3.006   0.248   0.198  0.2416 -0.3990 -0.1097
12337TIP3    H158502   2.971   0.166   0.231  0.9016  0.0748  1.8830
12337TIP3    H258503   3.038   0.227   0.110  1.7625 -2.6586  0.9088
12338TIP3   OH258504   4.096   0.668   1.040 -0.2038  0.7941 -0.2548
12338TIP3    H158505   4.168   0.641   0.984 -1.5693 -0.3620 -1.5316
12338TIP3    H258506   4.123   0.643   1.128  1.0553  0.6404 -0.6690
12339TIP3   OH258507   0.854   0.827   6.782  0.0929  0.1993  0.0659
12339TIP3    H158508   0.922   0.767   6.749 -0.6587 -1.6783  1.7463
12339TIP3    H258509   0.773   0.776   6.776 -0.8302  1.6066  0.2038
12340TIP3   OH258510   2.335   4.833  13.656 -0.4901  0.3600  0.0308
12340TIP3    H158511   2.403   4.818  13.722 -0.3244  0.6810 -0.0661
12340TIP3    H258512   2.377   4.812  13.573 -0.8812 -0.6574  0.0666
12341TIP3   OH258513   2.770   1.970  11.507  0.1135 -0.0728 -0.3481
12341TIP3    H158514   2.814   1.896  11.466  1.2500  0.7315 -0.6240
12341TIP3    H258515   2.728   2.016  11.435  1.4923  0.9237 -0.5557
12342TIP3   OH258516   4.095   2.160  12.573 -0.0384  0.0794  0.8775
12342TIP3    H158517   4.084   2.099  12.646  1.7730  0.9894  2.0087
12342TIP3    H258518   4.186   2.191  12.582 -0.6703  2.3918 -0.0268
12343TIP3   OH258519   0.039   1.974  15.867 -0.0664  0.4652 -0.2502
12343TIP3    H158520  -0.002   2.006  15.947  1.8345 -0.3914  1.1168
12343TIP3    H258521   0.018   1.880  15.865 -0.0840  0.4753 -0.7603
12344TIP3   OH258522   5.362   0.345   2.703  0.2803 -0.2736 -0.0701
12344TIP3    H158523   5.398   0.295   2.777 -0.8958  0.4797  1.0625
12344TIP3    H258524   5.421   0.326   2.630  1.7113 -0.7601  1.1550
12345TIP3   OH258525   2.273   4.347   0.572 -0.2534 -0.0385  0.0200
12345TIP3    H158526   2.331   4.292   0.519  0.6428 -0.7480  1.6680
12345TIP3    H258527   2.288   4.318   0.662 -3.7771 -0.8638  0.5031
12346TIP3   OH258528   1.165   4.019   4.892 -0.2495  0.5111  0.2721
12346TIP3    H158529   1.072   4.001   4.908  0.0183  0.4371  1.9811
12346TIP3    H258530   1.202   3.933   4.874 -0.1463  0.1685  1.8881
12347TIP3   OH258531   6.521   0.614   3.842 -0.1981  0.9359 -1.1960
12347TIP3    H158532   6.494   0.534   3.888  0.3548  0.2387 -2.0618
12347TIP3    H258533   6.615   0.620   3.856 -0.0028  0.6478 -2.3261
12348TIP3   OH258534   0.497   3.627  13.264 -0.0739  0.5109 -0.3577
12348TIP3    H158535   0.581   3.655  13.301 -0.0053 -0.4792  0.2651
12348TIP3    H258536   0.505   3.532  13.255 -1.2715  0.3537  0.0740
12349TIP3   OH258537   1.189   4.367   2.935  0.0097 -0.1038  0.0876
12349TIP3    H158538   1.134   4.295   2.967 -1.3784  0.7088 -0.3862
12349TIP3    H258539   1.279   4.332   2.940 -0.4098 -1.0948  1.9136
12350TIP3   OH258540   2.485   5.406   6.224 -0.2720  0.4503  0.9710
12350TIP3    H158541   2.501   5.461   6.301  0.5200  0.4878  0.7866
12350TIP3    H258542   2.572   5.383   6.192 -0.5856  0.6092 -0.0428
12351TIP3   OH258543   5.322   0.985   0.136 -0.8781 -0.0758  0.5400
12351TIP3    H158544   5.335   1.069   0.092 -1.1668  0.2520  1.0632
12351TIP3    H258545   5.231   0.988   0.165 -0.7661 -0.3920  0.9287
12352TIP3   OH258546   1.615   4.709  14.485  0.0089 -0.3234 -0.2077
12352TIP3    H158547   1.583   4.771  14.551 -1.1474 -0.8526 -0.2339
12352TIP3    H258548   1.705   4.691  14.511  0.2130  1.0059  0.0594
12353TIP3   OH258549   1.284   4.815  12.498  0.4433  0.4234  0.5644
12353TIP3    H158550   1.274   4.722  12.477  2.4064  0.2437  0.2733
12353TIP3    H258551   1.293   4.818  12.593  0.4777  0.3019  0.5651
12354TIP3   OH258552   4.320   2.278  13.292 -0.1120  0.5937  0.5125
12354TIP3    H158553   4.285   2.301  13.378 -0.0202  0.6700  0.5293
12354TIP3    H258554   4.353   2.360  13.257 -1.0717  0.7635 -0.0235
12355TIP3   OH258555   3.528   2.896   6.002 -0.5565 -0.3221  0.4604
12355TIP3    H158556   3.499   2.980   6.037  1.4447  0.1545  1.1331
12355TIP3    H258557   3.461   2.833   6.030 -1.6362  0.8904  0.6865
12356TIP3   OH258558   3.092   2.794  12.942 -0.2713  0.0883  0.2109
12356TIP3    H158559   3.113   2.886  12.960 -3.0529  0.6881  0.8511
12356TIP3    H258560   3.133   2.746  13.014 -2.0785  1.3105  2.1708
12357TIP3   OH258561   3.789   4.468  11.884  0.3033  0.1728  0.4826
12357TIP3    H158562   3.852   4.401  11.856 -2.4515 -1.9834 -1.0434
12357TIP3    H258563   3.773   4.521  11.806  0.1172  0.6321  0.8235
12358TIP3   OH258564   5.743   2.108   5.075  0.3101  0.0786  0.1384
12358TIP3    H158565   5.675   2.046   5.100 -1.5803  1.7625 -0.5043
12358TIP3    H258566   5.731   2.181   5.136  1.8907  0.2107  0.3209
12359TIP3   OH258567   0.389   0.951  14.324  0.6092  0.5022  0.6121
12359TIP3    H158568   0.462   0.893  14.346  0.3490 -0.1234 -0.1253
12359TIP3    H258569   0.342   0.963  14.406  1.3065  0.5787  1.0088
12360TIP3   OH258570   1.035   4.118  14.977 -0.1125 -0.1413  0.6015
12360TIP3    H158571   1.109   4.079  14.930 -0.5627 -0.4326  0.1186
12360TIP3    H258572   0.958   4.072  14.942 -0.6144  0.8845  0.3225
12361TIP3   OH258573   5.289   2.416   5.196  0.3603 -0.3981 -0.6432
12361TIP3    H158574   5.319   2.459   5.116  0.2337  0.6546 -0.1414
12361TIP3    H258575   5.195   2.436   5.200  0.5864  0.5048  0.3403
12362TIP3   OH258576   2.693   5.262  11.061  0.1487 -0.2231  0.4211
12362TIP3    H158577   2.615   5.252  11.006 -0.4189 -0.2291  1.2056
12362TIP3    H258578   2.758   5.303  11.004 -1.1711  1.9741  0.3856
12363TIP3   OH258579   1.412   0.214  12.219  0.0955  0.3246 -0.4407
12363TIP3    H158580   1.454   0.205  12.133  1.1040  3.5876 -0.4035
12363TIP3    H258581   1.466   0.160  12.277  0.4393 -0.5330 -1.4982
12364TIP3   OH258582   1.589   3.702   2.262 -0.3546 -0.4345 -0.3013
12364TIP3    H158583   1.521   3.767   2.277 -0.5391 -0.0739 -2.4483
12364TIP3    H258584   1.564   3.659   2.180  0.3292 -2.5055  0.5108
12365TIP3   OH258585   1.560   3.147  10.744 -0.2195 -0.2057  0.0027
12365TIP3    H158586   1.535   3.209  10.675  0.5758 -0.9407 -0.9889
12365TIP3    H258587   1.630   3.095  10.704 -1.2823 -2.1681  0.5505
12366TIP3   OH258588   4.418   0.974  14.383  0.7659 -0.5131 -0.8444
12366TIP3    H158589   4.367   0.897  14.409  2.3485 -1.3790 -0.0769
12366TIP3    H258590   4.505   0.958  14.421  1.1711  1.6311 -0.7376
12367TIP3   OH258591   3.916   0.352   2.762 -0.4527 -0.4702 -0.2888
12367TIP3    H158592   3.826   0.324   2.783 -0.3817 -0.3521  0.1984
12367TIP3    H258593   3.970   0.307   2.827 -0.3537  0.8942  0.6218
12368TIP3   OH258594   4.813   5.038  14.960 -0.0358 -0.2160  0.1229
12368TIP3    H158595   4.806   4.965  14.899  0.0488 -0.5243  0.4774
12368TIP3    H258596   4.725   5.077  14.961 -0.4357 -1.1041  0.8996
12369TIP3   OH258597   2.304   1.375   5.416 -0.1313  0.2389 -0.0116
12369TIP3    H158598   2.284   1.295   5.465 -0.3347 -0.0062 -0.4853
12369TIP3    H258599   2.344   1.344   5.335 -0.2679  0.6131 -0.2248
12370TIP3   OH258600   1.592   1.254  13.700  0.2726 -0.0774 -0.6148
12370TIP3    H158601   1.551   1.316  13.760 -0.0006  0.3233 -1.2013
12370TIP3    H258602   1.535   1.177  13.703 -0.1757  0.2312 -0.9298
12371TIP3   OH258603   1.346   0.783   3.141  0.0974  0.5973 -0.3471
12371TIP3    H158604   1.280   0.801   3.208  1.4591  2.6960  0.5586
12371TIP3    H258605   1.355   0.866   3.094  1.1574 -0.0408 -1.3192
12372TIP3   OH258606   1.738   1.797  15.920  0.1348 -0.4397  0.8717
12372TIP3    H158607   1.693   1.841  15.992 -0.8293 -1.3240  0.8364
12372TIP3    H258608   1.688   1.717  15.906  0.4936 -0.4469 -0.5673
12373TIP3   OH258609   3.178   4.560  14.965 -0.4866 -0.5670 -0.5675
12373TIP3    H158610   3.224   4.576  15.047  1.8123 -1.8921 -1.5039
12373TIP3    H258611   3.137   4.644  14.943 -0.0156  0.1709  1.2405
12374TIP3   OH258612   6.413   5.911  14.767  0.0896  0.3291  0.1588
12374TIP3    H158613   6.495   5.877  14.730 -0.3856 -0.3747 -0.2643
12374TIP3    H258614   6.387   5.847  14.832  0.5343  1.2003  1.2179
12375TIP3   OH258615   6.265   3.722   4.144  0.1980  0.8979  0.0538
12375TIP3    H158616   6.282   3.728   4.238 -1.2971  0.2865  0.3951
12375TIP3    H258617   6.338   3.768   4.103  0.2980  2.1400  1.5498
12376TIP3   OH258618   0.562   2.590   1.631  0.1124  0.0015  0.4233
12376TIP3    H158619   0.608   2.536   1.566  0.2229  0.8294 -0.1928
12376TIP3    H258620   0.475   2.603   1.593 -0.5061 -1.1799  1.3783
12377TIP3   OH258621   4.486   2.524   4.670  0.4700 -0.4007  0.4457
12377TIP3    H158622   4.521   2.611   4.686 -0.5395  0.0115  0.4897
12377TIP3    H258623   4.541   2.489   4.600  1.0900  0.1394  0.6508
12378TIP3   OH258624   5.409   4.634  13.236  0.0731 -0.3912 -0.8217
12378TIP3    H158625   5.331   4.604  13.189  0.0684  0.3807 -1.3287
12378TIP3    H258626   5.376   4.697  13.300  0.3056  0.2681 -1.3301
12379TIP3   OH258627   1.986   1.678  12.361  0.3169 -0.6265  0.1293
12379TIP3    H158628   2.027   1.672  12.447  1.6397  1.9140 -0.2333
12379TIP3    H258629   2.001   1.592  12.322  0.7232 -1.4479  1.9665
12380TIP3   OH258630   3.046   2.354   4.102  0.3633 -0.2963 -0.0935
12380TIP3    H158631   3.075   2.380   4.189  1.1536 -0.3127 -0.3425
12380TIP3    H258632   3.033   2.437   4.056 -0.7704 -0.2694  0.2592
12381TIP3   OH258633   6.188   2.485   2.280  0.0123 -0.1416  0.4328
12381TIP3    H158634   6.237   2.422   2.227 -0.4451  1.1493 -1.6405
12381TIP3    H258635   6.118   2.516   2.221 -2.0079 -0.3401  2.5788
12382TIP3   OH258636   0.623   2.133  10.978  0.2077  0.3402  0.1271
12382TIP3    H158637   0.554   2.196  10.957 -1.3330 -0.5523  2.1201
12382TIP3    H258638   0.704   2.174  10.947 -1.2306  1.1124 -2.9649
12383TIP3   OH258639   5.527   2.428  13.784  0.3883  0.1632  0.2202
12383TIP3    H158640   5.483   2.345  13.801  0.3705  0.4726  1.8236
12383TIP3    H258641   5.524   2.438  13.689  1.6138 -2.3270 -0.1534
12384TIP3   OH258642   2.542   3.832   1.796  0.1143 -0.7815  0.7872
12384TIP3    H158643   2.479   3.845   1.725  1.6992 -0.2568 -0.5973
12384TIP3    H258644   2.604   3.904   1.787 -0.0948 -0.2002  3.2811
12385TIP3   OH258645   3.058   3.404   3.041  0.9445 -0.1543  0.5226
12385TIP3    H158646   3.080   3.315   3.013  0.8081 -0.6436  1.8913
12385TIP3    H258647   2.962   3.405   3.042  0.6398  1.5944 -4.2423
12386TIP3   OH258648   6.754   4.118  14.924 -0.7797 -0.1148  0.4220
12386TIP3    H158649   6.709   4.104  14.840  1.3029  1.3041 -1.0548
12386TIP3    H258650   6.835   4.069  14.916 -0.8733 -0.5662  1.9704
12387TIP3   OH258651   3.186   1.438  13.975  0.2201 -0.7439  0.5249
12387TIP3    H158652   3.249   1.456  14.045  1.2003 -1.0478 -0.2616
12387TIP3    H258653   3.234   1.385  13.912 -1.2325 -2.1243  0.5344
12388TIP3   OH258654   2.251   0.380   0.460  0.4504  0.3186 -0.2309
12388TIP3    H158655   2.344   0.403   0.459  0.3612  0.6792 -0.9439
12388TIP3    H258656   2.246   0.299   0.409  0.4831 -0.1786  0.5389
12389TIP3   OH258657   3.583   2.320   1.258 -0.6979 -0.3862  0.6031
12389TIP3    H158658   3.576   2.273   1.341  1.6833 -1.9594  0.0201
12389TIP3    H258659   3.583   2.413   1.283  0.8636 -0.8304  2.4941
12390TIP3   OH258660   1.070   4.861   4.725  0.5184 -0.3102 -0.1366
12390TIP3    H158661   1.075   4.791   4.790 -0.5064 -0.7892 -0.5562
12390TIP3    H258662   1.044   4.816   4.644 -2.5883  0.8462  0.1271
12391TIP3   OH258663   0.366   4.869  16.216 -0.2057  0.3647 -0.3692
12391TIP3    H158664   0.328   4.791  16.258 -3.9582  0.8394 -2.5193
12391TIP3    H258665   0.399   4.837  16.132  0.0590  0.8061 -0.4356
12392TIP3   OH258666   5.288   3.334   2.197 -0.2836 -0.1801  0.0650
12392TIP3    H158667   5.228   3.384   2.142 -0.8194 -1.3660 -0.4596
12392TIP3    H258668   5.365   3.391   2.206 -0.1980  0.0864 -1.8756
12393TIP3   OH258669   5.684   3.162  13.561 -1.2208  0.1899 -0.5666
12393TIP3    H158670   5.676   3.143  13.468 -3.7537 -0.2214 -0.3380
12393TIP3    H258671   5.742   3.237  13.566  0.9731 -1.2703 -2.2481
12394TIP3   OH258672   6.205   2.043   0.506 -0.1313 -0.6468 -0.2992
12394TIP3    H158673   6.135   1.990   0.469 -0.6450 -1.3914  1.6172
12394TIP3    H258674   6.273   2.045   0.439 -0.6063 -2.7323 -0.9020
12395TIP3   OH258675   5.303   6.217   4.313 -0.0577 -0.0979 -0.0533
12395TIP3    H158676   5.379   6.174   4.275 -0.0263 -1.7970  1.7595
12395TIP3    H258677   5.240   6.222   4.241  0.8144 -1.0676 -0.9265
12396TIP3   OH258678   3.590   1.501  12.637 -0.1386  0.0755 -0.6397
12396TIP3    H158679   3.644   1.436  12.681  0.2447  0.4223 -0.5878
12396TIP3    H258680   3.653   1.561  12.597 -0.4846  0.3478 -0.7783
12397TIP3   OH258681   5.143   5.129  11.823  0.0373 -0.2878  0.2442
12397TIP3    H158682   5.172   5.044  11.789  0.8544  0.6342 -1.4975
12397TIP3    H258683   5.223   5.178  11.839 -0.4417  0.4653  0.4133
12398TIP3   OH258684   1.014   6.127  15.496 -0.1216 -0.0544 -0.3880
12398TIP3    H158685   1.046   6.194  15.436 -1.1393  1.6183  0.8574
12398TIP3    H258686   1.038   6.159  15.583 -1.2414 -0.9799  0.2870
12399TIP3   OH258687   4.933   4.409  13.916 -0.0416 -0.0969  0.0696
12399TIP3    H158688   4.857   4.376  13.965 -2.0020 -0.0021 -2.7032
12399TIP3    H258689   4.920   4.377  13.827  2.4904  1.1114 -0.8228
12400TIP3   OH258690   1.568   4.693   5.840 -0.5288  0.4331 -0.4131
12400TIP3    H158691   1.484   4.712   5.883  0.2739  2.6918  0.3493
12400TIP3    H258692   1.595   4.778   5.804 -0.8230 -1.1598 -5.0077
12401TIP3   OH258693   5.691   1.875  15.707 -0.5840 -0.0602 -0.2464
12401TIP3    H158694   5.699   1.878  15.802 -2.8681 -0.1922  0.0027
12401TIP3    H258695   5.601   1.901  15.689  0.2648  1.6957 -2.5251
12402TIP3   OH258696   5.309   0.651   4.075  0.6277  0.3348  0.0206
12402TIP3    H158697   5.225   0.637   4.031  1.6246 -0.4549 -1.7435
12402TIP3    H258698   5.331   0.565   4.112 -0.2579  1.0153  2.3004
12403TIP3   OH258699   6.166   4.508   4.517  0.1522  0.5990  0.4047
12403TIP3    H158700   6.101   4.572   4.487 -0.4430  0.0734  0.5584
12403TIP3    H258701   6.244   4.528   4.465 -0.1628  1.1591  0.1308
12404TIP3   OH258702   2.737   4.411  12.458 -0.8550 -0.2580  0.3776
12404TIP3    H158703   2.667   4.469  12.428 -1.5842 -1.1295  0.3615
12404TIP3    H258704   2.691   4.337  12.498  0.0555 -0.9458  0.1742
12405TIP3   OH258705   1.695   1.155  17.051 -0.1544 -0.3602 -0.1761
12405TIP3    H158706   1.785   1.168  17.024 -1.0243 -0.5621 -3.6552
12405TIP3    H258707   1.679   1.061  17.042 -0.4029 -0.5663  1.8145
12406TIP3   OH258708   4.366   0.828  17.091 -0.6380  0.0676 -0.3532
12406TIP3    H158709   4.292   0.771  17.067  0.4226 -0.3588 -2.9073
12406TIP3    H258710   4.325   0.900  17.139 -2.6307 -0.4909 -1.0854
12407TIP3   OH258711   5.042   6.721  11.011 -0.3072  0.0472  0.4111
12407TIP3    H158712   5.116   6.772  10.977  1.1580 -1.5460  1.0586
12407TIP3    H258713   4.973   6.734  10.947  0.7104  1.1592 -0.5208
12408TIP3   OH258714   4.655   3.230   6.438 -0.2444 -0.1725  0.6775
12408TIP3    H158715   4.653   3.319   6.403  0.5906  0.2032  1.5406
12408TIP3    H258716   4.572   3.221   6.485  0.2452  0.6609  1.7543
12409TIP3   OH258717   1.577   1.126   1.595 -0.6722 -0.2597  0.2737
12409TIP3    H158718   1.522   1.072   1.539 -1.1821 -0.9093  1.3755
12409TIP3    H258719   1.587   1.208   1.546 -0.6233 -1.0066 -1.0149
12410TIP3   OH258720   3.909   5.401   6.561  0.8205  0.4067  0.3895
12410TIP3    H158721   3.957   5.472   6.603 -0.3228  1.0804  0.6000
12410TIP3    H258722   3.948   5.321   6.596  0.8828  0.9514  1.5948
12411TIP3   OH258723   4.176   2.661  17.281  0.4028 -0.5898  0.7980
12411TIP3    H158724   4.113   2.718  17.326  1.6576  0.2050  1.6337
12411TIP3    H258725   4.247   2.720  17.256  0.1148 -1.1598 -1.5795
12412TIP3   OH258726   4.167   4.392   3.119  0.8013  0.3856  0.2272
12412TIP3    H158727   4.209   4.327   3.062 -0.1635  0.3536 -0.4773
12412TIP3    H258728   4.145   4.344   3.199  1.0397  0.1118  0.1287
12413TIP3   OH258729   1.720   0.365   5.898 -0.0181 -0.6271 -0.5026
12413TIP3    H158730   1.672   0.380   5.979 -0.5464 -0.1594 -0.8942
12413TIP3    H258731   1.806   0.334   5.926  0.0967  0.3472  0.2690
12414TIP3   OH258732   1.922   0.441   2.874 -0.0470  0.3415  0.4852
12414TIP3    H158733   1.848   0.391   2.907 -1.1452  0.2272 -1.9331
12414TIP3    H258734   1.917   0.525   2.919 -0.6369 -0.2540  1.5646
12415TIP3   OH258735   3.201   3.208   5.476  0.4822  0.4940 -0.4642
12415TIP3    H158736   3.251   3.289   5.466  0.0168  1.0429  1.2034
12415TIP3    H258737   3.157   3.218   5.561 -0.1147 -1.2300 -0.5336
12416TIP3   OH258738   1.005   3.000  16.770  0.3773 -0.2480 -0.2629
12416TIP3    H158739   1.002   2.951  16.853  0.8790  0.5455  0.2345
12416TIP3    H258740   1.044   2.938  16.708  1.4836 -0.3334  0.4796
12417TIP3   OH258741   5.852   3.054  12.106  0.1306  0.4768  0.6141
12417TIP3    H158742   5.856   2.980  12.045 -1.4406 -0.0767  1.1299
12417TIP3    H258743   5.943   3.082  12.115  0.3947  0.8502 -2.2628
12418TIP3   OH258744   3.800   4.659  16.686 -0.0836  0.1962 -0.1868
12418TIP3    H158745   3.776   4.659  16.593  0.8832 -1.2022 -0.4634
12418TIP3    H258746   3.726   4.617  16.729  0.4741 -1.2944 -0.6428
12419TIP3   OH258747   1.053   3.255  14.514  0.8099  0.3975 -0.1984
12419TIP3    H158748   1.064   3.270  14.608  0.2251  0.2257 -0.1016
12419TIP3    H258749   0.958   3.255  14.501  0.8628 -0.7260 -0.6095
12420TIP3   OH258750   5.189   2.151   3.408 -0.4112 -0.0090  0.4129
12420TIP3    H158751   5.198   2.246   3.396 -0.6577 -0.1211 -0.8268
12420TIP3    H258752   5.279   2.120   3.421 -0.3635  0.4287  1.1833
12421TIP3   OH258753   2.579   1.795   6.004 -0.2566 -0.4989  1.3735
12421TIP3    H158754   2.532   1.753   5.933 -0.9628  0.4349  1.2668
12421TIP3    H258755   2.606   1.724   6.061  0.4803 -1.2879  0.0891
12422TIP3   OH258756   3.356   1.452   0.482 -0.3503  0.4580 -0.4620
12422TIP3    H158757   3.387   1.389   0.417  1.3017  1.0793 -0.3078
12422TIP3    H258758   3.300   1.512   0.432 -2.5006 -1.4296 -0.4978
12423TIP3   OH258759   1.104   0.704   4.585  0.2445 -0.0512 -0.3700
12423TIP3    H158760   1.167   0.744   4.645  1.3794 -1.4506 -0.5533
12423TIP3    H258761   1.018   0.732   4.617  0.8075 -0.6677  1.8931
12424TIP3   OH258762   4.442   4.797   5.393 -0.0879  0.0304  0.5226
12424TIP3    H158763   4.392   4.820   5.472 -2.2158  2.3216 -1.3210
12424TIP3    H258764   4.479   4.711   5.412  1.5267  1.3827  4.9050
12425TIP3   OH258765   1.998   6.658   1.888 -0.1829 -0.2388  0.6488
12425TIP3    H158766   2.077   6.610   1.914  0.3169  0.7070  0.9124
12425TIP3    H258767   2.017   6.689   1.799 -0.6412 -0.8154  0.3470
12426TIP3   OH258768   0.344   3.796  14.609 -0.1624  0.1934 -0.0287
12426TIP3    H158769   0.365   3.876  14.657 -0.8674  0.0636  0.5324
12426TIP3    H258770   0.311   3.736  14.676  0.7246 -0.7139 -0.3788
12427TIP3   OH258771   0.139   0.026   4.176 -0.2592 -0.0006 -0.0263
12427TIP3    H158772   0.089   0.107   4.189 -0.0453  0.0294  0.6298
12427TIP3    H258773   0.084  -0.027   4.118 -1.4779 -0.3161  1.3379
12428TIP3   OH258774   3.835   5.132   3.775  0.1730  0.2649 -0.5568
12428TIP3    H158775   3.760   5.107   3.829  0.6310  0.0247 -0.0205
12428TIP3    H258776   3.890   5.185   3.833  0.8015 -0.2220 -0.6948
12429TIP3   OH258777   0.314   2.425   1.287  0.7462 -0.2329 -0.0699
12429TIP3    H158778   0.283   2.502   1.239 -3.9851 -0.3719  2.2301
12429TIP3    H258779   0.330   2.457   1.376  3.9180 -1.0538 -0.2230
12430TIP3   OH258780   1.858   3.475  13.726 -0.0195 -0.2152 -0.0430
12430TIP3    H158781   1.838   3.544  13.663  0.0677 -0.9405 -0.8823
12430TIP3    H258782   1.880   3.399  13.672  1.2704 -0.5114  0.8604
12431TIP3   OH258783   4.368   1.827   1.858 -0.2134 -0.2162 -0.2870
12431TIP3    H158784   4.441   1.880   1.824 -0.8225  1.0611  0.3136
12431TIP3    H258785   4.346   1.869   1.941 -2.3401  0.1231 -0.9628
12432TIP3   OH258786   5.229   1.638   5.771  0.0165 -0.1016  0.6657
12432TIP3    H158787   5.319   1.612   5.752 -0.3553 -0.2957 -0.9606
12432TIP3    H258788   5.207   1.591   5.852  1.8366  1.1183  1.9550
12433TIP3   OH258789   6.636   5.441  12.577 -0.6903 -0.0358 -0.2192
12433TIP3    H158790   6.589   5.359  12.593 -1.5291  0.0860 -1.8686
12433TIP3    H258791   6.587   5.484  12.508  1.2925  0.5656 -1.3520
12434TIP3   OH258792   0.972   4.160  17.292  0.5530 -0.6429  1.0677
12434TIP3    H158793   0.882   4.193  17.291  0.0581 -1.9056 -0.6542
12434TIP3    H258794   1.026   4.238  17.293 -0.5692  0.1679  0.4811
12435TIP3   OH258795   2.933   6.795   0.304  0.0932  0.1900 -0.0677
12435TIP3    H158796   2.966   6.787   0.393  0.1570  0.4989 -0.0603
12435TIP3    H258797   2.952   6.711   0.263 -0.1176 -0.0267  0.2696
12436TIP3   OH258798   0.965   3.366   1.737 -0.7853  0.1672  0.3065
12436TIP3    H158799   1.005   3.280   1.745 -1.7800 -0.5633 -1.7087
12436TIP3    H258800   0.892   3.364   1.799  0.9753  0.7692  2.5181
12437TIP3   OH258801   1.018   3.677   5.039  0.5393  0.2843 -0.3748
12437TIP3    H158802   1.064   3.593   5.040 -0.0075 -0.0559  2.1385
12437TIP3    H258803   0.926   3.654   5.024  0.3434  0.3742  0.6270
12438TIP3   OH258804   0.689   1.041  14.194 -0.2348 -0.4371  0.2148
12438TIP3    H158805   0.734   1.039  14.278  1.4172  0.9770 -0.5737
12438TIP3    H258806   0.697   1.131  14.164 -0.7331 -0.9082 -1.4845
12439TIP3   OH258807   4.467   0.945  16.648  0.0653  0.5579  0.6675
12439TIP3    H158808   4.397   0.958  16.585 -0.7103 -2.6426  0.7413
12439TIP3    H258809   4.455   1.015  16.713 -1.4044  1.6304 -0.7015
12440TIP3   OH258810   2.750   3.557  13.779 -0.2335  0.1182  0.3383
12440TIP3    H158811   2.748   3.598  13.866 -0.9604 -1.5509  1.1551
12440TIP3    H258812   2.697   3.615  13.724 -2.8189 -0.6263  1.8989
12441TIP3   OH258813   0.104   1.169  16.502  0.1159 -0.1754 -0.0914
12441TIP3    H158814   0.095   1.229  16.577  1.8931 -0.4352  0.3876
12441TIP3    H258815   0.102   1.082  16.541 -1.2767 -0.4054 -0.6470
12442TIP3   OH258816   5.121   2.920  13.666  0.3785 -0.4266 -0.2281
12442TIP3    H158817   5.077   2.970  13.597  1.2443  1.4593  0.5234
12442TIP3    H258818   5.205   2.896  13.629  0.0373 -1.2184 -0.5211
12443TIP3   OH258819   1.342   1.635   3.613 -0.5986 -0.1813 -0.5707
12443TIP3    H158820   1.401   1.614   3.685  0.0648 -2.6139 -1.6991
12443TIP3    H258821   1.257   1.649   3.655  0.5581  2.8298  1.0307
12444TIP3   OH258822   2.700   4.379   4.521 -0.7115  0.0054 -0.2243
12444TIP3    H158823   2.735   4.385   4.432  0.0253  0.0726  0.0619
12444TIP3    H258824   2.698   4.469   4.552  0.5467 -0.1600  0.3885
12445TIP3   OH258825   4.346   5.508   0.874 -0.4795 -0.0910  0.2842
12445TIP3    H158826   4.317   5.576   0.813 -1.6949  0.3983  1.3592
12445TIP3    H258827   4.418   5.549   0.923 -0.3897 -0.0210  0.0962
12446TIP3   OH258828   1.577   6.533  11.697 -0.0354 -0.8720  0.3622
12446TIP3    H158829   1.608   6.457  11.746  2.8889  0.9603  1.6405
12446TIP3    H258830   1.573   6.603  11.762  1.3142  0.9987 -1.4241
12447TIP3   OH258831   5.288   1.723   5.077  0.4818  0.7270 -0.3182
12447TIP3    H158832   5.204   1.677   5.083  0.0529  1.2225 -1.9474
12447TIP3    H258833   5.341   1.668   5.020  1.3738  0.2974  0.8919
12448TIP3   OH258834   4.336   4.727  15.467 -0.1265  0.4586  0.5136
12448TIP3    H158835   4.307   4.758  15.553  1.5707  1.0450  0.9102
12448TIP3    H258836   4.405   4.663  15.487 -0.7500 -0.5310 -0.3957
12449TIP3   OH258837   4.464   6.258  13.970 -0.5547 -0.1211 -0.1148
12449TIP3    H158838   4.445   6.193  13.902 -1.2532 -0.3592  0.2953
12449TIP3    H258839   4.481   6.206  14.049 -0.3397  0.1696  0.0308
12450TIP3   OH258840   4.284   1.526  13.734  0.3709 -0.7144  0.2805
12450TIP3    H158841   4.357   1.548  13.677  0.2629 -0.4201  0.2524
12450TIP3    H258842   4.273   1.431  13.724  0.4183 -0.6808 -0.1114
12451TIP3   OH258843   4.443   2.454  16.535  0.7392 -0.2715 -0.2396
12451TIP3    H158844   4.475   2.433  16.448 -0.3067  0.0890 -0.7282
12451TIP3    H258845   4.395   2.377  16.563  0.3498 -0.0707 -0.3446
12452TIP3   OH258846   2.327   6.419   1.043  0.1548 -0.6277 -0.0539
12452TIP3    H158847   2.356   6.468   1.120 -2.0442  0.2068  0.3328
12452TIP3    H258848   2.350   6.474   0.968 -1.4889  0.6482  0.3234
12453TIP3   OH258849   6.383   1.660  11.691  0.3263  0.1036 -0.1818
12453TIP3    H158850   6.298   1.619  11.706  0.7376 -0.6614  0.1145
12453TIP3    H258851   6.380   1.741  11.743  0.6915 -1.1420  1.8698
12454TIP3   OH258852   3.415   4.234   1.820  0.2826  0.6139  0.6442
12454TIP3    H158853   3.507   4.221   1.844 -0.4198 -3.3690  1.8519
12454TIP3    H258854   3.417   4.249   1.725  2.1991  2.9294  0.9477
12455TIP3   OH258855   3.939   2.778  13.136 -0.1625  0.2806  0.1022
12455TIP3    H158856   3.915   2.708  13.075  0.2155  0.7111 -0.5461
12455TIP3    H258857   3.987   2.733  13.206  1.3064  0.0327 -0.9963
12456TIP3   OH258858   0.136   0.902  14.817  0.2373 -0.4791 -0.1373
12456TIP3    H158859   0.066   0.947  14.769 -0.9145  0.2919  2.0933
12456TIP3    H258860   0.204   0.887  14.752 -2.0691 -1.5344 -2.5259
12457TIP3   OH258861   0.905   4.639   6.340 -0.3707  0.3009  0.6361
12457TIP3    H158862   0.846   4.715   6.342 -1.1078 -0.2675  0.6689
12457TIP3    H258863   0.864   4.579   6.279 -0.2608 -0.4701  1.3143
12458TIP3   OH258864   1.129   5.437   5.381  0.0572  0.2012  0.0779
12458TIP3    H158865   1.090   5.524   5.366  0.0377  0.2474  0.3969
12458TIP3    H258866   1.194   5.452   5.449 -1.2254 -0.3628  1.5010
12459TIP3   OH258867   0.982   5.737   5.891  0.3862 -0.1314  0.0942
12459TIP3    H158868   0.937   5.712   5.971  2.3403 -0.1595  1.2490
12459TIP3    H258869   0.959   5.669   5.828  0.3359 -1.1726  1.2062
12460TIP3   OH258870   2.158   6.572  16.831  0.3140 -0.2658 -0.3296
12460TIP3    H158871   2.149   6.667  16.839  3.1034  0.0224  0.4169
12460TIP3    H258872   2.108   6.537  16.905 -0.5937  0.6100 -0.5140
12461TIP3   OH258873   2.313   4.763   4.537  0.3847  0.0069  0.3551
12461TIP3    H158874   2.324   4.682   4.486  1.3977 -0.9885  2.0530
12461TIP3    H258875   2.245   4.742   4.601 -1.2501  1.4119 -0.8528
12462TIP3   OH258876   5.578   6.010   4.623  0.4836  0.1281  0.3403
12462TIP3    H158877   5.560   5.977   4.535  0.9633  0.6227  0.0562
12462TIP3    H258878   5.658   5.965   4.650 -0.7576 -1.5930  1.3580
12463TIP3   OH258879   6.454   0.539   0.339 -0.1253 -0.5970 -0.5051
12463TIP3    H158880   6.361   0.525   0.323 -0.0753 -2.1337  0.3140
12463TIP3    H258881   6.458   0.622   0.387 -1.1492 -0.8947  0.1260
12464TIP3   OH258882   0.373   2.038   5.095 -0.1021 -0.0673  0.1382
12464TIP3    H158883   0.450   1.983   5.103 -0.6200 -0.7742  0.3447
12464TIP3    H258884   0.401   2.124   5.127  0.8291 -0.0910 -0.5772
12465TIP3   OH258885   4.971   5.705  12.944  0.6486  0.1541 -0.2500
12465TIP3    H158886   4.915   5.781  12.928  3.1575  2.5127  1.1662
12465TIP3    H258887   5.037   5.710  12.874  0.5696 -1.0375 -0.4208
12466TIP3   OH258888   3.463   6.145  13.135 -0.1952 -0.3054  0.1987
12466TIP3    H158889   3.392   6.209  13.147  0.9727  1.5095 -1.8147
12466TIP3    H258890   3.462   6.127  13.041  0.7384 -1.8168  0.4544
12467TIP3   OH258891   2.055   3.511   4.254 -0.3989  0.0283 -0.3685
12467TIP3    H158892   2.090   3.428   4.286 -0.4289 -0.1408 -0.7632
12467TIP3    H258893   1.989   3.536   4.319 -1.0348 -0.7181 -0.7028
12468TIP3   OH258894   6.417   3.472   0.219 -0.5869  0.0876 -0.3108
12468TIP3    H158895   6.447   3.558   0.249 -2.7253  0.4043  1.1307
12468TIP3    H258896   6.489   3.413   0.240  2.0305  1.7400 -3.5762
12469TIP3   OH258897   0.321   4.316  16.105 -0.0143 -0.1427 -0.1670
12469TIP3    H158898   0.243   4.290  16.155 -0.9022 -0.2582 -1.5488
12469TIP3    H258899   0.394   4.277  16.153 -0.7524  0.3105  1.4007
12470TIP3   OH258900   6.162   6.484   7.026  0.3719  0.6084 -0.0540
12470TIP3    H158901   6.160   6.400   7.074  0.4071  0.2288 -0.7102
12470TIP3    H258902   6.210   6.465   6.946 -1.3518  0.7390 -1.1706
12471TIP3   OH258903   6.430   3.206   3.611  0.5298  0.1788  0.1015
12471TIP3    H158904   6.366   3.162   3.667 -1.4956  1.5207 -1.0356
12471TIP3    H258905   6.421   3.299   3.634  1.8457  0.4303 -0.3242
12472TIP3   OH258906   0.465   6.344  14.623 -0.3268 -0.8810  0.4905
12472TIP3    H158907   0.404   6.362  14.695 -2.5425 -0.9488 -1.2569
12472TIP3    H258908   0.530   6.414  14.629 -1.7132  0.4101  1.2574
12473TIP3   OH258909   3.308   0.029  15.949 -0.2875 -0.3848  0.3047
12473TIP3    H158910   3.241  -0.008  15.892  1.2082  0.2089 -1.9780
12473TIP3    H258911   3.314  -0.032  16.022 -0.9722 -2.2376 -1.1084
12474TIP3   OH258912   3.925   5.279  12.421  0.3920 -0.6464 -0.1899
12474TIP3    H158913   3.839   5.321  12.410  0.5729 -0.1744  0.1680
12474TIP3    H258914   3.976   5.308  12.346  0.4805 -0.3009 -0.0017
12475TIP3   OH258915   5.641   6.060  14.770  0.9241  0.1876 -0.2067
12475TIP3    H158916   5.683   6.120  14.708 -0.2068 -0.2091 -1.4097
12475TIP3    H258917   5.700   6.058  14.845  2.4366  0.5749 -1.3322
12476TIP3   OH258918   6.607   0.842  15.438 -0.1392 -0.3250  0.2967
12476TIP3    H158919   6.651   0.916  15.396  0.5445 -0.2383  1.1364
12476TIP3    H258920   6.516   0.870  15.446 -0.1970 -0.1925 -0.7634
12477TIP3   OH258921   5.626   6.535   2.124  0.7922 -0.2103  0.3486
12477TIP3    H158922   5.647   6.612   2.177  0.5373  0.9481 -1.1742
12477TIP3    H258923   5.547   6.499   2.164 -1.7387  2.9009 -1.3646
12478TIP3   OH258924   4.174   5.975  16.046 -0.1330  0.4421  0.6326
12478TIP3    H158925   4.193   6.033  15.972 -1.1758 -1.6831 -1.4337
12478TIP3    H258926   4.084   5.998  16.071  0.0875  0.9029  1.0298
12479TIP3   OH258927   4.261   6.117   0.716  0.1729 -0.0398 -0.1882
12479TIP3    H158928   4.268   6.169   0.636 -0.0521  0.6281  0.2232
12479TIP3    H258929   4.332   6.053   0.709  2.8841  2.5987  0.9734
12480TIP3   OH258930   2.891   4.677  10.856  0.3318  0.1060  0.2322
12480TIP3    H158931   2.972   4.633  10.830 -0.2831 -0.9669  0.0779
12480TIP3    H258932   2.880   4.746  10.791  1.6456  0.9325  0.8472
12481TIP3   OH258933   3.127   0.037  12.049 -0.1063  0.1731  0.5482
12481TIP3    H158934   3.196   0.063  11.988 -0.7373  0.5120 -0.0384
12481TIP3    H258935   3.165   0.051  12.135 -0.1993  2.5639  0.2808
12482TIP3   OH258936   2.544   3.670  16.255  0.1087  0.2624 -0.4638
12482TIP3    H158937   2.628   3.691  16.296 -0.1383  0.6588 -0.1526
12482TIP3    H258938   2.553   3.579  16.226  0.2313 -0.0894  0.6331
12483TIP3   OH258939   6.475   6.716   4.807 -0.0240  0.0611 -0.0378
12483TIP3    H158940   6.404   6.705   4.871  0.6712 -3.5869  0.3194
12483TIP3    H258941   6.529   6.786   4.843 -0.4697 -0.8518  2.6890
12484TIP3   OH258942   3.095   4.426  13.308 -0.3081 -0.3176  0.2630
12484TIP3    H158943   3.074   4.518  13.288  0.2244 -0.1215  0.5840
12484TIP3    H258944   3.143   4.430  13.391  0.9123 -0.7466 -0.3940
12485TIP3   OH258945   0.327   0.304   3.785  0.4641 -0.2581 -0.2600
12485TIP3    H158946   0.332   0.267   3.873  1.8007 -1.0503 -0.6309
12485TIP3    H258947   0.314   0.398   3.799 -3.1629 -0.7682  0.7050
12486TIP3   OH258948   3.358   0.373   3.147 -0.0579 -0.6092 -0.4475
12486TIP3    H158949   3.276   0.408   3.183  0.5854 -0.1429  0.6238
12486TIP3    H258950   3.369   0.289   3.192 -0.1299 -0.8487 -0.8717
12487TIP3   OH258951   1.664   1.364  12.277 -0.7086 -0.2419  0.0346
12487TIP3    H158952   1.687   1.414  12.199 -2.3156 -0.7602 -0.8247
12487TIP3    H258953   1.636   1.430  12.341 -1.9340  0.0615 -0.7761
12488TIP3   OH258954   4.748   6.716  11.313  0.3137  0.0761  0.1489
12488TIP3    H158955   4.759   6.644  11.376  0.5572 -1.0470 -1.1294
12488TIP3    H258956   4.835   6.754  11.305 -0.0288  1.2936  1.6644
12489TIP3   OH258957   1.993   2.272  11.849  0.0172  0.5518  0.1148
12489TIP3    H158958   2.040   2.355  11.845  1.2985 -0.1024  0.7820
12489TIP3    H258959   1.944   2.276  11.932 -0.8008  1.0624 -0.3785
12490TIP3   OH258960   1.129   5.332  12.405 -0.6011 -0.9275 -0.1350
12490TIP3    H158961   1.109   5.240  12.422 -1.8263 -0.3130  2.2730
12490TIP3    H258962   1.082   5.380  12.474 -0.2968  1.5396 -1.5141
12491TIP3   OH258963   6.704   4.042   2.762 -0.2367 -0.2717 -0.1513
12491TIP3    H158964   6.754   3.998   2.831 -1.3446 -1.2176  0.0715
12491TIP3    H258965   6.733   3.999   2.682 -1.0699 -1.2080  0.0327
12492TIP3   OH258966   0.029   3.256   4.330 -0.2292 -0.7599  0.2497
12492TIP3    H158967   0.065   3.230   4.415  0.2088 -0.1256  0.2721
12492TIP3    H258968  -0.024   3.334   4.350 -0.8499 -1.1292  0.0692
12493TIP3   OH258969   0.199   5.823   5.677  0.2347  0.2563 -0.1204
12493TIP3    H158970   0.127   5.769   5.710 -0.2495 -0.3221 -1.9761
12493TIP3    H258971   0.157   5.905   5.651  0.4394  0.3405 -0.1849
12494TIP3   OH258972   1.890   6.793  11.181 -0.1346  0.1011  0.1264
12494TIP3    H158973   1.921   6.834  11.100 -0.3618 -0.7798 -0.4248
12494TIP3    H258974   1.909   6.700  11.169  0.6519  0.0676  1.4697
12495TIP3   OH258975   0.721   1.109   3.077 -0.2406 -0.0378 -0.0938
12495TIP3    H158976   0.690   1.171   3.143 -0.3524  1.0308 -1.1192
12495TIP3    H258977   0.697   1.023   3.111  2.3778  0.1622  2.7674
12496TIP3   OH258978   1.428   2.590   2.749  0.7784 -0.4142 -0.5458
12496TIP3    H158979   1.427   2.494   2.747  1.9391 -0.4625  0.3496
12496TIP3    H258980   1.372   2.613   2.823  0.3106 -0.3753 -0.9027
12497TIP3   OH258981   2.049   2.034  12.154 -0.2219 -0.1456  0.4955
12497TIP3    H158982   1.967   2.043  12.202 -1.1018 -1.6155 -0.6690
12497TIP3    H258983   2.025   2.045  12.062  1.2620  1.5796  0.2532
12498TIP3   OH258984   5.861   5.040  14.239 -0.2925  0.7694 -0.4703
12498TIP3    H158985   5.846   5.011  14.329 -0.1433  1.0976 -0.3414
12498TIP3    H258986   5.804   5.117  14.229  0.6496  1.5086 -0.2501
12499TIP3   OH258987   0.253   6.320   4.621  0.1029 -0.0175  0.3837
12499TIP3    H158988   0.224   6.232   4.643 -0.6965  0.1063 -0.1143
12499TIP3    H258989   0.348   6.316   4.623  0.0659 -0.7539  0.8827
12500TIP3   OH258990   2.223   1.863   5.804 -0.3534 -0.3014 -0.0057
12500TIP3    H158991   2.128   1.851   5.804 -0.5157  0.7102  1.5663
12500TIP3    H258992   2.238   1.932   5.739 -0.7720 -0.0104  0.2008
12501TIP3   OH258993   4.604   6.187   3.893  0.0464  0.0408 -0.2099
12501TIP3    H158994   4.616   6.119   3.827  2.5885  1.8320 -1.7518
12501TIP3    H258995   4.551   6.253   3.849 -1.2407 -0.2658  0.8143
12502TIP3   OH258996   5.366   0.763  16.963 -1.1050  0.2653 -0.4221
12502TIP3    H158997   5.289   0.757  17.020 -1.0180  0.1569 -0.3151
12502TIP3    H258998   5.346   0.836  16.904  0.2069  2.7218  1.9074
12503TIP3   OH258999   5.948   0.478  12.192  0.6657 -0.3669  0.4496
12503TIP3    H159000   6.029   0.463  12.240  2.1239 -0.9942 -2.0355
12503TIP3    H259001   5.939   0.573  12.189  1.4523 -0.2856  0.5442
12504TIP3   OH259002   1.615   4.012   1.334  0.4110 -0.4935  0.6457
12504TIP3    H159003   1.674   3.949   1.292 -0.6593 -1.7706  0.9765
12504TIP3    H259004   1.645   4.016   1.424  0.3406 -0.7136  0.6800
12505TIP3   OH259005   2.330   4.123  16.060 -0.2742  0.5448  0.3143
12505TIP3    H159006   2.380   4.199  16.030 -0.9396  1.4199  1.3989
12505TIP3    H259007   2.397   4.055  16.073  0.0454 -0.2036 -3.7719
12506TIP3   OH259008   5.050   2.385   0.522 -0.4403  0.0950  0.5520
12506TIP3    H159009   5.142   2.409   0.523 -0.4836  0.2797  0.3665
12506TIP3    H259010   5.045   2.314   0.458 -0.7652  1.5921 -1.1966
12507TIP3   OH259011   5.678   5.708  12.504 -0.3243 -0.2605 -0.4795
12507TIP3    H159012   5.613   5.638  12.516  0.0176 -0.4589  0.3112
12507TIP3    H259013   5.627   5.787  12.493 -0.7107 -0.3752  0.3990
12508TIP3   OH259014   5.224   3.360   2.813 -0.0050 -0.5076  0.8167
12508TIP3    H159015   5.171   3.341   2.891  1.6225  1.2399  2.4501
12508TIP3    H259016   5.253   3.451   2.825  1.1541 -0.5240 -1.3422
12509TIP3   OH259017   4.849   1.130  14.720 -0.1881  0.3130 -0.0024
12509TIP3    H159018   4.854   1.035  14.708 -3.0593  0.1939 -0.9875
12509TIP3    H259019   4.810   1.141  14.807 -0.2114  0.5517 -0.0425
12510TIP3   OH259020   4.380   4.780  13.658  0.1157 -0.6749 -0.0928
12510TIP3    H159021   4.296   4.823  13.646  0.7835  0.6173 -0.3298
12510TIP3    H259022   4.423   4.830  13.727  1.0734 -0.7127 -0.6453
12511TIP3   OH259023   4.473   6.416   4.370  0.2766  0.2973  0.6214
12511TIP3    H159024   4.413   6.383   4.437  1.1685  1.9837  2.3408
12511TIP3    H259025   4.551   6.361   4.380 -1.1277 -2.5906 -2.2970
12512TIP3   OH259026   0.449   1.445   2.223  0.1396  0.2367  0.6058
12512TIP3    H159027   0.371   1.401   2.192 -0.8815  1.4551  1.3364
12512TIP3    H259028   0.473   1.398   2.303  0.6867 -0.6783 -0.0786
12513TIP3   OH259029   0.011   6.535   5.366  0.2087  0.1835 -0.5975
12513TIP3    H159030   0.052   6.499   5.445 -0.2404  2.7322  0.9365
12513TIP3    H259031   0.081   6.581   5.321  0.1416  0.0451 -0.8449
12514TIP3   OH259032   5.606   6.164  15.933  0.3697 -0.0973  0.4685
12514TIP3    H159033   5.530   6.221  15.948  0.9364  0.6378  0.5926
12514TIP3    H259034   5.625   6.173  15.840  0.2488 -0.3570  0.4173
12515TIP3   OH259035   5.917   4.180  13.279  0.1035  0.4528 -0.5772
12515TIP3    H159036   5.879   4.237  13.212  0.0970  0.9183 -0.1817
12515TIP3    H259037   6.012   4.186  13.264  0.0495 -1.5476 -2.2560
12516TIP3   OH259038   3.506   6.204   0.626  0.1879 -0.0156  0.2066
12516TIP3    H159039   3.527   6.111   0.626  0.1897 -0.0176 -0.5944
12516TIP3    H259040   3.589   6.248   0.608 -0.2274  0.0263 -1.7970
12517TIP3   OH259041   0.605   5.531  13.995 -0.1649 -0.1111  0.4210
12517TIP3    H159042   0.691   5.495  14.016 -0.2616 -1.0581 -0.6898
12517TIP3    H259043   0.611   5.624  14.018  1.4115  0.0101 -0.3544
12518TIP3   OH259044   0.746   4.988  12.971 -0.4792 -0.4231 -0.2519
12518TIP3    H159045   0.715   4.992  13.062 -2.1193  0.0950 -0.8026
12518TIP3    H259046   0.830   5.034  12.972  0.4899 -2.0760  1.3450
12519TIP3   OH259047   4.906   1.435   5.412 -0.5051 -0.0370 -0.6106
12519TIP3    H159048   4.828   1.445   5.465  0.1824 -0.2308  0.4606
12519TIP3    H259049   4.925   1.341   5.414 -0.3739 -0.0220 -1.0572
12520TIP3   OH259050   1.611   2.414  13.487 -0.1073 -0.0047  0.2854
12520TIP3    H159051   1.537   2.394  13.429  0.8171  1.5049 -1.5128
12520TIP3    H259052   1.589   2.499  13.525  1.9625  2.0589 -2.7091
12521TIP3   OH259053   5.679   3.019   1.917  0.3833 -0.4882  0.0463
12521TIP3    H159054   5.742   3.092   1.919 -1.5568  1.3214 -0.9348
12521TIP3    H259055   5.655   3.007   2.009 -0.4053  1.2422  0.1208
12522TIP3   OH259056   1.645   5.796   5.081  0.0225  0.7427 -0.0446
12522TIP3    H159057   1.734   5.787   5.046 -0.4992 -0.6383 -1.0805
12522TIP3    H259058   1.614   5.706   5.091 -0.8203  1.1651  1.5133
12523TIP3   OH259059   2.998   3.364  10.604 -0.0208  0.1610 -0.1015
12523TIP3    H159060   2.962   3.363  10.515  0.5160  0.2341 -0.3211
12523TIP3    H259061   3.046   3.281  10.611  1.7189  1.0881 -0.6225
12524TIP3   OH259062   4.946   4.547   2.988  0.2938 -0.3174  0.3169
12524TIP3    H159063   4.948   4.453   2.967 -1.8796 -0.5730  0.9511
12524TIP3    H259064   4.983   4.553   3.075  0.2058 -0.6427  0.3782
12525TIP3   OH259065   4.154   6.415   4.490 -0.3744  0.0285  1.0942
12525TIP3    H159066   4.098   6.491   4.510  1.5823  1.5308  1.1974
12525TIP3    H259067   4.104   6.364   4.427 -1.3465  1.9548  0.2253
12526TIP3   OH259068   3.293   6.651   1.937 -0.2723  0.0459  0.1853
12526TIP3    H159069   3.305   6.732   1.987 -1.2309  0.2155  0.1526
12526TIP3    H259070   3.346   6.586   1.984 -0.6635  0.3458  1.0646
12527TIP3   OH259071   3.482   6.074   5.437 -0.4848  0.4855 -0.0370
12527TIP3    H159072   3.523   5.997   5.474 -2.3290 -0.8234 -0.5599
12527TIP3    H259073   3.430   6.111   5.508  0.5034  1.3796  0.2549
12528TIP3   OH259074   6.561   0.623  11.214  0.7344 -0.0397  0.4268
12528TIP3    H159075   6.634   0.671  11.253 -0.4083  3.1737 -0.9898
12528TIP3    H259076   6.486   0.644  11.270  0.3884 -1.0822  0.3673
12529TIP3   OH259077   0.411   5.301   4.004  0.1241 -0.0600 -0.3400
12529TIP3    H159078   0.475   5.371   3.996  0.0534  0.0023 -0.3535
12529TIP3    H259079   0.416   5.274   4.095  0.6216 -0.4812 -0.4897
12530TIP3   OH259080   4.502   0.005  11.388  0.2617 -0.1374 -0.1060
12530TIP3    H159081   4.495  -0.087  11.414 -0.3784  0.1149  0.6366
12530TIP3    H259082   4.590   0.012  11.351  0.5178 -0.9305  0.3136
12531TIP3   OH259083   4.463   2.727  11.522  0.4292 -0.3179  0.5853
12531TIP3    H159084   4.376   2.705  11.555 -0.6011 -1.0695 -2.3761
12531TIP3    H259085   4.484   2.811  11.563 -1.7812 -0.0168  1.2086
12532TIP3   OH259086   0.368   5.460  14.187  0.2974 -0.0110 -0.3298
12532TIP3    H159087   0.451   5.495  14.155 -0.2994  2.0661  0.2739
12532TIP3    H259088   0.306   5.476  14.116 -0.4581  2.2722  0.7498
12533TIP3   OH259089   0.323   2.279  14.664 -0.3599 -0.3905  0.7374
12533TIP3    H159090   0.250   2.320  14.619 -0.6257  0.0135  1.5158
12533TIP3    H259091   0.318   2.187  14.639 -1.2229 -0.3927  0.8900
12534TIP3   OH259092   4.642   5.630  14.474  0.1753 -0.1423 -0.0102
12534TIP3    H159093   4.552   5.661  14.481  0.2205  0.7038 -2.3656
12534TIP3    H259094   4.690   5.703  14.436  1.6016 -1.0396 -0.0187
12535TIP3   OH259095   3.784   2.427   4.151  0.0666  0.5494  0.2660
12535TIP3    H159096   3.783   2.396   4.060 -0.2037  1.9878 -0.2555
12535TIP3    H259097   3.739   2.359   4.200  0.2069 -0.2474 -0.6842
12536TIP3   OH259098   5.407   3.123   4.068 -0.0691 -0.0037  0.1186
12536TIP3    H159099   5.382   3.064   3.997  0.0997  0.5354 -0.3997
12536TIP3    H259100   5.496   3.151   4.046 -0.2568  0.6764  0.1858
12537TIP3   OH259101   2.212   0.069   4.286 -0.7490 -0.3782 -0.4142
12537TIP3    H159102   2.277  -0.001   4.276  0.1236  0.4651 -0.9035
12537TIP3    H259103   2.148   0.053   4.218 -0.4757 -0.6271 -0.6144
12538TIP3   OH259104   4.995   1.093  11.137 -0.5922  0.0181  0.2685
12538TIP3    H159105   4.948   1.037  11.199 -1.5290 -0.3874 -0.7894
12538TIP3    H259106   4.952   1.178  11.143 -1.8560 -0.4992 -1.0963
12539TIP3   OH259107   4.631   0.757  14.861  0.1753 -0.0805  0.3000
12539TIP3    H159108   4.592   0.828  14.810  2.2033 -0.4163 -1.8967
12539TIP3    H259109   4.584   0.679  14.832 -1.9157  0.2066  2.5685
12540TIP3   OH259110   6.697   5.443   3.629 -0.2062 -0.7828 -0.5907
12540TIP3    H159111   6.734   5.356   3.617 -2.6273 -1.7630 -1.6130
12540TIP3    H259112   6.711   5.487   3.545  1.0343 -0.1431 -0.0686
12541TIP3   OH259113   3.537   1.201   0.576 -0.5505  0.1424 -0.0140
12541TIP3    H159114   3.484   1.153   0.512  1.4862  0.6303 -2.2423
12541TIP3    H259115   3.564   1.280   0.530 -1.2706  1.9689  2.4922
12542TIP3   OH259116   5.416   4.641  12.363 -0.4430  0.1506  0.1657
12542TIP3    H159117   5.510   4.647  12.380 -0.5659 -0.2436  1.0639
12542TIP3    H259118   5.375   4.652  12.449 -1.2794  1.3716 -0.3502
12543TIP3   OH259119   0.701   5.816   1.221  0.1682 -0.2585  0.1494
12543TIP3    H159120   0.683   5.877   1.150  1.9046 -2.1378 -2.0773
12543TIP3    H259121   0.617   5.772   1.237 -1.0593  2.3560  1.6540
12544TIP3   OH259122   4.232   3.594   3.708  0.8767 -0.0165  0.0760
12544TIP3    H159123   4.249   3.499   3.707 -0.9395 -0.3824  0.4158
12544TIP3    H259124   4.231   3.618   3.800  2.4859  0.6146 -0.0262
12545TIP3   OH259125   6.246   6.167  13.827 -0.1582  0.1039  0.1580
12545TIP3    H159126   6.216   6.126  13.746 -0.4273  1.7562 -0.6111
12545TIP3    H259127   6.338   6.187  13.811  0.1526 -0.7571  0.7815
12546TIP3   OH259128   6.683   4.201  16.807 -0.5793  0.4314 -0.4421
12546TIP3    H159129   6.711   4.276  16.753  0.1779  0.3447 -0.1863
12546TIP3    H259130   6.618   4.238  16.866 -0.5046  0.8077 -0.5887
12547TIP3   OH259131   3.687   6.574  16.700  0.4951 -0.0508  0.3797
12547TIP3    H159132   3.595   6.550  16.690 -0.4911  3.7239 -1.6564
12547TIP3    H259133   3.698   6.585  16.795 -0.8062 -1.5115  0.7494
12548TIP3   OH259134   3.780   3.361   1.229 -0.3165 -0.1294  0.2542
12548TIP3    H159135   3.697   3.321   1.202 -0.6903  0.7823 -0.0089
12548TIP3    H259136   3.847   3.313   1.180 -0.6935 -0.8292  0.4133
12549TIP3   OH259137   2.401   0.790   6.204 -0.7414 -0.2091  0.1697
12549TIP3    H159138   2.324   0.756   6.159 -0.9487  2.4173 -1.7011
12549TIP3    H259139   2.372   0.873   6.243  0.8113  0.2030  0.5471
12550TIP3   OH259140   3.279   0.215   6.085  0.2200  0.1420 -0.4300
12550TIP3    H159141   3.308   0.161   6.012  0.5723  2.7322 -2.3489
12550TIP3    H259142   3.322   0.300   6.072 -1.4418  1.4073  1.5475
12551TIP3   OH259143   0.006   6.092   2.946 -0.3421 -0.4077  0.0341
12551TIP3    H159144  -0.084   6.082   2.914 -1.5035  1.1601  2.4810
12551TIP3    H259145   0.009   6.041   3.027  0.4380  0.7847  0.7943
12552TIP3   OH259146   0.417   3.640   3.183 -0.0026 -0.6458 -0.1838
12552TIP3    H159147   0.375   3.716   3.224 -0.3616 -1.1813  0.4437
12552TIP3    H259148   0.507   3.643   3.216  0.6520  0.7910 -1.9192
12553TIP3   OH259149   6.517   5.233   2.342 -0.0264 -0.3372  0.2202
12553TIP3    H159150   6.481   5.174   2.408  0.3823 -0.3870  0.3983
12553TIP3    H259151   6.585   5.282   2.387  0.8215 -0.9441 -0.3709
12554TIP3   OH259152   4.787   5.427   1.816 -0.9986  0.3305 -0.8875
12554TIP3    H159153   4.798   5.477   1.735 -1.8466 -0.5503 -1.5656
12554TIP3    H259154   4.825   5.341   1.798  1.2009  0.9034  0.5395
12555TIP3   OH259155   1.762   6.669  13.476  0.1892 -0.1369  0.5820
12555TIP3    H159156   1.802   6.735  13.533  0.2615 -0.0253  0.4031
12555TIP3    H259157   1.668   6.687  13.482 -0.0393 -1.6589  2.5817
12556TIP3   OH259158   1.983   4.177   0.685 -0.2350 -0.0097 -0.2631
12556TIP3    H159159   1.969   4.217   0.770 -0.0850  0.1387 -0.3084
12556TIP3    H259160   1.908   4.118   0.673  0.5216 -1.2223  0.6643
12557TIP3   OH259161   5.278   0.315  12.595  0.0685 -0.4701 -0.1687
12557TIP3    H159162   5.266   0.265  12.514 -0.2413 -1.4388  0.4532
12557TIP3    H259163   5.350   0.270  12.640  1.7871  1.4038 -0.9075
12558TIP3   OH259164   3.770   4.535   2.219 -0.3131 -0.5145  0.4957
12558TIP3    H159165   3.690   4.535   2.272 -0.9792  0.3499 -0.4632
12558TIP3    H259166   3.815   4.454   2.243 -1.4955 -1.0313  1.0376
12559TIP3   OH259167   2.205   0.917  13.155 -0.6220  0.0640  0.6582
12559TIP3    H159168   2.241   0.994  13.112  0.3796  0.2011  1.7084
12559TIP3    H259169   2.278   0.855  13.160 -0.9156 -0.2322  1.4793
12560TIP3   OH259170   2.901   0.277  13.380  0.7375  0.3350  0.4544
12560TIP3    H159171   2.984   0.265  13.335 -0.0230 -0.5913 -0.7838
12560TIP3    H259172   2.897   0.371  13.400  0.9469  0.8959 -1.8396
12561TIP3   OH259173   2.840   4.328   6.702 -0.3452  0.3436 -0.6562
12561TIP3    H159174   2.899   4.311   6.628  0.6943  1.9224 -0.2370
12561TIP3    H259175   2.755   4.345   6.663  0.6629  3.4997 -1.7630
12562TIP3   OH259176   1.568   5.129  13.080  0.3760  0.1010  0.2106
12562TIP3    H159177   1.640   5.066  13.075  2.4870  2.4068 -0.7207
12562TIP3    H259178   1.611   5.215  13.073 -2.5472  1.5796 -1.4660
12563TIP3   OH259179   1.420   6.399   3.584 -0.4351 -0.5136  0.2778
12563TIP3    H159180   1.451   6.463   3.648  0.4126 -0.0511 -0.5888
12563TIP3    H259181   1.357   6.447   3.530  0.1753 -0.4040 -0.3505
12564TIP3   OH259182   5.668   2.382   3.614  0.3708  0.0473 -0.7256
12564TIP3    H159183   5.688   2.454   3.674  0.7812 -0.7569  0.1219
12564TIP3    H259184   5.746   2.327   3.616  0.3934  0.0227 -2.0303
12565TIP3   OH259185   6.611   4.701  11.148  0.1201 -0.0233 -0.0436
12565TIP3    H159186   6.650   4.616  11.128  0.0901 -0.0820  0.1522
12565TIP3    H259187   6.526   4.681  11.186 -0.7257  0.1171 -1.7547
12566TIP3   OH259188   6.260   3.976   3.428 -0.1203 -0.5392 -1.0695
12566TIP3    H159189   6.172   4.004   3.403 -1.6190 -2.7188  1.3011
12566TIP3    H259190   6.276   3.898   3.374 -0.1191 -0.7583 -0.7587
12567TIP3   OH259191   4.282   4.710  14.559  0.1411 -0.3155 -0.3469
12567TIP3    H159192   4.203   4.672  14.598  0.3736  0.5892  1.0769
12567TIP3    H259193   4.252   4.793  14.521  0.5031  0.3978  0.8581
12568TIP3   OH259194   0.528   1.382  15.477  0.0984 -0.5731 -0.1065
12568TIP3    H159195   0.469   1.314  15.508  1.7075 -0.9301  2.3918
12568TIP3    H259196   0.614   1.341  15.476  1.2627  1.5527  2.3082
12569TIP3   OH259197   6.717   1.574  16.260  0.6730 -0.0464 -0.2710
12569TIP3    H159198   6.762   1.585  16.176 -0.3408 -1.0081 -0.9676
12569TIP3    H259199   6.738   1.485  16.287 -0.2584 -0.2828 -0.2825
12570TIP3   OH259200   2.065   2.983  17.114 -0.1485  0.3507  0.5881
12570TIP3    H159201   2.079   2.903  17.166  0.1399  1.5880  2.5266
12570TIP3    H259202   2.078   3.054  17.177  0.6071  1.9670 -1.3189
12571TIP3   OH259203   1.633   3.570   6.241 -1.0852 -0.3230  0.3746
12571TIP3    H159204   1.566   3.510   6.208  0.2798 -2.0268  0.5883
12571TIP3    H259205   1.702   3.569   6.174 -0.2280 -0.4339  1.2369
12572TIP3   OH259206   1.382   3.871   2.227  0.1867 -0.5749 -0.3747
12572TIP3    H159207   1.304   3.861   2.283 -0.5554  0.6259 -1.1456
12572TIP3    H259208   1.349   3.856   2.138  0.8884 -0.2700 -0.6898
12573TIP3   OH259209   3.152   6.235  12.834 -0.0260 -0.6640  0.5503
12573TIP3    H159210   3.086   6.172  12.863 -0.3692 -0.0412  1.1567
12573TIP3    H259211   3.174   6.285  12.913 -1.2134  1.3031 -0.2837
12574TIP3   OH259212   5.465   3.451  11.192  0.1603 -0.2506 -0.1228
12574TIP3    H159213   5.446   3.532  11.239 -0.0572 -0.6917  0.5604
12574TIP3    H259214   5.450   3.473  11.100  0.5246  0.6021  0.0151
12575TIP3   OH259215   6.459   5.933  11.113 -0.1788  0.6286  0.2082
12575TIP3    H159216   6.524   5.863  11.115 -0.3422  0.5011  1.1097
12575TIP3    H259217   6.376   5.889  11.094  0.0110  0.8191 -1.1902
12576TIP3   OH259218   0.136   4.235   0.852  0.0361  0.2612 -0.9236
12576TIP3    H159219   0.121   4.258   0.761 -0.0939 -0.7513 -1.1707
12576TIP3    H259220   0.069   4.170   0.872  0.8851 -0.5122 -0.5081
12577TIP3   OH259221   2.885   0.808  15.799 -0.0047  0.5296 -0.0981
12577TIP3    H159222   2.980   0.807  15.812 -0.0978 -2.1015  1.0807
12577TIP3    H259223   2.873   0.791  15.706  0.7137 -0.6698  0.0112
12578TIP3   OH259224   2.129   2.686   1.118 -0.2805  0.1537 -0.3292
12578TIP3    H159225   2.225   2.680   1.119 -0.3370 -0.8213 -0.2272
12578TIP3    H259226   2.106   2.680   1.026 -0.2936 -0.5627 -0.2826
12579TIP3   OH259227   5.825   2.499   0.221 -0.2843  0.3548  0.5552
12579TIP3    H159228   5.898   2.518   0.280 -0.6436  3.0297  0.2596
12579TIP3    H259229   5.749   2.541   0.262 -0.9454  0.5934 -0.8430
12580TIP3   OH259230   0.913   2.927   6.224 -0.2341 -0.5178  0.0087
12580TIP3    H159231   0.842   2.948   6.284 -1.2366 -0.9511 -0.9974
12580TIP3    H259232   0.875   2.864   6.162  1.1762 -1.1681 -0.2301
12581TIP3   OH259233   2.083   6.707   2.709 -0.5904  0.1740 -0.1749
12581TIP3    H159234   1.992   6.678   2.698 -0.7398  0.0473  1.2359
12581TIP3    H259235   2.076   6.800   2.733 -0.3484  0.1648 -0.0674
12582TIP3   OH259236   5.027   6.486   6.575 -0.4853  0.5295 -0.8878
12582TIP3    H159237   5.058   6.567   6.534  1.6513  0.7683  1.0036
12582TIP3    H259238   4.947   6.512   6.621 -0.5205  1.2617 -1.3477
12583TIP3   OH259239   1.101   3.575   5.599  0.8560  0.3471 -0.2148
12583TIP3    H159240   1.169   3.609   5.656  3.3613 -1.4240 -1.9568
12583TIP3    H259241   1.119   3.615   5.514  2.7735 -3.5270 -1.8712
12584TIP3   OH259242   4.235   6.009  13.156  0.3548  0.0276 -0.0265
12584TIP3    H159243   4.289   5.930  13.156  1.5285  0.7562  1.5109
12584TIP3    H259244   4.242   6.042  13.246  1.8050  3.0880 -1.0999
12585TIP3   OH259245   2.984   2.034  12.403  0.8960  0.0845 -0.2473
12585TIP3    H159246   3.060   2.071  12.356  0.0160  1.8844 -0.3443
12585TIP3    H259247   2.909   2.060  12.350 -0.0020  0.7271  1.2901
12586TIP3   OH259248   2.454   6.338  11.344  0.3994  0.6703 -0.0526
12586TIP3    H159249   2.531   6.364  11.293 -0.4753  1.5265 -0.9821
12586TIP3    H259250   2.487   6.323  11.432  2.0646 -1.2994 -0.9212
12587TIP3   OH259251   4.913   0.127   3.499 -0.2577 -0.0877  0.2329
12587TIP3    H159252   4.861   0.091   3.427 -1.9201 -1.6296  2.0848
12587TIP3    H259253   4.858   0.195   3.537  0.5856  0.6883  0.0836
12588TIP3   OH259254   4.909   6.058  15.746  0.0400  0.0040 -0.1044
12588TIP3    H159255   4.872   6.072  15.833  0.5930  2.0126 -0.1331
12588TIP3    H259256   4.995   6.101  15.749  0.8034 -1.3646 -1.1500
12589TIP3   OH259257   5.885   5.460  15.951 -0.0117 -0.0914  0.1063
12589TIP3    H159258   5.912   5.399  16.020  1.0028 -0.3591 -0.5126
12589TIP3    H259259   5.965   5.479  15.903 -0.2454  1.9695  0.4533
12590TIP3   OH259260   2.863   5.373   5.928  0.3233  0.4539  0.3678
12590TIP3    H159261   2.784   5.420   5.902  0.4569  0.2267 -0.4939
12590TIP3    H259262   2.839   5.281   5.923  0.6415  0.3838  0.0765
12591TIP3   OH259263   6.384   3.831  11.268  0.3679  0.6866 -0.3148
12591TIP3    H159264   6.435   3.910  11.283  2.3523  0.0156 -2.7685
12591TIP3    H259265   6.349   3.841  11.179 -0.3748 -0.6615 -0.2112
12592TIP3   OH259266   3.983   2.968   2.838 -0.5311  0.4101 -0.0550
12592TIP3    H159267   3.985   2.951   2.932 -1.2574  1.1257  0.1008
12592TIP3    H259268   3.895   2.942   2.810 -1.1505  2.3764 -0.0839
12593TIP3   OH259269   0.857   2.456   3.548  0.1742 -0.1342  0.6945
12593TIP3    H159270   0.814   2.379   3.584 -0.9395  0.5034  0.7580
12593TIP3    H259271   0.807   2.478   3.469  1.5445 -0.4977 -0.3099
12594TIP3   OH259272   0.930   0.227  14.947 -0.1466 -0.1446 -0.5581
12594TIP3    H159273   0.949   0.211  15.039 -0.8856 -1.5257 -0.6147
12594TIP3    H259274   0.839   0.258  14.947 -0.3032 -0.5919 -0.8452
12595TIP3   OH259275   2.796   3.209  16.780 -0.0931 -0.5433  0.2059
12595TIP3    H159276   2.835   3.131  16.741 -0.2352  0.1943 -1.4958
12595TIP3    H259277   2.837   3.282  16.733 -1.0681  0.3565  0.7162
12596TIP3   OH259278   5.633   1.731   1.860  0.6241  0.3309  0.1097
12596TIP3    H159279   5.583   1.662   1.817 -0.7883  1.4834 -0.1815
12596TIP3    H259280   5.719   1.692   1.876 -0.5803 -2.0149  1.3676
12597TIP3   OH259281   2.305   5.443  14.038 -0.4378  0.7722 -0.0214
12597TIP3    H159282   2.390   5.401  14.025 -0.4513  0.2783  1.2885
12597TIP3    H259283   2.242   5.373  14.023 -0.4701  0.3288  1.9327
12598TIP3   OH259284   5.025   0.668  14.835  0.2453 -0.5046 -0.2556
12598TIP3    H159285   4.963   0.631  14.898  0.7295 -0.3478  0.3198
12598TIP3    H259286   5.063   0.743  14.880  0.9973 -0.7111 -0.5348
12599TIP3   OH259287   4.885   4.171   0.015  0.5058  0.1210  0.3353
12599TIP3    H159288   4.905   4.237  -0.051  1.1316 -1.4367 -1.1246
12599TIP3    H259289   4.814   4.119  -0.024  0.2349 -0.2598  1.3090
12600TIP3   OH259290   4.648   6.643  15.830 -0.3871  0.2976 -0.5481
12600TIP3    H159291   4.664   6.552  15.855 -0.0253 -0.2387 -2.5441
12600TIP3    H259292   4.560   6.662  15.862 -0.2053 -0.5245  0.4790
12601TIP3   OH259293   2.993   0.933  13.259 -0.1410 -0.7745  0.7027
12601TIP3    H159294   2.914   0.880  13.270  0.5391 -1.9379  0.2430
12601TIP3    H259295   3.053   0.902  13.327 -0.0320  0.0179  0.9796
12602TIP3   OH259296   2.413   6.071   1.202 -1.0967 -0.9593  0.1617
12602TIP3    H159297   2.505   6.059   1.180 -0.9484  0.9616 -0.4392
12602TIP3    H259298   2.406   6.042   1.293  0.3450 -0.2306  0.5411
12603TIP3   OH259299   6.268   4.856  14.994 -0.2113  0.2997  0.2054
12603TIP3    H159300   6.279   4.951  14.985  1.4717  0.0507 -0.6894
12603TIP3    H259301   6.348   4.826  15.035  0.3793 -1.0171 -1.7469
12604TIP3   OH259302   0.376   0.100  11.957  0.3679  0.2574  0.0221
12604TIP3    H159303   0.379   0.007  11.975  0.3540  0.3149  0.3176
12604TIP3    H259304   0.283   0.119  11.941  0.6989 -0.5300 -4.0049
12605TIP3   OH259305   6.091   3.776   2.239  0.3025  0.4928 -0.0752
12605TIP3    H159306   6.120   3.794   2.329  0.7629 -1.1225  0.1270
12605TIP3    H259307   6.018   3.716   2.249  0.9264 -0.4164 -0.7968
12606TIP3   OH259308   0.233   6.135   4.163 -0.0895  0.3423 -0.0682
12606TIP3    H159309   0.154   6.088   4.135 -0.4345  0.6947  0.3105
12606TIP3    H259310   0.207   6.227   4.164 -0.0028  0.3604  1.1310
12607TIP3   OH259311   0.244   5.235   1.618 -0.2904 -0.1457  0.2946
12607TIP3    H159312   0.294   5.317   1.618 -0.2043 -0.1959  0.0651
12607TIP3    H259313   0.310   5.167   1.629 -0.2842 -0.2240 -0.1878
12608TIP3   OH259314   6.273   5.682  14.549 -0.1714  0.6768 -0.1731
12608TIP3    H159315   6.363   5.675  14.582 -0.5705 -1.2194  0.6303
12608TIP3    H259316   6.284   5.706  14.457  1.3012 -1.3903 -0.6362
12609TIP3   OH259317   1.767   6.083  15.661 -0.1948  0.2192  0.0799
12609TIP3    H159318   1.758   6.140  15.585 -0.8270 -0.0046 -0.0234
12609TIP3    H259319   1.853   6.103  15.696 -0.7475  1.8960  0.5805
12610TIP3   OH259320   1.685   1.235  11.956 -0.4082 -0.1158  0.1804
12610TIP3    H159321   1.739   1.200  11.885 -1.7537  0.0066 -0.9335
12610TIP3    H259322   1.732   1.313  11.986  0.4715 -0.5023 -0.1567
12611TIP3   OH259323   6.080   4.427   2.982 -0.0281  0.1914  0.4018
12611TIP3    H159324   6.057   4.463   3.068 -0.2471 -1.6128  1.1460
12611TIP3    H259325   6.045   4.338   2.983  0.2050  0.0318 -1.4730
12612TIP3   OH259326   5.723   4.452   4.352  0.0414 -0.5223 -0.4335
12612TIP3    H159327   5.725   4.541   4.317 -0.6529 -0.4298 -0.2526
12612TIP3    H259328   5.735   4.463   4.446  3.2477 -0.8584 -0.6979
12613TIP3   OH259329   3.213   2.529   5.997 -0.2672 -0.4418 -0.0377
12613TIP3    H159330   3.159   2.553   5.922  0.3090  0.6758 -0.1158
12613TIP3    H259331   3.167   2.456   6.037 -0.4939 -1.2063 -1.5896
12614TIP3   OH259332   4.605   4.636   3.433  0.6496 -0.4347 -0.0783
12614TIP3    H159333   4.661   4.559   3.422  1.2640  0.1609 -1.4697
12614TIP3    H259334   4.639   4.699   3.368 -1.5759 -0.0220 -0.9349
12615TIP3   OH259335   0.837   2.951   1.268 -0.6499 -0.7129 -0.1509
12615TIP3    H159336   0.863   3.034   1.230 -0.8364 -1.1982 -1.3831
12615TIP3    H259337   0.919   2.904   1.283 -0.4926 -0.0606  1.2032
12616TIP3   OH259338   0.059   5.821   0.851  0.1146  0.1232 -0.1563
12616TIP3    H159339   0.068   5.778   0.766  0.2333  0.8566 -0.5250
12616TIP3    H259340   0.108   5.766   0.911  0.4280 -0.1498 -0.6513
12617TIP3   OH259341   4.183   4.407   3.611  0.0870  0.2541  0.1352
12617TIP3    H159342   4.150   4.440   3.695  0.9318 -0.3174  0.7120
12617TIP3    H259343   4.275   4.385   3.629 -0.2510 -1.7772 -0.3675
12618TIP3   OH259344   4.910   4.448   2.004  0.7694 -0.6428  0.6814
12618TIP3    H159345   4.918   4.353   2.010 -1.3676 -0.9861 -0.9193
12618TIP3    H259346   4.908   4.466   1.910  3.1184  1.2337  0.8885
12619TIP3   OH259347   5.877   4.434  12.814  0.3611  0.4891  0.3602
12619TIP3    H159348   5.803   4.452  12.756 -0.9704  0.5705  2.0170
12619TIP3    H259349   5.926   4.365  12.769  0.5418  1.9229 -1.8120
12620TIP3   OH259350   3.989   6.393  13.251  0.1791 -0.1408 -0.2613
12620TIP3    H159351   3.997   6.358  13.162  0.6283  1.3832 -0.8661
12620TIP3    H259352   3.961   6.319  13.304 -0.5439 -0.9817 -1.7577
12621TIP3   OH259353   5.220   2.776  12.130 -0.2641 -0.1567 -0.3398
12621TIP3    H159354   5.125   2.778  12.142 -0.3283  0.0446 -0.8808
12621TIP3    H259355   5.233   2.739  12.043  0.1506 -0.1694 -0.2731
12622TIP3   OH259356   0.772   4.687   1.043  0.5694 -0.2144 -0.2211
12622TIP3    H159357   0.678   4.669   1.038  0.3735  0.9802 -3.2295
12622TIP3    H259358   0.777   4.767   1.096  0.0357 -0.8469  0.8281
12623TIP3   OH259359   3.114   0.517   6.316 -0.0618  0.4735  0.2030
12623TIP3    H159360   3.116   0.601   6.362  0.5647  0.2737  0.5544
12623TIP3    H259361   3.023   0.488   6.323 -0.3036  1.1666 -0.0061
12624TIP3   OH259362   0.165   0.521  14.157  0.3047 -0.1194 -0.2538
12624TIP3    H159363   0.190   0.601  14.203  0.1699  1.9074 -3.4040
12624TIP3    H259364   0.247   0.472  14.147  0.7321  0.5175  0.0839
12625TIP3   OH259365   0.758   0.930  17.029  0.8410  0.2879  0.2262
12625TIP3    H159366   0.668   0.962  17.045 -0.1071 -2.3718  0.6843
12625TIP3    H259367   0.749   0.835  17.024  3.3149  0.0747 -2.1936
12626TIP3   OH259368   4.261   5.510  16.278  0.4389 -0.4046 -0.4551
12626TIP3    H159369   4.285   5.603  16.275 -0.9845  0.2404  2.9635
12626TIP3    H259370   4.179   5.506  16.228  0.0418  0.3883  0.0994
12627TIP3   OH259371   2.734   5.757   1.684  0.3687 -0.1380 -0.1010
12627TIP3    H159372   2.827   5.745   1.665  0.3134 -0.1060 -0.3952
12627TIP3    H259373   2.711   5.683   1.741  1.4215  1.6947  2.9694
12628TIP3   OH259374   4.503   5.930  17.366 -0.4771  0.3956  0.1897
12628TIP3    H159375   4.566   5.993  17.332 -0.8109  0.7755  0.2660
12628TIP3    H259376   4.556   5.855  17.393 -0.2144  0.0099 -1.2917
12629TIP3   OH259377   3.930   4.974  12.239 -0.2549 -0.3229  0.2767
12629TIP3    H159378   3.847   5.022  12.238 -0.9881 -1.5451  0.6454
12629TIP3    H259379   3.985   5.025  12.299 -0.4626  0.9073 -0.5257
12630TIP3   OH259380   6.166   1.164  13.400  0.4138 -0.2946  0.0035
12630TIP3    H159381   6.261   1.174  13.399  0.5196 -1.1281  0.7748
12630TIP3    H259382   6.150   1.091  13.460 -0.6385 -0.9214 -0.9981
12631TIP3   OH259383   4.966   3.328   3.813 -0.7167 -0.0771 -0.3712
12631TIP3    H159384   4.919   3.411   3.807  0.6281  0.6781 -1.0397
12631TIP3    H259385   5.055   3.349   3.783  0.7519 -0.9196  2.9729
12632TIP3   OH259386   3.229   6.362  13.532 -0.4699 -0.3960 -0.0481
12632TIP3    H159387   3.289   6.290  13.551 -0.6842 -0.6994 -0.5254
12632TIP3    H259388   3.148   6.338  13.577 -0.7518 -0.7756 -0.7419
12633TIP3   OH259389   3.677   5.152  15.432  0.2872 -0.2916  0.3447
12633TIP3    H159390   3.623   5.227  15.457  1.0719  0.6170 -0.5789
12633TIP3    H259391   3.615   5.088  15.397 -0.2580  0.5211 -0.2127
12634TIP3   OH259392   0.664   3.919  11.428 -0.1342 -0.3382  0.2642
12634TIP3    H159393   0.603   3.969  11.483 -0.1277  0.5881 -0.5449
12634TIP3    H259394   0.660   3.830  11.463 -1.2081 -0.0811  0.8548
12635TIP3   OH259395   4.684   3.868   0.875 -0.1956  0.1367  0.2210
12635TIP3    H159396   4.771   3.829   0.879 -0.8126 -1.2172  1.4436
12635TIP3    H259397   4.634   3.809   0.819 -0.7895 -0.1284  1.0056
12636TIP3   OH259398   3.419   6.265   4.262 -0.1054  0.0655 -0.0461
12636TIP3    H159399   3.431   6.276   4.168  1.8891 -1.7104 -0.0901
12636TIP3    H259400   3.333   6.224   4.271 -1.1644  2.0014 -0.8912
12637TIP3   OH259401   3.210   6.283  13.113 -0.0420 -0.1817  0.1899
12637TIP3    H159402   3.227   6.366  13.158 -0.1391  0.1483 -0.3794
12637TIP3    H259403   3.173   6.226  13.181  1.0557 -0.1297  0.8545
12638TIP3   OH259404   3.539   0.022   2.984  0.4308  0.4375  0.1883
12638TIP3    H159405   3.511  -0.068   2.969 -1.1163  0.8976  0.1672
12638TIP3    H259406   3.530   0.034   3.078  0.3294  0.6571  0.1517
12639TIP3   OH259407   1.924   1.192   3.606 -0.9569  0.1092 -0.1520
12639TIP3    H159408   2.002   1.136   3.597 -0.9852 -0.1317  1.0050
12639TIP3    H259409   1.957   1.281   3.594 -0.6071 -0.0351 -0.2810
12640TIP3   OH259410   1.555   5.730  11.990 -1.2567  0.4104 -0.3829
12640TIP3    H159411   1.569   5.641  11.958  1.4485 -0.8955  3.6113
12640TIP3    H259412   1.473   5.725  12.039  0.5638 -1.1741  2.8713
12641TIP3   OH259413   3.176   1.668  11.277  0.5854 -0.6118  0.9101
12641TIP3    H159414   3.254   1.712  11.310  0.3241 -0.3099  1.1401
12641TIP3    H259415   3.171   1.693  11.185 -0.0255  0.5474  1.2371
12642TIP3   OH259416   2.432   3.514  12.553 -0.3145 -0.2110  0.6020
12642TIP3    H159417   2.515   3.503  12.599 -0.1476 -1.3461  0.0502
12642TIP3    H259418   2.413   3.428  12.514 -1.3840  0.2168  0.1154
12643TIP3   OH259419   2.355   4.388   1.028 -0.1333  0.6611 -0.3131
12643TIP3    H159420   2.406   4.469   1.026  0.0461  0.5738  0.4829
12643TIP3    H259421   2.264   4.417   1.031 -0.1140  0.8199 -1.0561
12644TIP3   OH259422   6.566   6.371  11.558  0.5714 -0.0634 -0.1904
12644TIP3    H159423   6.596   6.393  11.646  0.0282  0.6736 -0.1817
12644TIP3    H259424   6.592   6.446  11.504  2.3023 -1.1743 -0.9999
12645TIP3   OH259425   2.753   6.486   2.141 -0.2679 -0.5022  0.1120
12645TIP3    H159426   2.764   6.455   2.051  0.8711 -0.2756  0.1652
12645TIP3    H259427   2.765   6.580   2.135 -1.8180 -0.2640  0.2608
12646TIP3   OH259428   0.107   4.351  13.127 -0.6504  0.6823 -0.6462
12646TIP3    H159429   0.048   4.279  13.103 -0.2383  0.4291 -0.9102
12646TIP3    H259430   0.049   4.423  13.152 -1.1130 -0.4738  1.9278
12647TIP3   OH259431   3.645   6.531  12.171 -0.0075 -0.4844  0.4186
12647TIP3    H159432   3.575   6.474  12.205  0.2985 -0.4978  1.0340
12647TIP3    H259433   3.719   6.473  12.159  0.9846  0.0790  3.0280
12648TIP3   OH259434   4.904   4.927   0.096  0.5611 -0.8995  0.6134
12648TIP3    H159435   4.956   4.974   0.030 -0.2223 -1.2751 -0.3070
12648TIP3    H259436   4.883   4.843   0.054 -0.8191 -0.7391  0.9350
12649TIP3   OH259437   1.535   3.827  13.494  0.2480  0.0096  0.2588
12649TIP3    H159438   1.512   3.890  13.562 -0.3277 -0.3732  0.4336
12649TIP3    H259439   1.469   3.840  13.426  0.2650 -0.2371  0.1925
12650TIP3   OH259440   5.642   6.202  14.350  0.3890 -0.1007  0.2437
12650TIP3    H159441   5.587   6.123  14.352  1.7497 -1.0970  0.2970
12650TIP3    H259442   5.660   6.215  14.257 -1.2896  1.2436  0.0715
12651TIP3   OH259443   0.297   5.406  14.893 -0.5012 -0.1832  0.8271
12651TIP3    H159444   0.333   5.382  14.808  2.9900  1.1215  1.7572
12651TIP3    H259445   0.216   5.453  14.872  0.4109  0.4015 -1.7956
12652TIP3   OH259446   5.784   5.273   4.641  0.0814  0.2539  0.3205
12652TIP3    H159447   5.728   5.268   4.719  1.3709  4.3034  1.7647
12652TIP3    H259448   5.737   5.333   4.583 -0.9476 -2.8518 -2.3039
12653TIP3   OH259449   0.963   5.289  15.567  0.0338 -0.6623 -0.2377
12653TIP3    H159450   0.890   5.241  15.530  1.0886 -1.7789 -0.9491
12653TIP3    H259451   1.017   5.223  15.610 -0.0801  0.3230  1.5326
12654TIP3   OH259452   5.787   0.326  12.882 -0.2653  0.1175  0.4421
12654TIP3    H159453   5.726   0.297  12.949 -0.7092  0.1878  0.0740
12654TIP3    H259454   5.751   0.409  12.850  0.9228  1.0343  1.3863
12655TIP3   OH259455   6.619   3.607   0.466 -0.3955 -0.0061 -0.1490
12655TIP3    H159456   6.627   3.546   0.392 -0.0933 -0.8311  0.5494
12655TIP3    H259457   6.570   3.559   0.532  0.1985  0.3598  0.5722
12656TIP3   OH259458   6.452   5.038   1.045  0.2413 -0.0375  0.0206
12656TIP3    H159459   6.515   5.083   0.989 -0.5946  0.7801 -0.2872
12656TIP3    H259460   6.417   4.968   0.990  1.2734 -0.8624  0.3786
12657TIP3   OH259461   2.703   2.584   6.232  0.0267  0.0790  0.1756
12657TIP3    H159462   2.771   2.602   6.167 -0.5065 -0.0144 -0.4272
12657TIP3    H259463   2.667   2.670   6.252 -0.5898  0.0012 -0.5420
12658TIP3   OH259464   2.495   0.255   4.424 -0.5157 -0.5125 -0.4766
12658TIP3    H159465   2.498   0.231   4.331  0.3468 -0.2001 -0.5416
12658TIP3    H259466   2.535   0.180   4.469  3.6854  1.2769 -0.8150
12659TIP3   OH259467   3.673   4.943   2.271 -0.3098  0.2875  0.4608
12659TIP3    H159468   3.692   5.014   2.332 -2.4172  1.3803 -0.0606
12659TIP3    H259469   3.655   4.986   2.188 -0.9419 -0.8925 -0.0396
12660TIP3   OH259470   5.890   3.684   0.154 -0.0194  0.2238 -0.1128
12660TIP3    H159471   5.949   3.759   0.146  1.4325 -0.9957 -1.3209
12660TIP3    H259472   5.929   3.616   0.099 -1.7527 -1.1514  0.2597
12661TIP3   OH259473   0.620   6.328  12.947 -0.2704 -0.4407 -0.3430
12661TIP3    H159474   0.648   6.241  12.919 -1.2140 -0.5756 -0.8775
12661TIP3    H259475   0.690   6.357  13.006  0.1705 -1.4559 -0.3439
12662TIP3   OH259476   0.653   4.773  15.861 -0.0120  0.1223  0.1519
12662TIP3    H159477   0.741   4.738  15.877 -0.2340 -0.8206 -0.6280
12662TIP3    H259478   0.640   4.762  15.767 -2.0235 -2.3261  0.6237
12663TIP3   OH259479   5.267   3.003  12.281 -0.7263 -0.4371  0.2154
12663TIP3    H159480   5.250   2.942  12.210  0.1275 -0.3110 -0.1231
12663TIP3    H259481   5.342   3.054  12.250 -0.7680  0.0734  0.9284
12664TIP3   OH259482   6.110   6.029  15.873 -0.4166 -0.0273  0.3494
12664TIP3    H159483   6.166   5.981  15.811  0.2094 -3.2605  3.1278
12664TIP3    H259484   6.040   6.064  15.818  1.6367 -0.0347 -2.5718
12665TIP3   OH259485   5.258   4.656  15.410 -0.3481  0.4091  0.1672
12665TIP3    H159486   5.169   4.628  15.433 -0.0535 -0.3323  0.4455
12665TIP3    H259487   5.250   4.690  15.321 -0.5354 -1.7113 -0.7022
12666TIP3   OH259488   1.858   2.524  16.219  0.2877 -0.3699 -0.2734
12666TIP3    H159489   1.801   2.449  16.199  1.4648 -1.2778 -0.3941
12666TIP3    H259490   1.946   2.492  16.198  0.8296  1.0245 -0.1983
12667TIP3   OH259491   6.479   2.714  15.087 -0.3592 -0.1467 -0.1354
12667TIP3    H159492   6.568   2.735  15.058 -0.3367  1.2751  0.8423
12667TIP3    H259493   6.423   2.742  15.015 -0.0668 -0.2330 -0.3989
12668TIP3   OH259494   2.862   4.045   5.154 -0.0048  0.4240  0.3599
12668TIP3    H159495   2.834   3.957   5.130  2.1125 -0.3665  0.6666
12668TIP3    H259496   2.789   4.079   5.206 -1.0719 -0.9351 -0.1728
12669TIP3   OH259497   3.816   3.548   5.171  0.3098 -0.3045 -0.1247
12669TIP3    H159498   3.742   3.538   5.231  0.7010 -1.2749  0.2175
12669TIP3    H259499   3.869   3.617   5.209  0.8944 -1.3599  1.0254
12670TIP3   OH259500   5.493   3.844   5.169  0.5531  0.4441  1.2333
12670TIP3    H159501   5.538   3.821   5.088  0.4988  1.7162  0.8211
12670TIP3    H259502   5.481   3.939   5.165 -0.8117  0.3490  2.0289
12671TIP3   OH259503   0.583   3.901   3.758 -0.5628 -0.1335 -0.0375
12671TIP3    H159504   0.573   3.959   3.682 -2.0564 -1.8156 -1.2150
12671TIP3    H259505   0.609   3.817   3.721 -0.0856 -0.6733  1.4580
12672TIP3   OH259506   3.821   3.240   3.524 -1.3358 -1.3369 -0.3397
12672TIP3    H159507   3.765   3.197   3.588 -2.0422 -0.5458 -0.4057
12672TIP3    H259508   3.909   3.206   3.542 -0.8213  1.3687  3.3794
12673TIP3   OH259509   4.668   3.561  14.214 -0.0112  0.4644 -0.8546
12673TIP3    H159510   4.578   3.529  14.206  0.2770 -0.3882 -0.8489
12673TIP3    H259511   4.674   3.634  14.153 -0.0678 -0.9275 -2.6106
12674TIP3   OH259512   4.680   1.945  16.005 -0.3063 -0.1791 -0.1805
12674TIP3    H159513   4.688   1.852  15.985  3.9346  0.0465 -0.5575
12674TIP3    H259514   4.652   1.948  16.096  3.4438 -2.1458  1.2632
12675TIP3   OH259515   4.285   1.403  13.402 -0.7854 -0.2664  0.0934
12675TIP3    H159516   4.280   1.401  13.307  0.2256 -0.0531  0.0291
12675TIP3    H259517   4.193   1.398  13.431 -1.3470  2.4683 -0.9199
12676TIP3   OH259518   1.519   6.351   1.874 -0.4420 -0.3201  0.5024
12676TIP3    H159519   1.605   6.308   1.870  0.0408  0.4490  2.0108
12676TIP3    H259520   1.527   6.426   1.814  0.0009 -0.1544  0.7649
12677TIP3   OH259521   1.128   6.448   5.333 -0.3050  0.0844  0.2106
12677TIP3    H159522   1.204   6.405   5.372 -1.6679  0.7144  4.0148
12677TIP3    H259523   1.145   6.541   5.343 -0.0705  0.3776 -2.3122
12678TIP3   OH259524   1.731   1.565   2.980 -0.1560  0.4520 -0.2567
12678TIP3    H159525   1.760   1.478   2.954  0.4363  0.7014 -0.4486
12678TIP3    H259526   1.637   1.565   2.962 -0.0341  0.0967 -0.9384
12679TIP3   OH259527   4.948   5.483   4.963  0.1597  0.3467 -0.2571
12679TIP3    H159528   4.857   5.489   4.934 -0.9742 -1.1011  2.5849
12679TIP3    H259529   4.963   5.389   4.978  1.9882  0.5979 -0.1976
12680TIP3   OH259530   5.358   0.583  16.067 -0.0034  0.0782 -0.1130
12680TIP3    H159531   5.422   0.625  16.124 -0.8197  0.9880  0.1633
12680TIP3    H259532   5.303   0.530  16.126  0.9119 -1.2954 -0.4361
12681TIP3   OH259533   2.614   5.527  16.743 -0.5881 -1.0504  0.3618
12681TIP3    H159534   2.636   5.571  16.825  2.5164 -1.1812 -0.2825
12681TIP3    H259535   2.667   5.448  16.743 -0.0940 -0.8039 -1.9676
12682TIP3   OH259536   2.309   4.062   2.940  0.1241 -0.1026 -0.0318
12682TIP3    H159537   2.350   4.148   2.939  1.3945 -0.6497  1.1155
12682TIP3    H259538   2.215   4.080   2.928  0.3674  1.4154  0.0940
12683TIP3   OH259539   0.518   6.408   4.511  0.1280  0.2204  0.2418
12683TIP3    H159540   0.547   6.497   4.490  0.2457 -0.0054 -0.5916
12683TIP3    H259541   0.517   6.363   4.427 -0.2217 -0.4871  0.6167
12684TIP3   OH259542   3.895   4.486  16.199  0.0305  0.2020 -0.5893
12684TIP3    H159543   3.825   4.525  16.251  2.1155  2.2996  0.7903
12684TIP3    H259544   3.913   4.550  16.131  0.9747 -0.0799 -0.6099
12685TIP3   OH259545   2.812   0.785   3.247  0.2311  0.3158 -0.3288
12685TIP3    H159546   2.852   0.754   3.328  0.2179  0.0882 -0.4061
12685TIP3    H259547   2.754   0.856   3.274  0.1277  0.1545 -0.1207
12686TIP3   OH259548   3.035   0.990   3.582 -0.1370 -0.0310 -0.3955
12686TIP3    H159549   3.036   0.968   3.489  0.7348 -1.7506 -0.0013
12686TIP3    H259550   2.950   0.959   3.613 -0.1065 -0.1789 -0.4585
12687TIP3   OH259551   6.231   6.499  11.237  0.2987 -0.2223  0.3760
12687TIP3    H159552   6.194   6.519  11.323 -1.0619  0.9835 -0.4333
12687TIP3    H259553   6.197   6.568  11.180 -0.4835 -2.0744 -1.5432
12688TIP3   OH259554   3.586   6.271   1.824 -0.1471  0.3052 -0.0462
12688TIP3    H159555   3.492   6.271   1.804 -0.2136  2.5062 -0.0553
12688TIP3    H259556   3.627   6.234   1.745 -0.9706 -0.2930 -0.2094
12689TIP3   OH259557   2.160   1.581   0.990  0.3545  0.3816  0.2250
12689TIP3    H159558   2.240   1.580   0.937  1.0469 -0.7434  1.2405
12689TIP3    H259559   2.090   1.563   0.927  0.8242  1.6511 -0.7310
12690TIP3   OH259560   1.554   5.575  11.022 -0.0911  0.5762  0.3272
12690TIP3    H159561   1.596   5.499  11.063  1.5822  0.8816 -0.7168
12690TIP3    H259562   1.541   5.548  10.931  0.3822  1.4628 -0.0137
12691TIP3   OH259563   6.164   1.532  14.586 -0.0229 -0.1902  0.7392
12691TIP3    H159564   6.151   1.458  14.645 -0.5703  0.0812  0.9559
12691TIP3    H259565   6.159   1.609  14.641 -2.2039  0.1664  0.1116
12692TIP3   OH259566   0.397   6.646   6.149 -0.3104 -0.1481 -0.1905
12692TIP3    H159567   0.331   6.584   6.119 -1.4615  0.9353 -0.0178
12692TIP3    H259568   0.461   6.648   6.078 -0.0300 -1.8020 -0.0185
12693TIP3   OH259569   2.480   6.542   0.773 -0.4366 -0.1271 -0.2370
12693TIP3    H159570   2.536   6.617   0.794 -0.7571  0.2308 -0.6507
12693TIP3    H259571   2.513   6.510   0.689 -0.7882  0.0211 -0.4322
12694TIP3   OH259572   0.563   3.588   0.446  0.1028  0.8748 -0.0071
12694TIP3    H159573   0.560   3.682   0.428  2.2794  1.2949  1.4611
12694TIP3    H259574   0.640   3.557   0.399  1.0248  0.4155  1.7227
12695TIP3   OH259575   3.708   1.613  15.320  0.3901  0.4993 -0.3026
12695TIP3    H159576   3.674   1.602  15.231  1.3179  1.2092 -0.7749
12695TIP3    H259577   3.802   1.624  15.308  0.2691  3.2531  0.4920
12696TIP3   OH259578   3.847   4.995   4.193 -0.2846  0.1929  0.2687
12696TIP3    H159579   3.929   4.953   4.168 -1.0993 -0.9028 -0.6896
12696TIP3    H259580   3.867   5.089   4.194  0.8454 -0.0274 -0.4459
12697TIP3   OH259581   6.267   3.099  15.726 -0.2669  0.2602  0.0663
12697TIP3    H159582   6.288   3.078  15.635  0.2417  0.2656  0.1791
12697TIP3    H259583   6.279   3.194  15.732  0.8775  0.1064  0.4317
12698TIP3   OH259584   1.824   3.366  15.484  0.2414 -0.0247 -0.1659
12698TIP3    H159585   1.824   3.305  15.410  1.7069 -1.0703  0.6404
12698TIP3    H259586   1.761   3.328  15.546  0.8512 -0.4997  0.1639
12699TIP3   OH259587   6.390   6.661  12.549 -0.1460 -0.0460 -0.2732
12699TIP3    H159588   6.428   6.733  12.499  2.2069 -0.7153  0.4198
12699TIP3    H259589   6.313   6.699  12.590  1.3168  2.2788  0.5237
12700TIP3   OH259590   4.325   4.770   3.502 -0.5290  0.2925  0.1138
12700TIP3    H159591   4.286   4.685   3.486 -1.2188  0.6961 -0.4097
12700TIP3    H259592   4.351   4.801   3.416 -1.1730  1.0230  0.1690
12701TIP3   OH259593   3.756   5.782  11.506 -0.1045  0.6360 -0.1244
12701TIP3    H159594   3.850   5.788  11.487 -0.4391  1.7688 -1.6022
12701TIP3    H259595   3.722   5.869  11.485 -1.4886  0.2726  0.4893
12702TIP3   OH259596   4.334   3.146  13.908  0.1687 -0.6282  0.7411
12702TIP3    H159597   4.343   3.223  13.852  0.2492 -1.0944  0.0915
12702TIP3    H259598   4.268   3.171  13.973 -0.4577 -0.3046  0.0045
12703TIP3   OH259599   3.892   3.379  11.923 -0.7552 -0.2202 -0.8331
12703TIP3    H159600   3.946   3.451  11.889 -0.7785  0.2456  0.0826
12703TIP3    H259601   3.916   3.304  11.869  0.5282  0.0711 -0.7066
12704TIP3   OH259602   5.181   5.329  16.434  0.1049  0.5987 -0.4107
12704TIP3    H159603   5.189   5.248  16.485 -0.0940  0.3311 -0.8056
12704TIP3    H259604   5.270   5.365  16.431  0.2463  0.2380 -0.4996
12705TIP3   OH259605   1.650   5.147  14.611 -0.1029 -0.0940 -0.6325
12705TIP3    H159606   1.656   5.109  14.523 -2.1831 -2.1818  0.0009
12705TIP3    H259607   1.624   5.238  14.597 -3.0821 -1.0443 -2.2609
12706TIP3   OH259608   5.496   2.829   5.086  0.3014  0.3896 -0.3945
12706TIP3    H159609   5.538   2.910   5.058  0.8274  0.3951  0.3944
12706TIP3    H259610   5.463   2.848   5.174  0.6930 -0.3438 -0.0792
12707TIP3   OH259611   2.212   3.947   5.235  0.3116 -0.5436 -0.4438
12707TIP3    H159612   2.147   3.992   5.180  0.5808 -0.0198 -0.3326
12707TIP3    H259613   2.240   4.013   5.299  2.2527 -0.1953 -1.5736
12708TIP3   OH259614   2.010   2.813   5.343  0.6121  0.4352  0.0538
12708TIP3    H159615   1.991   2.743   5.405  0.1802  0.8227  0.3615
12708TIP3    H259616   1.944   2.803   5.275  0.8777  0.2191 -0.1762
12709TIP3   OH259617   5.650   4.276  11.703 -0.1780  0.4268  0.3670
12709TIP3    H159618   5.719   4.257  11.640 -1.8668 -0.1468 -1.3857
12709TIP3    H259619   5.673   4.224  11.780  1.3224  0.2696 -0.1497
12710TIP3   OH259620   3.207   0.997   2.960 -0.0629  0.9025 -0.2705
12710TIP3    H159621   3.116   0.984   2.936  0.5793  1.8546 -3.7570
12710TIP3    H259622   3.219   1.092   2.959  1.4436  0.7613 -2.3884
12711TIP3   OH259623   6.439   4.148  14.829  0.3089 -0.0815  0.0531
12711TIP3    H159624   6.431   4.060  14.794  0.0057 -0.1839  0.3741
12711TIP3    H259625   6.520   4.182  14.792  0.4841 -0.5369  0.0198
12712TIP3   OH259626   0.848   6.602  12.099  0.1262 -0.3082 -0.2118
12712TIP3    H159627   0.773   6.575  12.046 -0.5343  0.9424  0.0506
12712TIP3    H259628   0.924   6.591  12.041 -0.6971  2.2701 -1.9437
12713TIP3   OH259629   4.997   5.431  13.861 -0.4265 -0.4247  0.6546
12713TIP3    H159630   4.957   5.487  13.794  2.3831 -0.0962 -0.8890
12713TIP3    H259631   4.935   5.359  13.872 -2.0620  0.7171 -0.5494
12714TIP3   OH259632   2.244   6.733   0.398  0.3871 -0.0089 -0.1216
12714TIP3    H159633   2.206   6.674   0.333 -0.7677  1.5997 -0.9765
12714TIP3    H259634   2.216   6.698   0.482  0.8135 -1.3948 -0.5438
12715TIP3   OH259635   5.875   0.004  13.824 -0.6076 -0.0205 -0.0284
12715TIP3    H159636   5.925  -0.075  13.843 -2.3370 -0.6506  2.2268
12715TIP3    H259637   5.934   0.076  13.847  0.5335 -0.6170 -0.9511
12716TIP3   OH259638   5.323   6.639   1.486  0.1498 -0.0384  0.7426
12716TIP3    H159639   5.378   6.579   1.536 -3.1930 -1.0066  3.5894
12716TIP3    H259640   5.247   6.587   1.461 -1.6663  2.3273  1.0024
12717TIP3   OH259641   4.322   5.378  11.298 -0.9053 -0.0835  0.2273
12717TIP3    H159642   4.228   5.378  11.317 -1.2795 -0.1666 -1.5062
12717TIP3    H259643   4.332   5.323  11.221  0.9333 -2.1541  1.8016
12718TIP3   OH259644   4.366   4.815   0.931  0.8819  0.1150 -0.4997
12718TIP3    H159645   4.289   4.760   0.944  0.6378  0.4393 -0.5747
12718TIP3    H259646   4.381   4.812   0.836  3.6188 -3.5681 -0.1738
12719TIP3   OH259647   4.615   4.075   2.729 -0.4101 -0.2957 -0.0113
12719TIP3    H159648   4.567   4.157   2.740  0.1788  0.0151  0.2769
12719TIP3    H259649   4.681   4.094   2.663 -0.1092 -0.4643  0.2407
12720TIP3   OH259650   4.416   5.261   4.136  0.3659 -0.5314  0.5398
12720TIP3    H159651   4.401   5.345   4.091 -0.5380 -0.2183  1.4166
12720TIP3    H259652   4.481   5.282   4.203  2.4947 -1.2098 -1.1777
12721TIP3   OH259653   2.014   3.244  13.921 -0.4038  0.0072  0.0806
12721TIP3    H159654   2.017   3.250  14.017  0.9846  1.1283  0.0022
12721TIP3    H259655   1.958   3.316  13.894 -2.7693 -1.7152  0.0993
12722TIP3   OH259656   6.703   0.438  10.772 -0.4319 -0.0788  0.7396
12722TIP3    H159657   6.742   0.415  10.688 -0.1083  1.1238  0.5415
12722TIP3    H259658   6.722   0.532  10.782 -3.2666  0.6008  0.6065
12723TIP3   OH259659   3.205   4.357  14.785  0.2066  0.0941  0.5066
12723TIP3    H159660   3.187   4.298  14.859 -3.6320  0.2895 -0.0775
12723TIP3    H259661   3.198   4.444  14.823 -0.3654  0.1775  0.2256
12724TIP3   OH259662   4.317   1.592  10.843 -0.0007  0.0227  0.0462
12724TIP3    H159663   4.342   1.514  10.794 -0.2536  0.2956 -0.5270
12724TIP3    H259664   4.255   1.560  10.909 -1.6447  0.0022 -1.4376
12725TIP3   OH259665   5.237   5.248   5.845 -0.1692  0.1867  0.4244
12725TIP3    H159666   5.252   5.329   5.893 -1.3906  1.1618 -0.7595
12725TIP3    H259667   5.144   5.229   5.859  0.3318 -1.6784  1.6318
12726TIP3   OH259668   0.743   6.601   5.312  0.0698 -0.0741  1.1667
12726TIP3    H159669   0.656   6.597   5.353 -0.0724  0.8814  0.9820
12726TIP3    H259670   0.798   6.647   5.376  0.1857  0.2128  0.8645
12727TIP3   OH259671   1.092   0.671  13.326  0.1471 -0.1393 -0.2262
12727TIP3    H159672   1.037   0.593  13.316  0.1157  0.1255 -2.8394
12727TIP3    H259673   1.171   0.639  13.370 -1.3698 -0.8121  2.2384
12728TIP3   OH259674   3.291   4.372   2.414  0.2569  0.0119  0.0628
12728TIP3    H159675   3.202   4.356   2.445 -0.6561  0.2483 -2.2540
12728TIP3    H259676   3.338   4.291   2.433 -0.9910 -0.8572 -0.4748
12729TIP3   OH259677   4.463   5.542   5.511  0.3160  0.2991  0.0981
12729TIP3    H159678   4.392   5.480   5.528  2.2464 -1.9906  0.4280
12729TIP3    H259679   4.497   5.563   5.598  0.8328  0.3530 -0.1126
12730TIP3   OH259680   5.263   0.200  11.280  0.1621  0.4737 -0.2755
12730TIP3    H159681   5.183   0.185  11.228  1.7500  0.1105 -2.7845
12730TIP3    H259682   5.318   0.124  11.261  1.8341  1.5824 -0.0405
12731TIP3   OH259683   1.449   1.607  12.244 -0.0983  0.0049 -0.0178
12731TIP3    H159684   1.369   1.648  12.276  0.8951  1.5701  0.5889
12731TIP3    H259685   1.520   1.655  12.287  1.2316  0.1821 -2.2169
12732TIP3   OH259686   5.484   4.375   2.481  0.1543 -0.3225 -0.4542
12732TIP3    H159687   5.493   4.371   2.385  0.7086 -1.4615 -0.3697
12732TIP3    H259688   5.469   4.468   2.499  0.7834  0.0263 -1.5829
12733TIP3   OH259689   2.653   5.708   6.207 -0.1570  0.5376 -0.0053
12733TIP3    H159690   2.623   5.639   6.148 -0.6940 -0.4706  1.3716
12733TIP3    H259691   2.737   5.737   6.171 -0.1474 -0.5159 -0.8660
12734TIP3   OH259692   5.760   3.161   6.087 -0.5564  1.1445  0.0699
12734TIP3    H159693   5.690   3.140   6.026  0.9489  1.4952 -1.8826
12734TIP3    H259694   5.780   3.078   6.130  0.1460  0.2252 -1.9153
12735TIP3   OH259695   1.747   3.111  17.190  0.0558  0.0586 -0.8586
12735TIP3    H159696   1.822   3.169  17.179 -0.5534  0.6831 -1.9716
12735TIP3    H259697   1.774   3.048  17.257  1.4564  0.4409 -1.0377
12736TIP3   OH259698   5.799   0.431  13.208 -0.8242 -0.0670 -0.0262
12736TIP3    H159699   5.770   0.357  13.156  0.0466 -0.4421  0.0149
12736TIP3    H259700   5.878   0.463  13.164  0.1004 -0.5740  1.1996
12737TIP3   OH259701   2.957   2.419  11.172 -0.6447 -0.2838 -0.3775
12737TIP3    H159702   2.888   2.384  11.229 -0.2728 -0.8370 -0.2616
12737TIP3    H259703   2.936   2.513  11.164 -2.6922 -0.8088 -2.1494
12738TIP3   OH259704   0.404   0.037   3.768 -0.6342 -0.0679  0.3864
12738TIP3    H159705   0.347   0.108   3.737 -0.9033 -0.7093 -0.6355
12738TIP3    H259706   0.350  -0.011   3.830 -1.0304 -0.3418 -0.1585
12739TIP3   OH259707   2.683   5.207  15.563  0.4977  0.2851 -0.6075
12739TIP3    H159708   2.711   5.130  15.613 -0.1117 -0.3615 -1.2285
12739TIP3    H259709   2.588   5.195  15.552  0.1843  1.7241  0.2889
12740TIP3   OH259710   0.069   2.926   2.598  0.4686  0.4327 -0.5353
12740TIP3    H159711   0.118   2.884   2.527 -0.4201 -1.2666 -0.1969
12740TIP3    H259712   0.056   3.016   2.569  0.5073 -0.1060 -2.3298
12741TIP3   OH259713   5.357   5.960  13.335 -0.3122 -0.6775 -0.0877
12741TIP3    H159714   5.372   6.055  13.334  1.4016 -0.8291 -3.1684
12741TIP3    H259715   5.282   5.947  13.277 -0.1084 -1.2303 -0.2315
12742TIP3   OH259716   2.128   4.028   0.491  0.0187  0.5278 -0.1929
12742TIP3    H159717   2.156   3.968   0.560  1.3926 -1.6053 -2.4450
12742TIP3    H259718   2.071   4.091   0.536 -0.7368 -1.8589  2.5029
12743TIP3   OH259719   1.153   6.174  15.758  0.1050  0.2297  0.5531
12743TIP3    H159720   1.221   6.241  15.768 -0.6949  0.9178  1.6231
12743TIP3    H259721   1.200   6.097  15.727  0.9141  1.5523 -1.7828
12744TIP3   OH259722   3.948   0.550   1.464 -0.1031  0.2422 -0.5888
12744TIP3    H159723   3.932   0.641   1.437  1.5153  0.3533 -1.3338
12744TIP3    H259724   3.970   0.505   1.383 -2.7128 -1.3050 -0.5168
12745TIP3   OH259725   5.428   3.634  12.482 -0.4180  0.2181  0.4781
12745TIP3    H159726   5.508   3.676  12.512 -1.0379  1.4406  0.5085
12745TIP3    H259727   5.368   3.706  12.465 -1.4817 -0.6582  0.3552
12746TIP3   OH259728   5.353   3.330   6.071  0.0265  0.5646  0.2567
12746TIP3    H159729   5.408   3.397   6.111 -0.7647  0.5567  1.4135
12746TIP3    H259730   5.398   3.247   6.088  0.2712  0.6661  0.1051
12747TIP3   OH259731   0.960   6.278   6.403 -0.1673 -0.2261 -0.3086
12747TIP3    H159732   0.963   6.199   6.458 -0.2774  0.1631  0.2646
12747TIP3    H259733   0.868   6.304   6.403 -0.2917 -0.6198 -1.2667
12748TIP3   OH259734   0.959   5.236   4.897 -0.1508  0.3803 -0.4335
12748TIP3    H159735   1.018   5.303   4.862  2.6680 -2.9733 -2.6979
12748TIP3    H259736   0.997   5.213   4.981 -0.2827  0.5882 -0.3150
12749TIP3   OH259737   5.373   4.957   1.655  0.6492 -1.1108 -0.1459
12749TIP3    H159738   5.359   5.018   1.727 -0.9726 -0.6004 -0.8451
12749TIP3    H259739   5.342   4.873   1.689 -0.4270 -0.8049 -0.3217
12750TIP3   OH259740   3.165   3.312   4.055  0.5590 -0.4119  0.7877
12750TIP3    H159741   3.110   3.294   4.132 -0.6333 -1.6193 -0.2963
12750TIP3    H259742   3.255   3.311   4.089 -0.0153  1.3901  2.5743
12751TIP3   OH259743   1.386   1.349  14.204  0.2490 -0.3497  0.0849
12751TIP3    H159744   1.456   1.399  14.247 -0.3072 -0.2348  0.8900
12751TIP3    H259745   1.326   1.327  14.275  0.0602 -1.4667 -0.3946
12752TIP3   OH259746   2.750   0.563   2.012  0.6907  0.1828 -0.2154
12752TIP3    H159747   2.784   0.553   2.101  1.1946  2.2932 -0.1201
12752TIP3    H259748   2.822   0.534   1.956  1.0746  0.5864  0.0561
12753TIP3   OH259749   4.752   4.178  15.570  0.2601  0.1090  0.6745
12753TIP3    H159750   4.725   4.234  15.643 -1.8507 -0.4870  0.4258
12753TIP3    H259751   4.734   4.229  15.492  3.4517  1.1452  0.4770
12754TIP3   OH259752   3.864   0.920   4.443  0.5121  0.5802 -0.5940
12754TIP3    H159753   3.950   0.894   4.476  1.3442  1.8931 -1.5522
12754TIP3    H259754   3.849   0.863   4.368 -0.1956 -0.6930  0.4944
12755TIP3   OH259755   3.568   4.815   3.509  0.2788 -0.4928  0.6252
12755TIP3    H159756   3.484   4.781   3.479  0.7697 -0.7087 -0.5602
12755TIP3    H259757   3.563   4.812   3.605 -2.3227  2.5732  0.7416
12756TIP3   OH259758   0.457   6.743  15.638 -0.3226 -0.1005  0.6731
12756TIP3    H159759   0.538   6.771  15.594 -0.0599 -3.4285 -1.3210
12756TIP3    H259760   0.479   6.658  15.676 -2.6208 -0.6312  0.9151
12757TIP3   OH259761   5.620   5.972  13.080 -0.7027 -0.0683 -0.5482
12757TIP3    H159762   5.712   5.986  13.057 -0.0932  0.5951  1.9399
12757TIP3    H259763   5.602   5.881  13.055  0.5913 -0.1777 -1.1480
12758TIP3   OH259764   0.360   3.242  13.879 -0.3533 -0.4459 -0.7193
12758TIP3    H159765   0.404   3.311  13.928 -0.9213 -0.9841  0.6004
12758TIP3    H259766   0.316   3.189  13.946 -0.7641 -1.4936 -1.7763
12759TIP3   OH259767   3.293   1.660   6.636 -0.5054 -0.2397 -0.1520
12759TIP3    H159768   3.250   1.575   6.634  1.3878 -1.2892  0.8467
12759TIP3    H259769   3.360   1.652   6.704  1.5053  1.1338 -1.8255
12760TIP3   OH259770   6.160   0.014   2.924  0.3957 -0.2898  0.3753
12760TIP3    H159771   6.169   0.055   2.838  0.5125 -0.9230  0.0794
12760TIP3    H259772   6.066   0.009   2.939  0.3338 -1.2036 -0.2298
12761TIP3   OH259773   1.854   6.236   4.864  0.0632  0.4037  0.3090
12761TIP3    H159774   1.897   6.231   4.779  2.0029 -1.6811  1.2830
12761TIP3    H259775   1.789   6.305   4.855  0.4396  0.4824 -2.7279
12762TIP3   OH259776   1.034   3.057   1.798  0.0984 -0.0847 -0.9762
12762TIP3    H159777   1.078   2.977   1.827  1.0072  0.5381 -0.6202
12762TIP3    H259778   0.992   3.032   1.716  1.5693 -0.5485 -1.6127
12763TIP3   OH259779   3.324   2.899   5.768 -0.1244 -0.1686 -0.1659
12763TIP3    H159780   3.232   2.905   5.745 -0.6392  2.3212  2.0861
12763TIP3    H259781   3.325   2.884   5.863  1.6650  2.2539  0.3253
12764TIP3   OH259782   1.703   0.041   4.577  0.2658 -0.4997 -0.3241
12764TIP3    H159783   1.706   0.119   4.633 -0.9045  0.6837 -1.8092
12764TIP3    H259784   1.715  -0.032   4.637 -1.2793  0.6700  1.5381
12765TIP3   OH259785   1.714   2.562   2.603 -0.0504  0.4055  0.4114
12765TIP3    H159786   1.772   2.534   2.532  2.6165 -1.1416  2.9612
12765TIP3    H259787   1.753   2.643   2.635 -0.8403  0.7401  0.5348
12766TIP3   OH259788   4.292   1.944   2.118 -0.0042 -0.1348  0.2727
12766TIP3    H159789   4.325   1.978   2.201 -2.1877 -0.8762  1.5357
12766TIP3    H259790   4.240   2.016   2.081 -0.0416 -0.2113  0.1746
12767TIP3   OH259791   4.335   4.761   2.375 -0.2171  0.2438  0.7409
12767TIP3    H159792   4.335   4.698   2.447  0.6323 -0.5765  0.0617
12767TIP3    H259793   4.253   4.743   2.328 -0.1733 -0.0962  0.7871
12768TIP3   OH259794   3.395   2.000  11.678  0.0038  0.8010 -0.3793
12768TIP3    H159795   3.352   2.085  11.680 -1.6287  0.0473 -1.2919
12768TIP3    H259796   3.344   1.945  11.737  2.3942  0.9753  2.0230
12769TIP3   OH259797   2.663   1.206   0.268  0.2013  0.2804  0.2696
12769TIP3    H159798   2.669   1.132   0.208  0.2174  1.6133 -1.4508
12769TIP3    H259799   2.648   1.282   0.211 -0.6795  1.4862  2.0321
12770TIP3   OH259800   6.131   0.069   5.870  0.2373 -0.0075 -0.0308
12770TIP3    H159801   6.189   0.095   5.799 -1.7819 -2.0743 -2.6894
12770TIP3    H259802   6.173  -0.008   5.909  0.0460 -0.5803 -0.9292
12771TIP3   OH259803   3.966   3.012  13.316  0.0072  0.9244  0.0704
12771TIP3    H159804   3.900   3.079  13.300 -2.0089 -1.0627 -0.3817
12771TIP3    H259805   3.983   2.975  13.229 -2.1427 -1.9560  0.7404
12772TIP3   OH259806   4.729   2.174  13.994 -0.1308 -0.0890  0.1352
12772TIP3    H159807   4.726   2.236  13.922  3.0758 -0.6949 -0.6488
12772TIP3    H259808   4.783   2.216  14.061  0.6961 -1.3139  0.2785
12773TIP3   OH259809   5.504   2.094  16.419 -0.1455  0.1851 -0.1122
12773TIP3    H159810   5.439   2.124  16.356  1.1015 -0.6626 -1.8745
12773TIP3    H259811   5.577   2.155  16.410 -0.1882  0.4100  0.9549
12774TIP3   OH259812   3.015   6.761   4.102  0.2160  0.6081  0.3821
12774TIP3    H159813   3.105   6.730   4.093  0.7407  2.0473  0.3835
12774TIP3    H259814   3.013   6.805   4.187 -0.9173 -0.7062  1.0734
12775TIP3   OH259815   6.443   1.679   5.377  0.1124 -0.3820 -0.3858
12775TIP3    H159816   6.499   1.604   5.396 -0.3646 -0.5650  0.3163
12775TIP3    H259817   6.374   1.643   5.322 -1.0490 -0.8446  1.2994
12776TIP3   OH259818   5.883   6.321  13.757  0.2377 -0.5106  0.0907
12776TIP3    H159819   5.793   6.301  13.731  0.6749 -1.8232 -0.4750
12776TIP3    H259820   5.925   6.351  13.677  0.3757 -0.1307  0.3027
12777TIP3   OH259821   4.283   0.828  12.534 -0.3823  0.2242  0.7453
12777TIP3    H159822   4.356   0.889  12.528  0.1323 -0.4863 -0.6852
12777TIP3    H259823   4.322   0.749  12.573 -0.0465 -0.5817 -1.1096
12778TIP3   OH259824   2.847   3.117   1.822 -0.2714  0.1918  0.0340
12778TIP3    H159825   2.847   3.184   1.754 -1.2096  0.0963 -0.0701
12778TIP3    H259826   2.764   3.071   1.811  0.6151 -1.4011 -0.2937
12779TIP3   OH259827   6.013   2.070  12.343  0.1616  0.4571 -0.4465
12779TIP3    H159828   5.956   2.144  12.360  0.0347  0.4865 -0.9748
12779TIP3    H259829   6.035   2.077  12.250 -1.0140 -0.9527 -0.8775
12780TIP3   OH259830   3.186   3.836   6.207 -0.1912  0.4109 -0.3086
12780TIP3    H159831   3.281   3.826   6.204 -0.0019  1.0744  1.8889
12780TIP3    H259832   3.170   3.927   6.182 -0.1102  0.6831  0.5850
12781TIP3   OH259833   3.938   0.091   1.484 -0.2353  0.2226  0.9872
12781TIP3    H159834   3.876   0.162   1.464  0.3759  0.5511  0.1846
12781TIP3    H259835   3.907   0.018   1.431  0.6060  0.6866 -0.1950
12782TIP3   OH259836   6.033   2.341   3.937 -0.0451 -0.0708 -0.6012
12782TIP3    H159837   6.093   2.340   3.863  0.4106  0.6558 -0.2509
12782TIP3    H259838   5.982   2.260   3.927  0.8895 -0.6353 -0.9713
12783TIP3   OH259839   4.550   6.055   5.901  0.0142 -0.1114  0.2959
12783TIP3    H159840   4.558   6.139   5.946  1.1306 -0.2221  0.3301
12783TIP3    H259841   4.537   5.991   5.972 -2.2017  0.1649  0.1911
12784TIP3   OH259842   4.471   4.494   4.495  0.3608  0.3464  0.5734
12784TIP3    H159843   4.428   4.412   4.516  0.6918  0.1289  0.4191
12784TIP3    H259844   4.400   4.554   4.474  0.0978  0.2168  1.0812
12785TIP3   OH259845   6.578   0.116   6.511  0.0073 -0.3072  0.3789
12785TIP3    H159846   6.511   0.099   6.578 -0.9586  0.5545 -0.3253
12785TIP3    H259847   6.627   0.035   6.505 -2.1507 -1.6500 -0.3592
12786TIP3   OH259848   5.635   0.605  10.539 -0.2905 -0.2426 -0.2252
12786TIP3    H159849   5.707   0.668  10.541 -0.4857  0.0118  2.1848
12786TIP3    H259850   5.678   0.519  10.545 -0.1322 -0.0620  2.0776
12787TIP3   OH259851   3.997   5.493  13.570  0.0100 -0.5012  0.6865
12787TIP3    H159852   4.030   5.404  13.576  2.2065  0.1155 -0.9081
12787TIP3    H259853   4.067   5.547  13.607  0.4949  0.8093 -1.9432
12788TIP3   OH259854   4.454   4.450   3.653  0.1367  0.2705  0.3915
12788TIP3    H159855   4.476   4.500   3.731  0.8220 -1.7267  1.5694
12788TIP3    H259856   4.511   4.485   3.585  1.4517  0.3215  1.4718
12789TIP3   OH259857   2.617   3.460  14.049  0.2935 -0.3461  1.0725
12789TIP3    H159858   2.660   3.400  13.988 -1.8166 -0.0279 -0.8928
12789TIP3    H259859   2.544   3.410  14.085  0.0513  0.2301  1.4042
12790TIP3   OH259860   0.800   1.779  13.729  0.8707 -0.5337  0.2382
12790TIP3    H159861   0.843   1.840  13.789  1.0998 -0.1863 -0.2719
12790TIP3    H259862   0.844   1.696  13.743  0.8563 -0.4773  0.6221
12791TIP3   OH259863   0.217   5.572  15.818 -0.6633  0.1371 -0.3189
12791TIP3    H159864   0.148   5.571  15.884 -2.6242  0.5375 -2.2410
12791TIP3    H259865   0.262   5.655  15.831 -1.6477  0.6514 -0.0655
12792TIP3   OH259866   2.270   0.529  15.073 -0.4832 -0.4674  0.1937
12792TIP3    H159867   2.258   0.458  15.010 -0.2417 -0.6594  0.3610
12792TIP3    H259868   2.273   0.485  15.158  1.9999 -0.5459  0.1573
12793TIP3   OH259869   1.655   0.230  10.192  0.0312 -0.5334  0.2459
12793TIP3    H159870   1.739   0.184  10.196  1.5243  1.6362 -2.4206
12793TIP3    H259871   1.654   0.285  10.270  0.4509 -1.4721  0.9415
12794TIP3   OH259872   2.686   3.999   1.179  0.3250 -0.4308 -0.2866
12794TIP3    H159873   2.760   4.045   1.220 -0.9015 -0.9444  2.8394
12794TIP3    H259874   2.644   4.065   1.125  2.6584  0.0382 -1.6547
12795TIP3   OH259875   5.592   0.400  13.563 -0.2078  0.4431 -0.1543
12795TIP3    H159876   5.516   0.452  13.536  0.1317  1.4708  0.8184
12795TIP3    H259877   5.663   0.464  13.572  0.4867 -0.3429  0.0892
12796TIP3   OH259878   5.878   5.941   5.971 -0.4674  0.3498 -0.1517
12796TIP3    H159879   5.811   5.933   6.039 -1.6146 -0.0136 -1.2754
12796TIP3    H259880   5.872   5.858   5.922 -1.5752  1.6408 -2.3407
12797TIP3   OH259881   0.253   2.841   2.820  0.0110  0.1285 -0.7236
12797TIP3    H159882   0.186   2.880   2.765  0.0439  0.7836 -0.3187
12797TIP3    H259883   0.258   2.899   2.896  0.9949  0.0666 -0.7243
12798TIP3   OH259884   5.010   2.667  11.265  0.2843 -0.5970 -0.3919
12798TIP3    H159885   4.981   2.639  11.178  0.7046  0.3267 -0.8516
12798TIP3    H259886   5.032   2.760  11.254 -2.9816  0.5779  1.5104
12799TIP3   OH259887   5.692   5.302  15.022  0.2128  0.5992  0.4326
12799TIP3    H159888   5.609   5.333  14.986 -0.0694  0.7172  1.1573
12799TIP3    H259889   5.759   5.358  14.983 -0.0072  0.2722 -0.4305
12800TIP3   OH259890   1.298   2.768  11.278 -0.3292 -0.5710  0.0395
12800TIP3    H159891   1.364   2.730  11.221 -0.0051  0.1152 -0.0592
12800TIP3    H259892   1.263   2.843  11.229 -1.0846 -0.8400  0.1479
12801TIP3   OH259893   4.132   6.264  15.507 -0.1390  0.2761  0.4452
12801TIP3    H159894   4.134   6.278  15.602 -0.1281 -1.3335  0.7217
12801TIP3    H259895   4.142   6.169  15.497  0.2081  0.4552 -1.1896
12802TIP3   OH259896   6.428   4.838   3.260 -0.2534  0.1700  0.1232
12802TIP3    H159897   6.493   4.769   3.268 -0.7485 -0.1946  1.0500
12802TIP3    H259898   6.380   4.817   3.179 -1.0600 -1.1473  0.9236
12803TIP3   OH259899   4.504   4.792   3.943 -0.2184 -0.5366  0.4223
12803TIP3    H159900   4.428   4.784   3.886  0.1367 -1.0827  0.0046
12803TIP3    H259901   4.565   4.726   3.910  0.0859 -0.7112  1.3028
12804TIP3   OH259902   4.397   1.895   5.806  0.2655  0.2355 -0.0790
12804TIP3    H159903   4.430   1.932   5.725 -2.9318  1.3950 -1.0041
12804TIP3    H259904   4.334   1.828   5.778  0.9309 -1.1426  1.5259
12805TIP3   OH259905   5.817   5.271   6.227 -0.3418 -0.1575 -0.3427
12805TIP3    H159906   5.887   5.314   6.178 -1.0143 -0.8264 -1.9636
12805TIP3    H259907   5.862   5.230   6.301  0.7416  0.6961 -0.4875
12806TIP3   OH259908   5.763   3.409  11.458  0.2640 -0.2371 -0.2865
12806TIP3    H159909   5.718   3.346  11.402 -2.0176  0.3338  0.7973
12806TIP3    H259910   5.698   3.433  11.525  0.8833  3.4357 -0.7702
12807TIP3   OH259911   6.420   2.443   0.946 -0.1891 -0.4063 -0.3468
12807TIP3    H159912   6.478   2.486   0.884  0.7696  1.5718  1.7738
12807TIP3    H259913   6.451   2.353   0.950  0.4348 -0.2770 -1.8490
12808TIP3   OH259914   5.599   5.294   3.522  0.3882  0.5598  0.5903
12808TIP3    H159915   5.529   5.255   3.471 -0.3471  1.2772  1.0267
12808TIP3    H259916   5.654   5.338   3.458  1.6449 -1.7276  0.0016
12809TIP3   OH259917   1.258   4.254   4.362  0.1038 -0.1227  0.0700
12809TIP3    H159918   1.212   4.175   4.334  1.0743 -0.3671 -0.8913
12809TIP3    H259919   1.194   4.325   4.349 -0.3821 -0.5919 -0.1552
12810TIP3   OH259920   4.358   4.099   4.700  0.7964  0.0126  0.5318
12810TIP3    H159921   4.276   4.107   4.749  0.0659  2.0286 -0.8905
12810TIP3    H259922   4.378   4.006   4.701 -3.0481 -1.0402 -1.4602
12811TIP3   OH259923   3.833   2.032   5.293 -0.2046 -0.2574  1.3079
12811TIP3    H159924   3.886   2.096   5.246 -0.5135  0.0399  1.3655
12811TIP3    H259925   3.805   1.970   5.225 -0.1928 -0.1400  1.1953
12812TIP3   OH259926   3.733   2.929  15.675 -0.3517  0.2486  0.2340
12812TIP3    H159927   3.715   2.853  15.620 -0.2003 -0.1288  0.7009
12812TIP3    H259928   3.709   3.004  15.620 -0.8073 -0.1433 -0.1142
12813TIP3   OH259929   0.010   4.253  17.106 -0.4615  0.4231 -0.0255
12813TIP3    H159930  -0.032   4.199  17.173  1.6412 -2.5045 -0.8625
12813TIP3    H259931  -0.013   4.211  17.023  0.4045  1.4564 -0.8195
12814TIP3   OH259932   1.818   4.314  12.142  0.0517  0.0495  0.1630
12814TIP3    H159933   1.765   4.389  12.169  0.2682  0.5436 -0.7611
12814TIP3    H259934   1.888   4.352  12.088  0.7803 -0.6976  0.5530
12815TIP3   OH259935   2.410   3.410   4.051  0.7415  0.3830 -0.1664
12815TIP3    H159936   2.424   3.418   4.146  0.5001 -1.0700  0.0108
12815TIP3    H259937   2.318   3.388   4.042  0.6711  0.9042 -0.7792
12816TIP3   OH259938   5.832   2.402   2.289 -0.1239  0.2083 -0.4608
12816TIP3    H159939   5.826   2.326   2.347  1.3536  0.3943 -0.0287
12816TIP3    H259940   5.806   2.369   2.203  1.1490 -0.9663 -0.4167
12817TIP3   OH259941   5.691   2.036  13.296 -0.2747  0.7110 -0.2504
12817TIP3    H159942   5.634   1.970  13.335 -0.0428  0.6237 -0.0512
12817TIP3    H259943   5.634   2.110  13.277 -0.4956  0.5361 -0.2670
12818TIP3   OH259944   1.541   3.133  12.724  0.2493 -0.5176  0.1258
12818TIP3    H159945   1.591   3.080  12.785  2.8480  0.0377 -1.3782
12818TIP3    H259946   1.569   3.103  12.638 -1.5121  0.3471 -0.8004
12819TIP3   OH259947   5.501   4.381  13.315 -0.5899 -0.8739 -0.0966
12819TIP3    H159948   5.491   4.468  13.278  0.2800 -0.6069  0.2654
12819TIP3    H259949   5.527   4.396  13.406  3.1665 -1.3955 -0.9087
12820TIP3   OH259950   2.955   0.923   0.658 -0.6043 -0.2579 -0.0450
12820TIP3    H159951   2.931   0.835   0.627 -0.0336 -0.5220  0.2372
12820TIP3    H259952   3.012   0.906   0.733 -0.2578  0.3558 -0.1676
12821TIP3   OH259953   2.541   6.238  15.174 -0.4282  0.1056  0.1481
12821TIP3    H159954   2.522   6.150  15.141  1.5500 -0.8155  1.3263
12821TIP3    H259955   2.552   6.227  15.268  1.2437  1.3409  0.1443
12822TIP3   OH259956   3.394   3.815   2.145 -0.1219  0.5472 -0.0723
12822TIP3    H159957   3.476   3.813   2.097 -0.6329 -0.6079 -0.9261
12822TIP3    H259958   3.333   3.861   2.087 -0.1405  1.2708  0.4946
12823TIP3   OH259959   5.377   4.879  14.230  0.3988 -0.2008  0.0214
12823TIP3    H159960   5.377   4.927  14.147 -1.6090  1.0221  0.6448
12823TIP3    H259961   5.301   4.914  14.278  0.1038 -2.5412  1.4114
12824TIP3   OH259962   5.010   3.793   5.751 -1.0030 -0.0091 -0.3525
12824TIP3    H159963   5.087   3.778   5.697 -0.0584 -1.7450  1.3588
12824TIP3    H259964   5.011   3.887   5.769  0.0186  0.1889 -1.3535
12825TIP3   OH259965   1.892   5.976  14.166  0.4473  0.4783  0.2631
12825TIP3    H159966   1.829   6.020  14.223 -0.6270 -1.4889  0.6804
12825TIP3    H259967   1.890   5.885  14.194  1.3811 -0.1723 -1.6312
12826TIP3   OH259968   6.465   1.459  16.106 -0.4083  0.0462 -0.5715
12826TIP3    H159969   6.548   1.448  16.152 -0.1064  1.2277 -0.7935
12826TIP3    H259970   6.441   1.371  16.077  0.8537 -0.2797 -0.6491
12827TIP3   OH259971   4.667   2.139  15.454  0.0010  0.0232  0.2366
12827TIP3    H159972   4.721   2.134  15.375 -1.9733 -0.1649 -1.1776
12827TIP3    H259973   4.706   2.209  15.506  0.0199  1.7881 -2.0275
12828TIP3   OH259974   6.582   0.252   4.091  0.5852 -0.3784 -0.1387
12828TIP3    H159975   6.662   0.222   4.047  0.4326  1.1842 -1.5960
12828TIP3    H259976   6.561   0.182   4.153  2.8507 -1.0130  0.0105
12829TIP3   OH259977   0.287   2.053  11.458 -0.1332 -0.9885  0.2460
12829TIP3    H159978   0.292   2.135  11.408 -0.1575 -0.4123  1.1605
12829TIP3    H259979   0.266   1.986  11.393 -2.9915  0.1546 -0.1253
12830TIP3   OH259980   5.991   4.810   2.969 -0.1829  0.2208  0.2176
12830TIP3    H159981   5.904   4.791   3.006 -0.4570  0.4803 -0.2752
12830TIP3    H259982   6.030   4.872   3.030 -0.1740 -0.2091  0.6610
12831TIP3   OH259983   0.662   5.538  13.422 -0.0421 -0.1118 -0.0477
12831TIP3    H159984   0.614   5.455  13.424  0.3487 -0.4222 -1.6902
12831TIP3    H259985   0.706   5.542  13.507 -0.0387 -1.6212  0.0597
12832TIP3   OH259986   1.905   4.839   0.451  0.4186  0.0393  0.1716
12832TIP3    H159987   1.836   4.787   0.491  0.8437 -0.9205 -0.3222
12832TIP3    H259988   1.928   4.904   0.518 -1.1083  0.5345  0.2525
12833TIP3   OH259989   4.408   6.564  14.348  0.1095  0.1866 -0.4244
12833TIP3    H159990   4.393   6.537  14.258 -0.6579  0.0175 -0.2543
12833TIP3    H259991   4.322   6.593  14.379  0.4798  0.7748  0.0761
12834TIP3   OH259992   2.698   6.598  15.899  0.8046  0.1510  0.1714
12834TIP3    H159993   2.690   6.519  15.846 -2.3153  0.2562  0.2751
12834TIP3    H259994   2.790   6.602  15.924  1.6343 -1.8465 -2.2148
12835TIP3   OH259995   0.080   1.631  14.031  0.3117  0.3040 -0.0294
12835TIP3    H159996   0.124   1.697  14.085 -1.0084  0.5958  0.7326
12835TIP3    H259997   0.129   1.631  13.949  2.4648 -0.2285  1.1583
12836TIP3   OH259998   1.345   5.287  12.667  0.0154  0.4788 -0.5659
12836TIP3    H159999   1.315   5.218  12.607 -0.4191  0.0414  0.1438
12836TIP3    H260000   1.440   5.290  12.655 -0.2176  1.5974 -2.5561
12837TIP3   OH260001   5.129   5.222   4.609  0.2204  0.3288  0.2819
12837TIP3    H160002   5.205   5.172   4.639 -0.0249  0.0602  0.4567
12837TIP3    H260003   5.061   5.203   4.673 -0.9616 -1.9015 -1.4606
12838TIP3   OH260004   3.769   5.867  16.667  0.4848  0.2841 -0.4006
12838TIP3    H160005   3.752   5.854  16.760 -0.4692  2.1488 -0.2704
12838TIP3    H260006   3.748   5.958  16.651 -0.5684 -0.2904 -2.7184
12839TIP3   OH260007   3.827   1.168   3.776 -0.3277 -0.7146 -0.9083
12839TIP3    H160008   3.763   1.109   3.815 -0.2923 -0.5433 -0.5871
12839TIP3    H260009   3.909   1.119   3.777 -0.2504 -0.5724 -0.4313
12840TIP3   OH260010   4.651   6.263  15.551 -0.1400 -0.0794  0.4208
12840TIP3    H160011   4.630   6.336  15.492 -1.3650 -1.1157 -0.4746
12840TIP3    H260012   4.645   6.301  15.639 -3.3490  0.3685  0.1232
12841TIP3   OH260013   3.099   1.712  10.529 -0.4573  0.5028  0.1068
12841TIP3    H160014   3.037   1.735  10.598  0.2888 -2.1022  1.7995
12841TIP3    H260015   3.087   1.617  10.517  2.1039  0.2035 -0.5957
12842TIP3   OH260016   5.560   0.189  11.086 -0.1434  0.0705 -0.1983
12842TIP3    H160017   5.646   0.224  11.110 -0.3315 -0.1062  0.8086
12842TIP3    H260018   5.553   0.108  11.137 -0.6148 -0.2808 -0.8206
12843TIP3   OH260019   2.881   1.535   4.366  0.5624 -0.8055 -0.3664
12843TIP3    H160020   2.957   1.542   4.424 -0.5122 -1.1024  1.1515
12843TIP3    H260021   2.839   1.621   4.372 -0.2448 -1.2296  0.3349
12844TIP3   OH260022   1.569   2.235   0.810 -0.3253  0.3163 -0.0113
12844TIP3    H160023   1.585   2.329   0.820 -1.0587  0.6553 -1.6589
12844TIP3    H260024   1.641   2.205   0.755  0.5527 -0.3437  1.4654
12845TIP3   OH260025   0.688   5.064   5.803  0.2101 -0.3689  0.2507
12845TIP3    H160026   0.609   5.027   5.766 -0.2735  0.4744  0.4054
12845TIP3    H260027   0.753   5.059   5.733 -0.0745 -0.7712  0.0166
12846TIP3   OH260028   2.796   4.883  10.691  0.2665  0.5612 -0.5696
12846TIP3    H160029   2.834   4.959  10.647  1.6800 -0.4858 -1.2246
12846TIP3    H260030   2.726   4.854  10.632  0.8080  0.3789 -1.1267
12847TIP3   OH260031   6.171   1.072  15.687 -0.3936  0.8002  0.0704
12847TIP3    H160032   6.217   1.017  15.750 -2.6438 -0.5116  0.6716
12847TIP3    H260033   6.105   1.118  15.739 -1.5588  0.5450 -1.1436
12848TIP3   OH260034   2.035   4.982  14.045 -0.7122 -0.2871  0.3963
12848TIP3    H160035   1.999   5.069  14.063 -0.3655 -0.2078  0.7385
12848TIP3    H260036   2.054   4.983  13.951  0.6596  0.5512  0.6410
12849TIP3   OH260037   5.590   4.621  16.817 -0.9416 -0.0458  0.1808
12849TIP3    H160038   5.545   4.630  16.733 -0.4841  2.1947  0.1168
12849TIP3    H260039   5.678   4.593  16.794 -0.9484  0.1179 -0.0450
12850TIP3   OH260040   2.104   5.128   0.157  0.6699  0.4111  0.4918
12850TIP3    H160041   2.046   5.204   0.150 -0.7227 -0.6381 -0.1038
12850TIP3    H260042   2.127   5.123   0.250  0.7571  1.5397  0.5374
12851TIP3   OH260043   3.365   0.743  16.540  0.3623 -0.6151  0.3146
12851TIP3    H160044   3.377   0.828  16.582  2.2427  0.0018 -1.3110
12851TIP3    H260045   3.270   0.730  16.538  0.0093  1.6061  0.3331
12852TIP3   OH260046   4.876   1.389   3.683 -0.6351 -0.1139 -0.2149
12852TIP3    H160047   4.864   1.454   3.751 -0.8502  0.2301 -0.5790
12852TIP3    H260048   4.880   1.439   3.602  0.3918 -0.4582 -0.3842
12853TIP3   OH260049   5.654   3.721   1.951  0.5227 -0.3803 -0.2775
12853TIP3    H160050   5.579   3.662   1.939  1.0321 -0.7068 -2.3632
12853TIP3    H260051   5.724   3.681   1.898  1.6177  0.8446  0.1988
12854TIP3   OH260052   5.951   1.245   6.376  0.4392  0.1208 -0.2282
12854TIP3    H160053   5.890   1.220   6.307  2.0356 -1.0249 -1.2890
12854TIP3    H260054   5.907   1.317   6.423 -1.4424 -0.2942 -1.2830
12855TIP3   OH260055   2.652   2.638   1.416 -0.2191  0.0827 -0.8258
12855TIP3    H160056   2.646   2.711   1.354  0.9263 -0.0777 -1.1527
12855TIP3    H260057   2.702   2.673   1.490 -0.8651  0.0255 -0.3500
12856TIP3   OH260058   5.372   2.855  11.164  0.0019  0.0595  0.0881
12856TIP3    H160059   5.462   2.882  11.144 -1.1162  1.7161 -3.3265
12856TIP3    H260060   5.367   2.764  11.134  0.9349 -0.7233  2.0659
12857TIP3   OH260061   3.788   3.388  12.190 -0.1008 -0.3276  0.5432
12857TIP3    H160062   3.763   3.400  12.098  0.6521  1.2223  0.5146
12857TIP3    H260063   3.874   3.347  12.186  0.1144  0.1206  0.5452
12858TIP3   OH260064   1.526   0.876  13.943 -0.0911 -0.2893 -0.2436
12858TIP3    H160065   1.609   0.872  13.989 -0.8890  1.4821  1.4956
12858TIP3    H260066   1.460   0.880  14.012 -1.6086 -1.2422 -1.5686
12859TIP3   OH260067   5.953   0.983   2.601  0.2365 -0.4734  0.1016
12859TIP3    H160068   6.030   0.973   2.545 -0.4066 -1.9117 -0.5684
12859TIP3    H260069   5.945   0.898   2.645 -0.3805  0.0091  0.9548
12860TIP3   OH260070   4.101   2.560   3.766  0.3650  0.3697  0.5270
12860TIP3    H160071   4.088   2.479   3.816 -0.0174  0.1744  0.1198
12860TIP3    H260072   4.149   2.617   3.825  0.2850 -0.0114  0.9666
12861TIP3   OH260073   0.421   4.118   6.297 -0.4772  0.1116 -0.2195
12861TIP3    H160074   0.475   4.181   6.249  0.4402 -0.3917  0.1301
12861TIP3    H260075   0.474   4.093   6.372 -2.0536  1.2095  1.3536
12862TIP3   OH260076   1.576   2.364   4.579 -0.2901  0.5892  0.3314
12862TIP3    H160077   1.660   2.323   4.560 -0.7129  0.1105 -0.5773
12862TIP3    H260078   1.581   2.450   4.537  0.2583  1.1399  1.4762
12863TIP3   OH260079   1.353   5.485   5.550 -0.5584 -0.3608 -0.1111
12863TIP3    H160080   1.306   5.569   5.553  0.9019  0.4775  0.3650
12863TIP3    H260081   1.422   5.494   5.616  0.4612 -1.4300 -0.9872
12864TIP3   OH260082   5.106   3.881   4.863  0.4992  0.8822 -0.4517
12864TIP3    H160083   5.015   3.876   4.835 -0.2651  1.1545  1.7963
12864TIP3    H260084   5.102   3.894   4.957  2.8791 -2.0725  0.2274
12865TIP3   OH260085   2.585   5.859   6.427  0.2846  0.1774 -0.4442
12865TIP3    H160086   2.603   5.816   6.343 -0.6938 -0.6158 -0.2626
12865TIP3    H260087   2.651   5.929   6.433  0.1408  0.4818 -2.0384
12866TIP3   OH260088   2.410   4.584  15.129  0.3603  0.7433 -0.4788
12866TIP3    H160089   2.348   4.523  15.089 -0.2553 -0.4136  2.0474
12866TIP3    H260090   2.495   4.540  15.120  0.0296 -0.1711  0.6340
12867TIP3   OH260091   6.279   0.179   0.922 -0.4446 -0.5277  0.1525
12867TIP3    H160092   6.299   0.273   0.928  0.6222 -0.6177 -1.3966
12867TIP3    H260093   6.214   0.173   0.852 -0.3701 -0.9584  0.1176
12868TIP3   OH260094   2.986   4.743  12.209  0.7492 -0.0570 -0.4641
12868TIP3    H160095   3.069   4.789  12.192  0.4573  1.5521  1.9917
12868TIP3    H260096   3.013   4.654  12.233  2.0319  0.9412  2.1998
12869TIP3   OH260097   1.737   5.605   3.984  0.2954  0.3172  0.3233
12869TIP3    H160098   1.782   5.661   4.048  0.9615 -1.2918  1.3241
12869TIP3    H260099   1.721   5.523   4.031 -0.5674 -0.3863 -1.1250
12870TIP3   OH260100   4.651   2.504  13.377  0.1048 -0.4260 -0.7229
12870TIP3    H160101   4.580   2.530  13.318  0.5010  0.0510 -1.0059
12870TIP3    H260102   4.729   2.542  13.337  0.3493  0.1415  0.2672
12871TIP3   OH260103   2.066   2.409  14.251 -0.0705  0.4457  0.6413
12871TIP3    H160104   2.124   2.475  14.289 -1.2846  1.6494  0.4910
12871TIP3    H260105   2.085   2.410  14.158 -0.8571  1.4042  0.4807
12872TIP3   OH260106   1.781   6.347   0.223  0.1966 -0.1589 -0.3159
12872TIP3    H160107   1.749   6.437   0.230  0.8364  0.0241  0.3462
12872TIP3    H260108   1.716   6.295   0.271 -0.6284 -0.1705 -1.4236
12873TIP3   OH260109   1.308   6.315  10.231 -0.1060 -0.1272 -0.1816
12873TIP3    H160110   1.226   6.277  10.261  0.4719 -0.2232  1.3668
12873TIP3    H260111   1.323   6.390  10.289  1.6009 -0.9785  0.5515
12874TIP3   OH260112   5.351   1.702   5.364 -0.3589 -0.2330  0.2932
12874TIP3    H160113   5.436   1.657   5.371  1.5128  3.0196  0.4209
12874TIP3    H260114   5.328   1.695   5.271  0.9266  0.2587 -0.0838
12875TIP3   OH260115   6.793   1.978   0.529  0.0790 -0.3198 -0.1413
12875TIP3    H160116   6.837   1.894   0.534  0.6779  0.0228  0.3835
12875TIP3    H260117   6.819   2.014   0.444 -0.8354 -1.0074 -0.7429
12876TIP3   OH260118   5.941   3.437  13.438 -0.0165 -0.0508  0.5516
12876TIP3    H160119   5.851   3.465  13.453 -0.0191  0.9146 -0.9814
12876TIP3    H260120   5.933   3.350  13.398 -0.1699 -0.7054  1.9610
12877TIP3   OH260121   3.160   4.645  16.127  0.1732  0.6567  0.3699
12877TIP3    H160122   3.227   4.685  16.072 -0.7409  0.8305 -0.6569
12877TIP3    H260123   3.123   4.718  16.176  1.0109  0.4970  1.2567
12878TIP3   OH260124   3.699   1.132   4.815  0.5695 -0.3682  0.2047
12878TIP3    H160125   3.772   1.143   4.876  0.4905 -1.1606  0.4589
12878TIP3    H260126   3.719   1.050   4.769 -0.5087 -0.9571  0.7619
12879TIP3   OH260127   1.573   4.097  13.168 -0.0441  0.5732 -0.3765
12879TIP3    H160128   1.513   4.052  13.109  0.0239  1.5561 -1.2245
12879TIP3    H260129   1.659   4.084  13.130  0.2982 -0.7154  0.7667
12880TIP3   OH260130   4.855   0.449   0.481  0.1649  0.1962 -0.5345
12880TIP3    H160131   4.897   0.510   0.542  0.0982  0.7010 -0.9853
12880TIP3    H260132   4.876   0.362   0.516 -0.1601  0.4820  0.3897
12881TIP3   OH260133   6.717   3.560   5.292  0.4654 -0.1958 -0.4093
12881TIP3    H160134   6.770   3.483   5.311  0.5092  0.1636  1.0645
12881TIP3    H260135   6.775   3.617   5.242  1.3587  0.0023  0.8057
12882TIP3   OH260136   2.358   1.361  13.547  0.1648 -0.0919  0.4566
12882TIP3    H160137   2.361   1.367  13.642  1.0075 -3.0394  0.7246
12882TIP3    H260138   2.292   1.294  13.529 -0.3971  0.8178 -1.0825
12883TIP3   OH260139   5.873   3.718   4.692 -0.5736 -0.2336  0.2213
12883TIP3    H160140   5.825   3.636   4.704 -1.9256  0.1529 -2.0303
12883TIP3    H260141   5.826   3.764   4.622 -0.1033  2.6778  1.6678
12884TIP3   OH260142   0.868   1.651  17.402 -0.1791  0.7573  0.7518
12884TIP3    H160143   0.808   1.586  17.438 -0.9767  0.8643 -0.3399
12884TIP3    H260144   0.895   1.704  17.478 -1.2047  0.5038  1.3098
12885TIP3   OH260145   6.147   4.845   6.721  0.1216 -0.3158  0.0921
12885TIP3    H160146   6.062   4.868   6.684 -0.1554 -0.5610  0.5614
12885TIP3    H260147   6.185   4.928   6.750 -1.7316 -0.5477  3.6335
12886TIP3   OH260148   6.237   0.712   4.099 -0.7952 -0.2512  0.1108
12886TIP3    H160149   6.219   0.734   4.008  0.6125  0.5245 -0.0083
12886TIP3    H260150   6.258   0.618   4.097  0.5300  0.0374 -0.5976
12887TIP3   OH260151   0.926   4.294  13.335 -0.4195  0.0989 -0.4265
12887TIP3    H160152   0.877   4.316  13.414  1.1378  4.0875 -0.3485
12887TIP3    H260153   1.014   4.273  13.366 -0.4648 -1.0145 -0.9828
12888TIP3   OH260154   5.044   4.365   2.622 -0.3706  0.2953 -0.2920
12888TIP3    H160155   5.096   4.431   2.668  1.5947 -1.0161 -0.5327
12888TIP3    H260156   5.103   4.330   2.555 -2.0524 -0.2623 -1.5424
12889TIP3   OH260157   2.962   4.739  10.464  0.1128  0.0053 -0.0608
12889TIP3    H160158   2.881   4.709  10.505  0.0102 -0.7521 -0.7896
12889TIP3    H260159   3.029   4.729  10.532 -0.1105 -0.9221  0.0301
12890TIP3   OH260160   6.536   2.184   0.886 -0.2988  0.4134  0.0749
12890TIP3    H160161   6.478   2.125   0.837  0.2690 -0.0001 -0.1043
12890TIP3    H260162   6.624   2.156   0.863 -0.0145  1.4207 -0.1146
12891TIP3   OH260163   0.545   3.728   0.061 -0.5405 -0.7248 -0.0540
12891TIP3    H160164   0.617   3.727  -0.003 -1.5077  1.5061 -1.2904
12891TIP3    H260165   0.467   3.747   0.009 -1.4313  0.8238  1.7324
12892TIP3   OH260166   5.439   5.251   6.471  0.3052 -0.4805 -0.4588
12892TIP3    H160167   5.525   5.285   6.498 -0.6782  0.1536  2.1861
12892TIP3    H260168   5.385   5.329   6.461 -0.0433 -0.8827 -2.0531
12893TIP3   OH260169   3.258   1.140   4.791  0.4897 -0.4685  0.2745
12893TIP3    H160170   3.188   1.119   4.852  1.3315  0.4537  1.5958
12893TIP3    H260171   3.239   1.229   4.761  1.4806  0.0780  1.2218
12894TIP3   OH260172   4.191   1.171   4.055  0.0563  0.2001  0.2807
12894TIP3    H160173   4.097   1.149   4.055 -0.1994  1.0175 -1.9301
12894TIP3    H260174   4.227   1.119   3.983  0.6800  2.0824 -0.8362
12895TIP3   OH260175   1.575   1.663  11.987 -0.2559 -0.3432 -0.0427
12895TIP3    H160176   1.618   1.579  11.969 -2.0291 -0.7867 -2.7780
12895TIP3    H260177   1.513   1.644  12.056  1.8701 -0.3278  1.9992
12896TIP3   OH260178   5.535   4.841  11.481  0.5420  0.1089  0.6006
12896TIP3    H160179   5.538   4.898  11.558 -1.7945 -1.1703  1.7612
12896TIP3    H260180   5.540   4.900  11.406  0.4772  1.6007  1.7453
12897TIP3   OH260181   4.938   0.291   6.283 -0.1054 -0.0524 -0.1817
12897TIP3    H160182   4.898   0.235   6.215  1.2803  0.3499 -1.3839
12897TIP3    H260183   5.006   0.236   6.322  3.0078  1.3768 -3.0742
12898TIP3   OH260184   4.748   1.571  12.121 -0.2220  0.2198 -0.1315
12898TIP3    H160185   4.711   1.581  12.033 -3.8360  2.2242  1.3696
12898TIP3    H260186   4.793   1.487  12.119 -3.5951 -1.7776 -2.8698
12899TIP3   OH260187   2.686   5.757  11.057  0.1366 -0.2778  0.4626
12899TIP3    H160188   2.718   5.667  11.060 -1.0337 -0.7607 -0.6343
12899TIP3    H260189   2.695   5.789  11.146  0.6144 -1.4651  0.8600
12900TIP3   OH260190   5.707   2.779  13.190 -0.6628 -0.4416 -0.5055
12900TIP3    H160191   5.736   2.869  13.180  2.4532 -1.3744 -1.1548
12900TIP3    H260192   5.645   2.765  13.119 -0.9850  1.0924 -0.5487
12901TIP3   OH260193   0.552   2.768   3.389 -0.0317 -0.2374  0.0748
12901TIP3    H160194   0.631   2.778   3.336 -0.1266  1.7022  0.2192
12901TIP3    H260195   0.480   2.777   3.326 -0.1322 -0.0350  0.2157
12902TIP3   OH260196   4.681   6.425   1.541 -0.0391 -0.7617 -0.9956
12902TIP3    H160197   4.679   6.513   1.581  0.5565 -0.9988 -0.4223
12902TIP3    H260198   4.593   6.391   1.554 -0.0120 -0.6059 -0.3795
12903TIP3   OH260199   0.180   4.939   1.001  0.1622 -0.4811 -0.0753
12903TIP3    H160200   0.180   4.962   1.094 -2.9856 -2.3443  0.5481
12903TIP3    H260201   0.094   4.900   0.986 -0.1628  1.2367 -4.2083
12904TIP3   OH260202   4.417   6.311   1.540  0.5082 -0.1953 -0.5902
12904TIP3    H160203   4.384   6.362   1.614  0.9793 -0.3642 -0.2597
12904TIP3    H260204   4.356   6.330   1.468  0.5209  0.6089 -0.3906
12905TIP3   OH260205   4.250   3.232  11.120  0.3405 -0.0439  0.5169
12905TIP3    H160206   4.169   3.184  11.136 -0.8230  0.9405 -1.9482
12905TIP3    H260207   4.253   3.298  11.189 -0.7448 -0.3533  0.8794
12906TIP3   OH260208   1.502   6.197  13.523  0.0678 -1.0673  0.1223
12906TIP3    H160209   1.552   6.270  13.488  0.9731 -1.6379  0.1896
12906TIP3    H260210   1.451   6.164  13.449 -1.4061  0.4630  0.4083
12907TIP3   OH260211   0.898   2.631   2.459  0.4322 -0.3493  0.0769
12907TIP3    H160212   0.991   2.650   2.447  0.2722  0.1252 -0.5079
12907TIP3    H260213   0.879   2.659   2.548  0.9541 -0.9051  0.3698
12908TIP3   OH260214   6.008   5.672   4.314 -0.7316  0.1539  0.6794
12908TIP3    H160215   6.102   5.686   4.313 -0.9184  1.7425  1.0710
12908TIP3    H260216   5.978   5.706   4.230 -0.9488 -0.4841  0.4928
12909TIP3   OH260217   4.380   2.454  15.126  0.1281 -0.3603 -0.2445
12909TIP3    H160218   4.401   2.544  15.150 -1.6332 -0.0796  0.3831
12909TIP3    H260219   4.331   2.420  15.201  0.7858 -1.8628 -0.4555
12910TIP3   OH260220   4.856   6.157  13.651 -0.1884  0.0152  0.8530
12910TIP3    H160221   4.877   6.250  13.641 -0.0128 -0.0970  0.1576
12910TIP3    H260222   4.827   6.149  13.742 -2.6777  1.2300  0.2586
12911TIP3   OH260223   5.472   5.823   3.599  0.4371 -0.2819  0.8590
12911TIP3    H160224   5.412   5.764   3.644  0.3096 -0.0629  0.9778
12911TIP3    H260225   5.466   5.905   3.648 -1.5776  0.7695 -1.0048
12912TIP3   OH260226   3.289   3.800  12.150 -0.3593 -0.4588 -0.4425
12912TIP3    H160227   3.276   3.783  12.057  0.2425 -0.5471 -0.5170
12912TIP3    H260228   3.327   3.888  12.153  0.0389 -0.6333 -0.3132
12913TIP3   OH260229   1.699   5.046   2.730 -0.3314 -0.3693  0.0371
12913TIP3    H160230   1.634   5.070   2.664 -0.8860  0.2969  0.8043
12913TIP3    H260231   1.671   4.960   2.761  0.3162 -0.9989 -1.0458
12914TIP3   OH260232   0.914   2.153  12.874 -0.5029  0.2391 -0.3792
12914TIP3    H160233   0.929   2.147  12.779  0.1114  0.5342 -0.3027
12914TIP3    H260234   0.836   2.100  12.889 -0.2797 -0.2718 -0.9769
12915TIP3   OH260235   3.689   0.346   1.094 -0.1899 -0.2630 -0.9971
12915TIP3    H160236   3.755   0.291   1.135 -0.0747  0.5583 -0.0298
12915TIP3    H260237   3.739   0.412   1.046 -0.2699  0.4224 -0.1796
12916TIP3   OH260238   0.643   5.930  15.287 -0.2722 -0.5020 -0.0640
12916TIP3    H160239   0.630   5.972  15.203 -3.1383  0.5485  0.7845
12916TIP3    H260240   0.590   5.850  15.283  0.2466 -0.8855  0.4612
12917TIP3   OH260241   5.518   4.439   1.971 -0.1681  0.1927  0.0749
12917TIP3    H160242   5.509   4.460   2.064 -0.9004  1.2212 -0.2095
12917TIP3    H260243   5.600   4.480   1.944  0.2447 -0.4412  0.3479
12918TIP3   OH260244   2.425   1.158  15.213  0.1534  0.3175  0.2035
12918TIP3    H160245   2.473   1.148  15.296  2.0523  0.9235 -0.7611
12918TIP3    H260246   2.410   1.068  15.184  1.0056  0.1076  0.3764
12919TIP3   OH260247   1.286   2.547  11.764  0.1628  0.5792 -0.0834
12919TIP3    H160248   1.253   2.609  11.698  1.2284 -0.8899 -2.1341
12919TIP3    H260249   1.362   2.506  11.722  0.3587 -1.0853  1.7544
12920TIP3   OH260250   4.016   5.244  13.686  0.5518  0.4914  0.1557
12920TIP3    H160251   4.104   5.269  13.713 -0.8717  3.2786  2.8447
12920TIP3    H260252   3.959   5.278  13.755 -2.8383  0.7430 -2.4877
12921TIP3   OH260253   1.569   5.638   0.945 -0.5088  0.2353 -0.0942
12921TIP3    H160254   1.492   5.619   0.891  0.7487 -0.5180 -1.7097
12921TIP3    H260255   1.617   5.705   0.896  1.4217 -1.5139 -0.7705
12922TIP3   OH260256   0.490   6.441  15.998 -0.6835  0.6032 -0.4626
12922TIP3    H160257   0.418   6.382  15.976  0.0265 -0.7374  0.6681
12922TIP3    H260258   0.541   6.449  15.917 -0.4459 -0.8651 -0.4821
12923TIP3   OH260259   0.862   2.746  12.364  0.1058  0.6457 -0.4294
12923TIP3    H160260   0.885   2.667  12.412  0.3742  1.5429  0.9856
12923TIP3    H260261   0.794   2.719  12.302  0.1689 -0.6657  0.0632
12924TIP3   OH260262   4.113   0.673  17.157  0.1154 -0.5736 -0.4679
12924TIP3    H160263   4.025   0.652  17.126 -0.1690  0.7069 -0.5826
12924TIP3    H260264   4.104   0.675  17.252  0.5029 -2.4035 -0.3543
12925TIP3   OH260265   3.969   3.533   3.607 -0.5828  0.0970  0.3117
12925TIP3    H160266   4.043   3.590   3.628 -0.4740  0.6733 -1.4880
12925TIP3    H260267   3.969   3.467   3.676 -1.4771  2.9079  3.3178
12926TIP3   OH260268   3.155   4.344  12.547  0.1450  0.3922  0.1392
12926TIP3    H160269   3.245   4.327  12.519 -0.6010 -1.8121 -1.2014
12926TIP3    H260270   3.137   4.276  12.612 -0.9417 -0.0525 -0.5996
12927TIP3   OH260271   2.849   4.657  16.260 -0.3225  0.1404 -0.1049
12927TIP3    H160272   2.919   4.714  16.292 -0.0296 -0.4171  0.2719
12927TIP3    H260273   2.874   4.637  16.170 -1.8113  2.7561 -1.1923
12928TIP3   OH260274   1.564   0.599   4.323 -0.0082 -0.1645 -0.7501
12928TIP3    H160275   1.639   0.544   4.347  0.9588  1.3160 -0.2386
12928TIP3    H260276   1.601   0.666   4.266 -1.6402 -1.5028 -3.6291
12929TIP3   OH260277   1.270   5.353  10.681 -0.2875 -0.0686 -0.1112
12929TIP3    H160278   1.236   5.441  10.689 -1.2794 -0.5933  2.4225
12929TIP3    H260279   1.340   5.348  10.747 -1.3710 -1.6140  0.9907
12930TIP3   OH260280   4.800   2.997  13.403 -0.0315 -0.1687  0.3781
12930TIP3    H160281   4.772   2.910  13.430 -2.2766  0.2939 -0.2574
12930TIP3    H260282   4.720   3.049  13.403  1.1410  1.7347  0.0706
12931TIP3   OH260283   5.579   0.843   5.268 -0.3339  0.2749  0.0863
12931TIP3    H160284   5.636   0.879   5.336  0.1052 -0.4462  0.1069
12931TIP3    H260285   5.521   0.783   5.314  0.8948 -1.3154 -0.3346
12932TIP3   OH260286   3.233   6.123  15.905 -0.1849 -0.0363  0.1792
12932TIP3    H160287   3.296   6.181  15.862 -1.2355  0.5161 -0.6795
12932TIP3    H260288   3.150   6.142  15.861 -0.5451 -2.2527 -0.1878
12933TIP3   OH260289   4.112   5.942   1.252 -0.0188  0.6080 -0.0576
12933TIP3    H160290   4.111   6.033   1.282 -2.1005  1.0467 -1.2848
12933TIP3    H260291   4.153   5.945   1.166  1.2530  0.1267  0.5073
12934TIP3   OH260292   1.611   2.795   5.359  0.5994  0.0996  0.2450
12934TIP3    H160293   1.620   2.889   5.344 -0.4159  0.3186  0.8695
12934TIP3    H260294   1.672   2.754   5.298 -1.1712  1.0418 -2.3159
12935TIP3   OH260295   3.863   0.825   4.177 -0.1290 -0.6687 -0.1088
12935TIP3    H160296   3.908   0.890   4.124 -1.1162  0.3428  0.2467
12935TIP3    H260297   3.790   0.796   4.121  0.0982 -1.2022 -0.1281
12936TIP3   OH260298   4.117   4.555   3.840 -0.1902 -0.1684 -0.6005
12936TIP3    H160299   4.049   4.587   3.781  0.4693 -0.4130 -1.5139
12936TIP3    H260300   4.184   4.623   3.839  0.0998 -0.4474 -0.6235
12937TIP3   OH260301   1.632   3.017  12.966  0.3693 -0.4519 -0.3021
12937TIP3    H160302   1.606   3.073  13.039 -3.1102 -1.2203 -0.7868
12937TIP3    H260303   1.696   2.956  13.003 -0.1699  0.1526  1.7157
12938TIP3   OH260304   2.843   0.651   4.798  0.0746  0.0723  0.7397
12938TIP3    H160305   2.774   0.590   4.823 -0.8556  0.3163 -1.0583
12938TIP3    H260306   2.808   0.737   4.822  0.9198  0.0195  2.2654
12939TIP3   OH260307   0.413   4.032  16.384 -0.1055 -0.1008 -0.6461
12939TIP3    H160308   0.374   3.948  16.409 -1.7973  0.0543 -2.5150
12939TIP3    H260309   0.487   4.008  16.328 -0.7009 -0.3568 -1.3310
12940TIP3   OH260310   2.447   2.875   2.268 -0.2582  0.1987 -0.2416
12940TIP3    H160311   2.367   2.824   2.278 -0.8449  1.3709  1.6666
12940TIP3    H260312   2.435   2.922   2.185 -0.9499 -0.6050 -0.6110
12941TIP3   OH260313   1.406   0.008   0.237  0.1953  0.6254  0.2198
12941TIP3    H160314   1.481   0.052   0.277  0.3989 -0.3727  0.9823
12941TIP3    H260315   1.416   0.024   0.143  0.9513  1.1340  0.3778
12942TIP3   OH260316   2.954   0.635   2.513  0.0601  0.6634 -0.3917
12942TIP3    H160317   2.932   0.551   2.474 -1.6279  1.3129 -0.9357
12942TIP3    H260318   3.050   0.638   2.512  0.1929 -1.4763  0.2034
12943TIP3   OH260319   2.561   5.881   2.976  0.1780  0.1518 -0.7257
12943TIP3    H160320   2.511   5.800   2.969 -1.3539  1.1711 -2.2748
12943TIP3    H260321   2.642   5.855   3.021 -0.8739 -1.9286  0.1132
12944TIP3   OH260322   1.362   0.646   4.059 -0.6550 -0.2832  0.2467
12944TIP3    H160323   1.364   0.742   4.068 -2.5976 -0.2412  0.5630
12944TIP3    H260324   1.414   0.628   3.981 -2.8282  1.3216 -1.7044
12945TIP3   OH260325   0.289   1.077   0.521 -0.0616  0.7185 -0.4799
12945TIP3    H160326   0.200   1.083   0.556 -0.4940  0.0348 -1.4182
12945TIP3    H260327   0.322   0.992   0.553 -0.0904  0.5493 -0.8947
12946TIP3   OH260328   5.076   4.015   1.629 -0.5420 -0.6705  0.0754
12946TIP3    H160329   5.129   3.964   1.567 -1.1579 -0.4521 -0.6431
12946TIP3    H260330   5.138   4.076   1.669  0.3476 -2.2818  1.3512
12947TIP3   OH260331   1.275   2.791   4.872  0.4330 -0.4147 -0.6766
12947TIP3    H160332   1.347   2.854   4.870  1.7891 -1.8235  0.4736
12947TIP3    H260333   1.202   2.838   4.913  1.8561  0.0232  1.5282
12948TIP3   OH260334   1.800   0.348   4.863 -0.1414 -0.1527 -0.2597
12948TIP3    H160335   1.763   0.342   4.775 -0.8334  0.5160 -0.0227
12948TIP3    H260336   1.747   0.288   4.916 -0.4328  0.2692 -0.0699
12949TIP3   OH260337   0.847   5.941   0.903 -0.2558  0.2086  0.1682
12949TIP3    H160338   0.855   5.968   0.994  0.5733  3.0913 -0.6709
12949TIP3    H260339   0.770   5.987   0.870 -1.0483 -1.4553 -0.4197
12950TIP3   OH260340   6.712   1.888  13.994 -0.3781  0.1901 -0.0823
12950TIP3    H160341   6.795   1.892  14.041  1.1888 -0.6319 -2.6213
12950TIP3    H260342   6.701   1.975  13.956 -0.8952  0.3989  0.5136
12951TIP3   OH260343   5.775   2.836  14.250  0.6690  0.6582 -0.7613
12951TIP3    H160344   5.744   2.914  14.298 -1.3597  0.4512 -1.6347
12951TIP3    H260345   5.846   2.801  14.305  1.9593  3.3299 -0.5553
12952TIP3   OH260346   3.916   2.673   3.191 -0.0496 -0.9256 -0.5369
12952TIP3    H160347   3.950   2.697   3.105  1.9807  1.4675  0.7804
12952TIP3    H260348   3.853   2.742   3.212 -0.8434 -1.7187 -0.2722
12953TIP3   OH260349   4.693   2.795   5.220  0.6337 -0.3627  0.1813
12953TIP3    H160350   4.688   2.805   5.125 -0.6251 -1.1710  0.1424
12953TIP3    H260351   4.713   2.883   5.252  0.1938  0.0986 -0.7787
12954TIP3   OH260352   2.703   2.726  12.507  0.2530 -0.3362  0.1958
12954TIP3    H160353   2.654   2.673  12.569 -1.6562  0.8919 -0.1805
12954TIP3    H260354   2.739   2.663  12.445  0.8030 -1.4334  1.5720
12955TIP3   OH260355   5.360   4.504   3.297  0.2808  0.7742 -0.4771
12955TIP3    H160356   5.354   4.586   3.346  2.2340  0.5617  0.2128
12955TIP3    H260357   5.388   4.440   3.362 -1.5520 -0.5479 -0.9274
12956TIP3   OH260358   0.779   6.746   5.695  0.1337 -0.2854  0.0135
12956TIP3    H160359   0.700   6.784   5.657  0.3633 -0.4300 -0.6257
12956TIP3    H260360   0.787   6.660   5.653  0.4282 -0.4234  0.3427
12957TIP3   OH260361   0.806   4.380   4.462 -0.1268  0.3970  0.2656
12957TIP3    H160362   0.728   4.377   4.517  0.4475 -0.2663  1.0609
12957TIP3    H260363   0.802   4.466   4.420 -0.2862  1.1596  1.7737
12958TIP3   OH260364   5.876   0.569  13.432  0.9199  0.2637  0.1924
12958TIP3    H160365   5.847   0.523  13.353 -1.1309  1.1144  0.3798
12958TIP3    H260366   5.931   0.506  13.478 -1.7039 -2.0516  0.4117
12959TIP3   OH260367   4.679   3.715  14.468 -0.1977 -0.1193  0.0391
12959TIP3    H160368   4.689   3.655  14.394 -1.9093 -1.0967  0.5527
12959TIP3    H260369   4.587   3.741  14.465 -0.2145  0.0920  1.6370
12960TIP3   OH260370   1.518   4.101  11.539  0.1287  0.3843  0.1992
12960TIP3    H160371   1.489   4.044  11.610  0.5510 -0.3589 -0.2189
12960TIP3    H260372   1.499   4.190  11.571 -0.1956  0.0365  1.0052
12961TIP3   OH260373   0.998   2.977  11.269 -0.4828 -0.0611 -0.6024
12961TIP3    H160374   0.973   2.887  11.247  2.0892 -1.0912  0.3218
12961TIP3    H260375   0.929   3.007  11.328 -1.0423 -1.6915 -0.3729
12962TIP3   OH260376   4.174   6.590  14.873 -0.2103 -0.4333  0.0757
12962TIP3    H160377   4.269   6.590  14.873 -0.1274  2.4456 -0.1955
12962TIP3    H260378   4.149   6.663  14.930 -2.2508 -1.1122  0.1418
12963TIP3   OH260379   4.943   5.467  13.412 -0.5725  0.2100 -0.2073
12963TIP3    H160380   4.857   5.486  13.449 -0.8280 -1.2166 -0.0215
12963TIP3    H260381   4.924   5.409  13.338  0.0057  2.1942 -2.0202
12964TIP3   OH260382   2.457   3.012   1.126 -0.0746  0.0644  0.2612
12964TIP3    H160383   2.388   2.971   1.179  0.2593 -2.3093 -0.9823
12964TIP3    H260384   2.417   3.093   1.093 -1.3687  0.0095  1.5709
12965TIP3   OH260385   3.738   4.747   2.040 -0.5965  0.0483  0.6226
12965TIP3    H160386   3.750   4.665   2.088 -0.0070  0.6850  1.5945
12965TIP3    H260387   3.797   4.809   2.082  0.6312  0.4355 -1.5192
12966TIP3   OH260388   3.794   2.303  15.212 -0.5463 -0.1566 -0.2856
12966TIP3    H160389   3.784   2.229  15.273  0.2035 -0.0335 -0.0107
12966TIP3    H260390   3.806   2.262  15.127  0.0302 -0.3661 -0.1105
12967TIP3   OH260391   3.433   3.659   2.659 -1.0714  0.2377 -0.6175
12967TIP3    H160392   3.453   3.678   2.568  0.5540  0.9605 -0.1559
12967TIP3    H260393   3.454   3.566   2.670  0.1807  0.5045 -0.6416
12968TIP3   OH260394   6.177   4.025  15.122  0.4963  0.0778 -0.0863
12968TIP3    H160395   6.122   3.973  15.065 -0.6863  0.9871  0.1773
12968TIP3    H260396   6.248   3.966  15.148 -0.1205 -0.9950 -0.7639
12969TIP3   OH260397   6.762   0.650  14.015 -0.2560 -0.9170 -0.3184
12969TIP3    H160398   6.809   0.599  14.081 -1.1727 -0.7200  0.5026
12969TIP3    H260399   6.811   0.733  14.010 -0.3835 -0.7959  0.3709
12970TIP3   OH260400   0.128   5.733   4.496  0.1463 -0.6491 -0.3951
12970TIP3    H160401   0.174   5.814   4.473  1.7710 -1.4011  0.0485
12970TIP3    H260402   0.044   5.763   4.532  0.2662  0.7774 -1.1923
12971TIP3   OH260403   6.308   4.109  13.479  0.3562  0.1132  0.8743
12971TIP3    H160404   6.381   4.051  13.455 -0.6046 -0.3571 -1.2086
12971TIP3    H260405   6.244   4.051  13.521 -1.0089 -0.7016 -2.0389
12972TIP3   OH260406   6.584   3.440   4.258  0.0756  0.0742  0.3183
12972TIP3    H160407   6.515   3.438   4.191 -1.3803 -0.2201  1.7700
12972TIP3    H260408   6.634   3.519   4.237 -1.0379  0.6128 -0.4666
12973TIP3   OH260409   6.302   0.202   0.346 -0.8646 -0.1956  0.3057
12973TIP3    H160410   6.213   0.237   0.340 -0.8045 -0.0807  0.0905
12973TIP3    H260411   6.296   0.133   0.413 -1.1483 -0.2946  0.1783
12974TIP3   OH260412   6.434   5.522   3.270  0.1576  0.0577 -0.0558
12974TIP3    H160413   6.494   5.545   3.341 -0.2459 -0.7994  0.5789
12974TIP3    H260414   6.480   5.550   3.190  0.8243  0.5965  0.5048
12975TIP3   OH260415   0.812   4.949  17.056 -0.1755  0.2768 -0.3770
12975TIP3    H160416   0.811   4.991  16.970  0.5032 -1.1425 -1.1155
12975TIP3    H260417   0.757   4.871  17.046  0.2874 -0.1547  0.3351
12976TIP3   OH260418   5.064   1.093   5.527  0.2566  0.2013  0.1395
12976TIP3    H160419   5.145   1.043   5.538  0.5514  0.7010  0.3295
12976TIP3    H260420   5.045   1.127   5.615  0.8682  1.6046 -0.2385
12977TIP3   OH260421   0.381   4.162  12.345 -0.1031 -0.0649  0.1232
12977TIP3    H160422   0.440   4.128  12.278  0.1392  0.4749  0.0535
12977TIP3    H260423   0.402   4.112  12.424 -2.0596 -2.4147 -0.7576
12978TIP3   OH260424   5.122   1.259  12.836 -0.3650 -0.4007  0.2531
12978TIP3    H160425   5.134   1.203  12.760 -2.8302 -0.0929 -0.4460
12978TIP3    H260426   5.181   1.333  12.822  0.8562 -1.4305 -0.1983
12979TIP3   OH260427   0.363   2.262   3.557 -0.1164 -0.6200 -0.3581
12979TIP3    H160428   0.286   2.309   3.587  0.3893  0.6035 -0.8934
12979TIP3    H260429   0.357   2.265   3.461  1.5308  1.2331 -0.4870
12980TIP3   OH260430   2.108   5.667  11.981 -0.0381 -0.3677  0.4655
12980TIP3    H160431   2.085   5.588  12.030 -0.2231 -0.0038  0.9783
12980TIP3    H260432   2.202   5.678  11.996  0.2318 -1.1394 -0.5725
12981TIP3   OH260433   5.234   5.753  16.947 -0.2239 -0.2240 -0.2188
12981TIP3    H160434   5.178   5.685  16.984 -0.3247  0.2669  0.5458
12981TIP3    H260435   5.176   5.804  16.890 -0.1757 -0.6990 -0.6994
12982TIP3   OH260436   6.335   5.231  17.069  0.1267  0.1380  0.1038
12982TIP3    H160437   6.326   5.157  17.129  0.2577  1.3570  1.7169
12982TIP3    H260438   6.378   5.299  17.122  0.6673  1.1255 -1.5297
12983TIP3   OH260439   4.026   6.567  11.258 -0.0756  0.2158 -0.6929
12983TIP3    H160440   4.079   6.568  11.338 -0.0916 -0.0070 -0.6788
12983TIP3    H260441   4.077   6.515  11.196 -0.6989 -0.7970 -0.3880
12984TIP3   OH260442   1.592   4.900   0.407 -0.2551  0.6652 -0.3602
12984TIP3    H160443   1.541   4.960   0.352 -0.7310  0.1907 -0.4477
12984TIP3    H260444   1.547   4.815   0.398  0.8164  0.1221 -0.8054
12985TIP3   OH260445   5.650   5.370   3.083  0.1058  0.5859  0.1736
12985TIP3    H160446   5.683   5.361   2.993 -1.1224  0.9454 -0.3228
12985TIP3    H260447   5.555   5.363   3.075  0.0443 -3.0295  1.8684
12986TIP3   OH260448   1.991   1.410  16.170 -0.1465  0.1394 -0.3374
12986TIP3    H160449   2.041   1.455  16.101  1.1872 -0.2690  0.3362
12986TIP3    H260450   2.008   1.462  16.249  0.3154 -0.7718  0.1729
12987TIP3   OH260451   2.949   3.662   2.651 -0.1795 -0.4215 -0.3784
12987TIP3    H160452   3.039   3.692   2.658  0.1050 -0.8867 -1.7748
12987TIP3    H260453   2.921   3.688   2.564 -1.0448 -1.2229 -0.3611
12988TIP3   OH260454   2.334   6.629  12.627 -0.1621 -0.4545 -0.3808
12988TIP3    H160455   2.305   6.717  12.602  0.8568  0.1088  0.3845
12988TIP3    H260456   2.411   6.643  12.681 -0.9476 -1.7541  1.1565
12989TIP3   OH260457   2.259   4.457   5.405  0.4864 -0.6728 -0.0940
12989TIP3    H160458   2.248   4.500   5.490 -0.1351 -0.8535 -0.0772
12989TIP3    H260459   2.354   4.447   5.395  0.5473 -1.0603  0.7784
12990TIP3   OH260460   1.126   6.037  15.039  0.5228  0.2454 -0.3625
12990TIP3    H160461   1.117   5.947  15.072  2.0233  0.1526 -0.1756
12990TIP3    H260462   1.120   6.029  14.944 -0.2217  0.0747 -0.3123
12991TIP3   OH260463   2.100   2.152  16.082 -0.9005 -0.4582  0.6570
12991TIP3    H160464   2.095   2.075  16.140 -0.5782 -0.7271  0.3326
12991TIP3    H260465   2.016   2.152  16.035 -0.3366 -1.4533 -0.3883
12992TIP3   OH260466   2.669   0.859  17.048  0.2104 -0.0502  0.3803
12992TIP3    H160467   2.652   0.906  17.130 -1.1012  0.4365 -0.1461
12992TIP3    H260468   2.584   0.822  17.024  0.1828  1.1449 -1.5690
12993TIP3   OH260469   4.095   1.776   2.892 -0.0825 -0.6778  0.0935
12993TIP3    H160470   4.167   1.816   2.843 -0.1738 -2.1325 -1.3187
12993TIP3    H260471   4.033   1.847   2.906  0.8050  0.1902 -0.2704
12994TIP3   OH260472   1.675   3.648   3.517 -0.3489 -0.1790  0.1446
12994TIP3    H160473   1.712   3.700   3.589 -0.5299  0.0253  0.0923
12994TIP3    H260474   1.581   3.669   3.519 -0.4330 -0.5492  0.1584
12995TIP3   OH260475   4.411   2.022   1.374  0.1397 -0.0097 -0.2420
12995TIP3    H160476   4.359   1.962   1.427 -0.5065  1.1444  0.4723
12995TIP3    H260477   4.347   2.064   1.316  0.7722 -0.9421 -1.7025
12996TIP3   OH260478   4.305   6.109   3.112  0.0033 -0.3106 -0.2209
12996TIP3    H160479   4.339   6.198   3.114 -1.2552  0.1829 -0.0794
12996TIP3    H260480   4.229   6.110   3.170 -1.2154 -0.9514 -1.7165
12997TIP3   OH260481   4.257   3.489  14.836 -0.6411  0.1889  0.3579
12997TIP3    H160482   4.208   3.551  14.890 -1.1539 -1.1607  1.5041
12997TIP3    H260483   4.320   3.543  14.788 -0.8258  1.5441  1.5824
12998TIP3   OH260484   6.487   0.954  13.534 -0.1700 -0.0859  0.6644
12998TIP3    H160485   6.517   0.864  13.540 -0.8244 -0.3148  0.5676
12998TIP3    H260486   6.396   0.951  13.563 -0.3965  0.4289  0.0283
12999TIP3   OH260487   0.163   2.955  16.345  0.0688 -0.0052 -0.1402
12999TIP3    H160488   0.190   2.868  16.376 -1.0370 -0.8303 -1.4254
12999TIP3    H260489   0.140   3.002  16.425 -0.2239 -1.2090  0.5055
13000TIP3   OH260490   2.191   0.559   4.675  0.1098 -0.4596 -0.4478
13000TIP3    H160491   2.145   0.561   4.591 -0.7218 -0.7125 -0.0066
13000TIP3    H260492   2.275   0.517   4.655 -0.3806 -1.1914 -1.0119
13001TIP3   OH260493   2.534   5.789   1.071 -0.2410  0.0565 -0.2427
13001TIP3    H160494   2.441   5.809   1.067 -0.3030 -0.0018  0.6999
13001TIP3    H260495   2.541   5.719   1.135  0.4816  0.2312 -0.1165
13002TIP3   OH260496   2.499   5.946   2.609  0.3659  0.3205  0.4801
13002TIP3    H160497   2.558   5.872   2.627 -0.6384 -0.3488  1.1211
13002TIP3    H260498   2.484   5.943   2.515  1.5937  0.6914  0.2580
13003TIP3   OH260499   4.792   6.417   4.816  0.1737  0.1022 -0.2884
13003TIP3    H160500   4.787   6.498   4.867 -0.6035 -0.6277  0.8455
13003TIP3    H260501   4.874   6.377   4.844  0.7777  0.6744 -1.1716
13004TIP3   OH260502   2.230   0.134  15.628 -0.2356 -0.2187  0.1285
13004TIP3    H160503   2.308   0.085  15.601  0.2039  0.5185  0.0487
13004TIP3    H260504   2.157   0.078  15.603  0.2240 -0.2937 -1.0827
13005TIP3   OH260505   2.189   4.297   1.699  0.3742 -0.6272  0.0621
13005TIP3    H160506   2.196   4.384   1.740  1.4710  0.2068 -1.7919
13005TIP3    H260507   2.100   4.295   1.663  0.3514 -0.2625  0.0898
13006TIP3   OH260508   1.580   6.727  12.720  0.3970  0.0642  0.2363
13006TIP3    H160509   1.522   6.775  12.661 -0.0920 -1.0160 -0.1828
13006TIP3    H260510   1.667   6.761  12.700  0.3864 -1.0048 -1.8924
13007TIP3   OH260511   6.112   5.281   1.868  0.4476  0.7050  0.1520
13007TIP3    H160512   6.171   5.340   1.821 -0.4062  0.2026 -1.6481
13007TIP3    H260513   6.043   5.262   1.805 -0.9747  0.2699  1.7705
13008TIP3   OH260514   6.562   5.559  13.811  0.3554 -0.3414  0.1801
13008TIP3    H160515   6.574   5.631  13.874  0.9837 -0.7549  0.5396
13008TIP3    H260516   6.642   5.559  13.759  0.9000 -1.5232  0.9600
13009TIP3   OH260517   5.386   6.370  13.827 -0.5119  0.1263  0.5177
13009TIP3    H160518   5.447   6.427  13.780 -1.5344 -0.6790 -1.9180
13009TIP3    H260519   5.437   6.293  13.848 -0.1083  0.3870  0.5045
13010TIP3   OH260520   2.193   2.497  17.312 -0.1019  0.2324  0.1097
13010TIP3    H160521   2.199   2.555  17.236 -0.4612  0.5438  0.3190
13010TIP3    H260522   2.125   2.434  17.288  1.1805 -0.9399 -0.6647
13011TIP3   OH260523   4.284   3.798   2.485  0.3609 -0.1320 -0.3270
13011TIP3    H160524   4.277   3.873   2.543 -0.0901 -0.7537  0.4515
13011TIP3    H260525   4.211   3.741   2.511  0.6300 -0.7831 -0.9654
13012TIP3   OH260526   2.797   5.035  12.086  0.1344 -0.0992 -0.3949
13012TIP3    H160527   2.813   5.043  11.992  1.7891 -0.4852 -0.1872
13012TIP3    H260528   2.708   5.001  12.093 -0.0453  0.0241 -1.8164
13013TIP3   OH260529   6.033   5.787  16.858  0.0434 -0.0143 -0.0802
13013TIP3    H160530   6.068   5.755  16.775 -2.1767  3.5414 -2.7012
13013TIP3    H260531   5.943   5.755  16.859  0.1538 -0.3068  1.1384
13014TIP3   OH260532   6.696   6.256   3.720 -0.0285 -0.3599  0.0831
13014TIP3    H160533   6.628   6.317   3.747  1.4679  0.9905  1.0065
13014TIP3    H260534   6.737   6.296   3.644  0.6911 -0.3835  0.4393
13015TIP3   OH260535   1.215   3.690   2.425  0.9593 -0.7809 -0.2290
13015TIP3    H160536   1.289   3.694   2.486  0.3889 -0.7003  0.4828
13015TIP3    H260537   1.166   3.771   2.441  2.7261  1.1113 -3.3872
13016TIP3   OH260538   0.918   1.817   4.014  0.6060 -0.2503  0.0924
13016TIP3    H160539   0.908   1.724   3.993  0.9160 -0.0913 -0.7696
13016TIP3    H260540   1.004   1.841   3.979 -0.1212  0.7364 -1.0903
13017TIP3   OH260541   1.318   3.522   3.869  0.1297  0.1751 -0.7705
13017TIP3    H160542   1.388   3.580   3.900  0.1398  0.8235 -1.9373
13017TIP3    H260543   1.363   3.450   3.825  0.0877  0.9473 -2.1345
13018TIP3   OH260544   5.504   0.518   0.059  0.0611  0.2783  0.1838
13018TIP3    H160545   5.452   0.553   0.131 -1.7862 -1.8908  0.0183
13018TIP3    H260546   5.474   0.566  -0.019  0.2465  0.8686  0.4726
13019TIP3   OH260547   2.830   2.781   0.973  0.5170 -0.2629 -0.4316
13019TIP3    H160548   2.806   2.689   0.982 -2.7497  0.5630  0.9123
13019TIP3    H260549   2.868   2.804   1.058  2.3749 -0.5665 -1.1411
13020TIP3   OH260550   0.145   3.590  11.845  0.0340  0.2276  0.1019
13020TIP3    H160551   0.177   3.675  11.875  0.4153  0.0985  0.0633
13020TIP3    H260552   0.050   3.597  11.850 -0.0095  1.2269 -1.3938
13021TIP3   OH260553   1.260   5.140   5.470 -0.0553 -0.4935 -0.0692
13021TIP3    H160554   1.309   5.198   5.410 -0.5471  1.7345  1.5439
13021TIP3    H260555   1.201   5.091   5.413  1.5414 -0.6616 -1.6885
13022TIP3   OH260556   2.931   2.024  11.123  0.3797 -0.4686 -0.9430
13022TIP3    H160557   2.996   2.078  11.079  0.6758 -1.7298 -2.1183
13022TIP3    H260558   2.884   1.979  11.052 -2.5721  1.2078 -0.2328
13023TIP3   OH260559   1.384   1.199   4.301  0.2379 -0.3509  0.1280
13023TIP3    H160560   1.394   1.220   4.208  1.6042 -1.0473  0.0831
13023TIP3    H260561   1.293   1.170   4.309  0.4617 -1.6215 -1.3044
13024TIP3   OH260562   3.186   3.204  15.339 -0.2069 -0.1172  0.3643
13024TIP3    H160563   3.159   3.116  15.315 -0.7192  0.4891 -1.4502
13024TIP3    H260564   3.203   3.248  15.255 -0.0103  1.5228  1.2155
13025TIP3   OH260565   0.639   1.221  17.066 -0.9617 -0.0394  0.1031
13025TIP3    H160566   0.546   1.225  17.045 -0.8169 -1.2960 -0.9075
13025TIP3    H260567   0.683   1.224  16.981 -0.0812  0.2651  0.5573
13026TIP3   OH260568   1.902   3.184   4.030 -0.0899  0.0317  0.6733
13026TIP3    H160569   1.841   3.174   4.104 -0.0894  0.2085  0.6991
13026TIP3    H260570   1.918   3.095   4.000 -1.3575  0.0634 -0.1460
13027TIP3   OH260571   1.364   4.735   5.570  0.2300 -0.0333 -0.6312
13027TIP3    H160572   1.303   4.684   5.624  0.7223  0.5955  0.5470
13027TIP3    H260573   1.376   4.817   5.618  2.8155 -0.5555 -0.2619
13028TIP3   OH260574   2.974   2.528  17.156 -0.7010  0.2622  0.1274
13028TIP3    H160575   2.935   2.615  17.155 -0.5448  0.3412 -1.4897
13028TIP3    H260576   3.065   2.543  17.183 -0.7742  0.5365  0.2242
13029TIP3   OH260577   4.416   4.856   1.967  0.3450 -0.0163 -0.2128
13029TIP3    H160578   4.424   4.827   1.876  0.5181 -0.8821  0.0626
13029TIP3    H260579   4.371   4.783   2.011  2.9117 -0.9753  1.0094
13030TIP3   OH260580   0.143   1.611   6.501  0.5247 -0.2416 -1.1202
13030TIP3    H160581   0.112   1.684   6.555  2.1058 -1.1094  1.0829
13030TIP3    H260582   0.190   1.654   6.429 -0.4224  0.9315 -1.0768
13031TIP3   OH260583   6.305   1.405  16.408  0.2782  0.4767  0.3737
13031TIP3    H160584   6.302   1.403  16.503 -0.0329  2.0632  0.4257
13031TIP3    H260585   6.390   1.444  16.386 -0.2589  1.5214  0.0645
13032TIP3   OH260586   4.410   4.086   2.004  0.2158 -0.3387  0.0229
13032TIP3    H160587   4.404   4.012   2.065 -0.5280 -0.6313 -0.3953
13032TIP3    H260588   4.498   4.078   1.967 -0.1630 -1.5527 -0.6751
13033TIP3   OH260589   1.439   0.004   4.108  0.3121 -0.1934  0.0550
13033TIP3    H160590   1.458   0.043   4.193  1.2260 -1.8741  0.6576
13033TIP3    H260591   1.389   0.072   4.061 -0.8155  0.5216  2.1616
13034TIP3   OH260592   5.292   5.823  14.275  0.0645  0.2580  0.0732
13034TIP3    H160593   5.360   5.767  14.311 -0.3320 -1.5741 -1.8306
13034TIP3    H260594   5.218   5.764  14.259 -0.2173  1.1651 -2.4324
13035TIP3   OH260595   1.160   1.411   3.908  0.0192 -0.2343  0.2170
13035TIP3    H160596   1.199   1.484   3.860 -0.7575  1.2220  1.6725
13035TIP3    H260597   1.214   1.402   3.987  0.4216 -1.6192 -0.1859
13036TIP3   OH260598   0.600   6.108   3.266 -0.0363  0.2996  0.1990
13036TIP3    H160599   0.632   6.096   3.356 -1.2559  0.4103  0.6648
13036TIP3    H260600   0.678   6.128   3.216  0.6401  0.4794  1.2864
13037TIP3   OH260601   0.352   3.450   2.479  0.3447 -0.3510 -0.3437
13037TIP3    H160602   0.447   3.442   2.478  0.4704  0.3233  1.8868
13037TIP3    H260603   0.335   3.544   2.472 -0.0124 -0.2115  1.7317
13038TIP3   OH260604   2.572   4.766  13.791 -0.3048  0.2321  0.0391
13038TIP3    H160605   2.572   4.671  13.804 -1.4743  0.1954 -0.1981
13038TIP3    H260606   2.665   4.788  13.783 -0.0059 -0.8577  0.3038
13039TIP3   OH260607   3.214   1.242  14.609  0.4855  0.1496  0.5212
13039TIP3    H160608   3.160   1.238  14.529  0.8123  1.8400  0.1754
13039TIP3    H260609   3.264   1.161  14.607 -0.2355 -0.3052 -0.4722
13040TIP3   OH260610   3.628   0.113   1.535 -0.5833 -0.1393  0.1344
13040TIP3    H160611   3.667   0.200   1.526 -2.4566  0.5460 -2.1770
13040TIP3    H260612   3.534   0.130   1.544 -0.8775 -1.9012  0.5979
13041TIP3   OH260613   4.313   4.485  13.271  0.0358  0.1342 -0.1444
13041TIP3    H160614   4.362   4.495  13.189 -0.8684  0.7157 -0.6362
13041TIP3    H260615   4.226   4.518  13.250 -0.2694  0.0855  1.0032
13042TIP3   OH260616   6.644   4.786   1.064 -0.1826 -0.0352 -0.6423
13042TIP3    H160617   6.635   4.810   1.156 -1.8848  0.2539 -0.8406
13042TIP3    H260618   6.616   4.695   1.060 -0.2534 -0.0051 -0.8812
13043TIP3   OH260619   2.473   4.169  16.587 -0.5427  0.2097  0.0012
13043TIP3    H160620   2.555   4.159  16.538  0.0694 -1.0809  1.2088
13043TIP3    H260621   2.408   4.119  16.537  0.3205 -2.0309  0.9885
13044TIP3   OH260622   3.330   0.849   1.338 -0.0659  0.4547 -1.0506
13044TIP3    H160623   3.322   0.925   1.281 -0.8239  0.2390 -1.2439
13044TIP3    H260624   3.279   0.872   1.416  0.4716  0.5101 -0.7090
13045TIP3   OH260625   1.922   0.812   0.747 -0.1188 -0.5851  0.0957
13045TIP3    H160626   2.015   0.836   0.745 -0.5176  1.2366  1.2902
13045TIP3    H260627   1.893   0.822   0.657  0.8632 -1.3318 -0.3243
13046TIP3   OH260628   1.009   0.621  10.483  0.0579  0.0684 -0.8122
13046TIP3    H160629   0.977   0.535  10.509 -0.3695  0.7979  1.2476
13046TIP3    H260630   0.930   0.675  10.474  0.4203  0.6540 -0.5095
13047TIP3   OH260631   3.050   3.264  13.765 -0.0893 -0.8716  0.5212
13047TIP3    H160632   3.076   3.183  13.809 -0.6789 -0.7750  1.0659
13047TIP3    H260633   3.036   3.327  13.836  0.4889 -0.2458  0.0954
13048TIP3   OH260634   1.372   3.245  14.543 -0.1872 -1.1157  0.1291
13048TIP3    H160635   1.354   3.325  14.593  0.9540  0.5629 -1.9708
13048TIP3    H260636   1.348   3.267  14.453 -0.1745 -3.2909 -0.4637
13049TIP3   OH260637   1.516   4.487  11.125 -0.0236 -0.6424 -0.3496
13049TIP3    H160638   1.517   4.394  11.105  1.5538 -0.5664 -0.7082
13049TIP3    H260639   1.476   4.528  11.048 -1.7531 -1.0787  0.2614
13050TIP3   OH260640   1.972   1.699  12.664 -0.0365  0.2890 -0.3832
13050TIP3    H160641   2.058   1.696  12.623 -0.0523  0.1958 -0.4080
13050TIP3    H260642   1.990   1.701  12.758 -0.0324 -0.6866 -0.3599
13051TIP3   OH260643   5.127   6.547   0.910  0.0695  0.3559  0.1460
13051TIP3    H160644   5.073   6.472   0.888  0.4309 -0.3712  1.6247
13051TIP3    H260645   5.080   6.622   0.873 -0.2307 -0.5756 -1.4652
13052TIP3   OH260646   5.088   1.857   3.125 -0.5046  0.4420  0.1274
13052TIP3    H160647   5.105   1.765   3.143 -1.7563 -0.0972 -1.2053
13052TIP3    H260648   5.050   1.891   3.206 -2.4345 -0.9008 -0.1545
13053TIP3   OH260649   6.359   5.093   0.137 -0.1686  0.5336  0.3472
13053TIP3    H160650   6.360   5.184   0.107 -2.1370  0.5940  0.3512
13053TIP3    H260651   6.416   5.047   0.075  1.3417  1.8398  0.7091
13054TIP3   OH260652   0.936   4.331  15.298  0.1047 -0.0592  0.0574
13054TIP3    H160653   1.031   4.336  15.289 -0.0035  0.4701 -0.8718
13054TIP3    H260654   0.912   4.414  15.338 -0.1071  0.4464 -1.0808
13055TIP3   OH260655   2.706   0.335   3.102  0.2418 -0.5184 -0.6329
13055TIP3    H160656   2.664   0.300   3.023 -2.2317 -2.0398  1.2196
13055TIP3    H260657   2.711   0.429   3.087 -2.1472 -0.5081 -1.7955
13056TIP3   OH260658   2.119   4.760   3.135  0.5155  0.1420 -0.1432
13056TIP3    H160659   2.101   4.853   3.149  0.9338  0.3187 -0.7350
13056TIP3    H260660   2.035   4.716   3.153 -0.8395  1.0015 -3.5592
13057TIP3   OH260661   6.370   5.567  12.107  1.0381 -0.1394 -0.1777
13057TIP3    H160662   6.370   5.615  12.024  0.2666 -0.5405 -0.4245
13057TIP3    H260663   6.405   5.481  12.085  2.0731  0.1826  0.1902
13058TIP3   OH260664   1.766   2.541  10.497 -0.3377  0.6143  0.0788
13058TIP3    H160665   1.801   2.456  10.525 -1.4752 -0.3061 -1.1610
13058TIP3    H260666   1.820   2.566  10.422  0.2506  1.1959  0.6868
13059TIP3   OH260667   1.474   2.328   1.573  0.5109 -0.9116  0.1424
13059TIP3    H160668   1.518   2.380   1.505  1.1390 -0.6653  0.7225
13059TIP3    H260669   1.521   2.350   1.653 -2.2829  1.4480  1.3369
13060TIP3   OH260670   6.640   0.454   2.284  0.3633  0.3984 -0.4415
13060TIP3    H160671   6.735   0.461   2.295  0.2607 -1.0732  2.1471
13060TIP3    H260672   6.628   0.406   2.202  1.8667  0.2126 -0.5748
13061TIP3   OH260673   3.704   0.638  13.053 -0.2278  0.1809 -0.2972
13061TIP3    H160674   3.767   0.570  13.074 -1.2548 -0.7788 -0.2391
13061TIP3    H260675   3.723   0.662  12.962  1.3275  1.1563  0.2564
13062TIP3   OH260676   0.386   5.462   5.194  0.4662 -0.0639 -0.2923
13062TIP3    H160677   0.424   5.433   5.111 -1.4035 -1.9706 -0.5702
13062TIP3    H260678   0.392   5.558   5.191  3.5703 -0.1877 -1.0257
13063TIP3   OH260679   3.600   1.383   4.407 -0.1364 -0.0319  0.0940
13063TIP3    H160680   3.694   1.371   4.396 -0.0999 -0.0702  0.4255
13063TIP3    H260681   3.583   1.472   4.377 -0.4549 -0.9287 -2.6804
13064TIP3   OH260682   3.293   0.440  17.376 -0.1679  0.0317 -0.0260
13064TIP3    H160683   3.363   0.375  17.369  0.7133  0.7766  1.5588
13064TIP3    H260684   3.219   0.399  17.330  0.8357 -1.4074 -0.4368
13065TIP3   OH260685   1.456   2.294   0.111 -0.2120 -0.6659 -0.0788
13065TIP3    H160686   1.368   2.300   0.074 -0.0509 -1.5819 -0.6188
13065TIP3    H260687   1.449   2.228   0.180 -0.4877  0.9500  1.5163
13066TIP3   OH260688   0.551   3.091   3.815 -0.0836 -0.0649  0.2952
13066TIP3    H160689   0.532   3.066   3.905 -1.4741  0.5073  0.1862
13066TIP3    H260690   0.465   3.101   3.774  0.5138  0.3276 -0.9174
13067TIP3   OH260691   0.511   4.408  17.065 -0.0524 -0.0325 -0.3143
13067TIP3    H160692   0.536   4.451  17.147 -1.1415  0.0762 -0.0197
13067TIP3    H260693   0.415   4.401  17.070 -0.2096  0.6299 -1.8952
13068TIP3   OH260694   4.595   6.138   0.526  0.0269  0.2283  0.5585
13068TIP3    H160695   4.576   6.048   0.499 -1.4024  0.3904  0.9384
13068TIP3    H260696   4.598   6.134   0.622  1.6518  0.2939  0.5449
13069TIP3   OH260697   5.896   5.954  13.128 -0.2512  0.4091  0.4845
13069TIP3    H160698   5.972   6.012  13.124 -0.9506  1.3110 -2.1162
13069TIP3    H260699   5.933   5.866  13.123  0.6710  0.7532  0.8952
13070TIP3   OH260700   1.358   4.587   0.139 -0.0266  0.2065 -0.3872
13070TIP3    H160701   1.283   4.646   0.148 -0.4522 -0.4868  0.7483
13070TIP3    H260702   1.381   4.564   0.229 -0.9143 -2.6603 -0.8004
13071TIP3   OH260703   4.844   3.891  13.144  0.9241  0.1328 -0.0436
13071TIP3    H160704   4.804   3.869  13.059  0.7278  1.6345 -0.3702
13071TIP3    H260705   4.782   3.858  13.209 -0.0186  0.8796 -0.5267
13072TIP3   OH260706   4.562   6.111  14.201  0.0349  0.4007  0.3248
13072TIP3    H160707   4.528   6.156  14.279 -0.8281 -0.6780  0.6038
13072TIP3    H260708   4.632   6.054  14.235  0.5555  0.8939  0.0994
13073TIP3   OH260709   6.518   3.838  12.466  0.4694  0.5939  0.3534
13073TIP3    H160710   6.573   3.913  12.447 -1.1532  1.6140 -0.5528
13073TIP3    H260711   6.445   3.845  12.404 -0.3183 -1.0808  1.0198
13074TIP3   OH260712   2.013   4.935   5.997 -0.5383 -0.4294  0.6771
13074TIP3    H160713   2.004   4.919   6.091 -1.3089  0.0192  0.6928
13074TIP3    H260714   1.994   5.029   5.987  1.2502 -0.0706  0.2814
13075TIP3   OH260715   1.301   3.642  16.352 -0.3909 -0.1238 -0.5366
13075TIP3    H160716   1.255   3.704  16.409 -3.2684 -1.6612 -1.0300
13075TIP3    H260717   1.332   3.573  16.411  1.7597  1.0489 -0.1622
13076TIP3   OH260718   0.941   1.463   5.629  0.7076  0.0669 -0.0674
13076TIP3    H160719   0.956   1.411   5.550  1.2726  0.4230 -0.1954
13076TIP3    H260720   0.897   1.542   5.599  0.2849 -0.1144  0.0668
13077TIP3   OH260721   5.542   5.719   5.654  0.3691  0.1581 -0.4431
13077TIP3    H160722   5.453   5.686   5.643 -0.1329  0.6975  1.6223
13077TIP3    H260723   5.597   5.641   5.650 -0.6017 -0.7475  2.2240
13078TIP3   OH260724   4.432   5.902   0.743 -0.0941 -0.6631 -0.1843
13078TIP3    H160725   4.482   5.927   0.820  2.4081  0.3614 -2.0065
13078TIP3    H260726   4.489   5.840   0.697 -0.6432  0.2198 -2.1567
13079TIP3   OH260727   5.468   0.946   3.616 -0.0014 -0.7112 -0.2643
13079TIP3    H160728   5.402   0.897   3.567  0.6784 -0.8387 -1.0627
13079TIP3    H260729   5.480   1.026   3.566 -0.3650 -0.1664  0.4940
13080TIP3   OH260730   2.845   0.195   4.019 -0.5618  0.2968  0.4624
13080TIP3    H160731   2.896   0.120   4.048 -0.2666 -0.3919 -1.6739
13080TIP3    H260732   2.893   0.228   3.943 -0.8877  2.4514  1.1077
13081TIP3   OH260733   2.781   2.354  16.425 -0.3742  0.3662 -0.3342
13081TIP3    H160734   2.721   2.400  16.483 -0.7382 -0.5342  0.0109
13081TIP3    H260735   2.734   2.349  16.341 -1.0252 -0.8124  0.0817
13082TIP3   OH260736   3.064   1.119   5.674  0.2556 -0.0221  0.7959
13082TIP3    H160737   3.128   1.190   5.687  0.1935  0.5822 -1.6200
13082TIP3    H260738   3.114   1.039   5.686  0.9330  0.4338  1.0943
13083TIP3   OH260739   1.614   5.417  11.917 -0.1690 -0.9071  0.4189
13083TIP3    H160740   1.539   5.456  11.872  1.3489  2.6618  0.6733
13083TIP3    H260741   1.673   5.390  11.847 -0.1628 -0.4529  0.2508
13084TIP3   OH260742   0.707   2.457   4.999  0.7668  0.1088  0.0649
13084TIP3    H160743   0.652   2.508   5.059 -1.7143  0.0388 -1.9772
13084TIP3    H260744   0.698   2.366   5.028  2.2225  0.3546  1.4581
13085TIP3   OH260745   6.321   4.926  12.912 -0.4035  0.2623  0.3554
13085TIP3    H160746   6.309   4.839  12.874  1.3558  0.0931  0.1283
13085TIP3    H260747   6.339   4.910  13.004  1.8151  0.2077 -0.0354
13086TIP3   OH260748   4.065   0.187  12.241  0.5460 -0.2173  1.1420
13086TIP3    H160749   4.046   0.268  12.193  0.4263 -0.5355  0.6460
13086TIP3    H260750   4.083   0.122  12.173  2.0210 -0.2762  1.5472
13087TIP3   OH260751   0.672   1.709   5.237  0.8570  0.5747  0.1833
13087TIP3    H160752   0.738   1.745   5.178  0.3260  1.2347 -0.0096
13087TIP3    H260753   0.629   1.785   5.276 -0.6970  0.1937 -0.6979
13088TIP3   OH260754   5.472   5.957   5.306 -0.5793 -0.5034  0.0171
13088TIP3    H160755   5.382   5.977   5.279 -0.3845 -0.4901 -0.6481
13088TIP3    H260756   5.497   5.881   5.253 -0.9433 -1.8964  1.7524
13089TIP3   OH260757   5.423   1.907   1.350 -0.3589 -0.0111  0.0493
13089TIP3    H160758   5.424   1.994   1.391 -1.0508  0.3727 -0.7292
13089TIP3    H260759   5.464   1.920   1.264  0.6252 -0.7120  0.3851
13090TIP3   OH260760   1.670   6.058  12.813 -0.0753 -0.1454 -0.0030
13090TIP3    H160761   1.722   5.978  12.810 -0.3570 -0.3041 -1.0495
13090TIP3    H260762   1.718   6.115  12.872 -0.4220 -1.4603  1.6446
13091TIP3   OH260763   4.217   4.564  11.382 -0.0171 -0.5590  0.1702
13091TIP3    H160764   4.235   4.584  11.291  0.8037 -0.0799  0.4279
13091TIP3    H260765   4.134   4.516  11.380  0.5485 -1.5262 -0.9200
13092TIP3   OH260766   3.273   4.167   0.185 -0.6133  0.7541  0.1185
13092TIP3    H160767   3.253   4.234   0.120  1.7445  1.3087 -0.1068
13092TIP3    H260768   3.249   4.085   0.142 -1.1105  1.2685 -0.6168
13093TIP3   OH260769   2.217   6.368   6.642  0.2594 -0.1245  0.8342
13093TIP3    H160770   2.227   6.345   6.734  0.9203  2.0700  1.3800
13093TIP3    H260771   2.291   6.325   6.599  0.1565 -0.8691  1.3921
13094TIP3   OH260772   1.160   0.126  12.349 -0.2399  0.2311  0.2278
13094TIP3    H160773   1.237   0.175  12.318 -0.2524  0.3926  0.4502
13094TIP3    H260774   1.085   0.181  12.324 -0.3186 -0.1821 -0.4706
13095TIP3   OH260775   4.416   2.831   3.201 -0.2115  0.0980 -0.2227
13095TIP3    H160776   4.369   2.913   3.184  0.1545  0.1775 -0.8787
13095TIP3    H260777   4.491   2.834   3.142  0.3997 -0.2149  0.5215
13096TIP3   OH260778   4.840   3.498   1.898  0.3517  0.0486 -0.1243
13096TIP3    H160779   4.803   3.536   1.977 -0.2931 -1.4099  0.3210
13096TIP3    H260780   4.776   3.432   1.871  0.6309  0.4184 -1.7803
13097TIP3   OH260781   6.407   0.222   1.993  0.7726  0.6078 -0.0411
13097TIP3    H160782   6.319   0.259   1.997  0.0735 -0.5824 -2.5792
13097TIP3    H260783   6.453   0.277   1.930  0.7693 -0.6862 -1.2308
13098TIP3   OH260784   0.651   0.145  17.069 -0.0685  0.3208 -0.2141
13098TIP3    H160785   0.733   0.180  17.103  0.3994 -1.0840  0.1702
13098TIP3    H260786   0.609   0.105  17.146 -0.5144 -0.0698 -0.6549
13099TIP3   OH260787   0.584   3.109   5.992  0.4936  0.6210  0.2628
13099TIP3    H160788   0.657   3.156   6.032  1.1248  1.1078 -1.4009
13099TIP3    H260789   0.624   3.042   5.937 -0.3754 -0.5988  1.0523
13100TIP3   OH260790   1.057   1.565  14.971 -0.4199  0.9566 -1.2934
13100TIP3    H160791   0.973   1.520  14.984 -0.3843  1.3224  0.4211
13100TIP3    H260792   1.038   1.657  14.990  0.8695  0.6852  1.7545
13101TIP3   OH260793   1.450   4.435  12.323  0.0423 -0.2969  0.2272
13101TIP3    H160794   1.379   4.460  12.264 -0.5754 -2.6888 -0.1480
13101TIP3    H260795   1.407   4.385  12.393  1.0985  0.1875  1.2618
13102TIP3   OH260796   3.465   1.574  17.368  0.5312  0.4559  0.3921
13102TIP3    H160797   3.537   1.538  17.420 -0.1451 -1.2759  0.2007
13102TIP3    H260798   3.438   1.653  17.415  2.5819  1.1996  0.4110
13103TIP3   OH260799   2.792   0.600  11.943 -0.4152  0.0035  0.0258
13103TIP3    H160800   2.865   0.570  11.998 -1.2818 -1.0631  0.6121
13103TIP3    H260801   2.835   0.640  11.866  0.7821 -0.8541  0.2271
13104TIP3   OH260802   0.928   3.775   5.684  0.0661  0.0845 -0.3317
13104TIP3    H160803   0.920   3.719   5.762 -1.2350  0.9344  0.1865
13104TIP3    H260804   1.005   3.742   5.638  1.9405  0.6354  2.2078
13105TIP3   OH260805   6.355   6.473   0.039 -0.1394 -0.1451 -0.7364
13105TIP3    H160806   6.309   6.497  -0.042 -0.2332  1.0767 -0.3566
13105TIP3    H260807   6.331   6.543   0.100  0.3744 -0.7565  0.1778
13106TIP3   OH260808   3.754   4.750   0.626 -0.1834 -0.3694  0.3471
13106TIP3    H160809   3.684   4.809   0.597  0.5526  0.9187  1.0929
13106TIP3    H260810   3.827   4.770   0.568  1.4335  2.5041  3.0629
13107TIP3   OH260811   6.427   3.542  12.284 -0.4173 -0.1014  0.1182
13107TIP3    H160812   6.353   3.571  12.231  0.5320  2.9118  0.2256
13107TIP3    H260813   6.504   3.573  12.236  0.6311 -0.4761  1.4878
13108TIP3   OH260814   6.270   3.114  14.625 -0.1529 -0.6469  0.0289
13108TIP3    H160815   6.228   3.052  14.566 -0.3895 -0.3297 -0.1373
13108TIP3    H260816   6.313   3.059  14.691  1.9038 -1.1191 -1.5722
13109TIP3   OH260817   4.865   6.760  15.057 -0.4765  0.1931  0.1204
13109TIP3    H160818   4.787   6.726  15.013  0.4554  1.0157 -2.3855
13109TIP3    H260819   4.868   6.853  15.031  2.3958 -0.2688 -1.7162
13110TIP3   OH260820   3.933   1.281   1.333  0.1195  0.5112  0.2086
13110TIP3    H160821   3.903   1.297   1.423  0.7269  0.8860  0.3471
13110TIP3    H260822   4.017   1.326   1.327  0.4881 -0.2228 -0.2923
13111TIP3   OH260823   5.290   0.468   1.888  0.4083 -0.0311 -0.0519
13111TIP3    H160824   5.237   0.466   1.968  0.7771 -0.0216  0.1955
13111TIP3    H260825   5.227   0.485   1.818 -0.1867 -1.8065  0.0020
13112TIP3   OH260826   5.509   2.815  15.574 -0.7338  0.3010  0.0873
13112TIP3    H160827   5.573   2.758  15.617  0.9080  1.3093 -0.8832
13112TIP3    H260828   5.537   2.817  15.482 -0.3634  3.0358  0.1738
13113TIP3   OH260829   6.356   1.064  16.669  0.2901  0.3788 -0.6503
13113TIP3    H160830   6.291   1.066  16.740  1.4016 -2.1544  0.5610
13113TIP3    H260831   6.305   1.037  16.592 -0.1702 -1.6945  0.3039
13114TIP3   OH260832   3.728   5.447   3.400  0.5285 -0.6210  0.0340
13114TIP3    H160833   3.795   5.419   3.463  1.5131  0.1402 -0.6300
13114TIP3    H260834   3.778   5.482   3.327 -0.6106  0.0771 -0.4398
13115TIP3   OH260835   1.572   6.004  14.615 -0.0091  0.3993 -0.5777
13115TIP3    H160836   1.621   6.067  14.562 -1.4178  1.8827 -0.2094
13115TIP3    H260837   1.480   6.026  14.600 -0.5621 -1.5087 -0.3035
13116TIP3   OH260838   5.950   6.667   3.063 -0.0049  0.1317  0.0280
13116TIP3    H160839   5.911   6.589   3.025 -0.7867 -0.0709  1.1944
13116TIP3    H260840   6.031   6.636   3.103 -0.6167 -0.2404  1.0350
13117TIP3   OH260841   5.528   3.457   3.717 -0.3547 -0.3928 -0.4876
13117TIP3    H160842   5.513   3.548   3.692 -0.8694  0.1321  1.5287
13117TIP3    H260843   5.570   3.418   3.641  1.5146  1.9644 -0.7845
13118TIP3   OH260844   6.730   0.895   6.391  0.3780  0.1504  0.3909
13118TIP3    H160845   6.652   0.845   6.413 -0.4357  1.0071 -0.4809
13118TIP3    H260846   6.802   0.843   6.427 -0.4771 -1.3325  0.0320
13119TIP3   OH260847   4.086   0.216  16.826  0.1525  0.1467 -0.2005
13119TIP3    H160848   4.043   0.131  16.822 -2.0576  1.2450 -1.8951
13119TIP3    H260849   4.050   0.265  16.753  1.1059  2.6636  0.8947
13120TIP3   OH260850   3.239   0.622   0.856  0.1661  0.4550  0.1079
13120TIP3    H160851   3.288   0.655   0.931  0.4342  2.7016 -0.9619
13120TIP3    H260852   3.302   0.626   0.783  0.0007 -1.9219 -0.2612
13121TIP3   OH260853   1.749   0.111  16.363 -0.0285  0.0822 -0.2535
13121TIP3    H160854   1.805   0.033  16.353 -0.2742  0.0538 -1.4862
13121TIP3    H260855   1.683   0.084  16.427  2.0432  0.5311  2.3026
13122TIP3   OH260856   2.532   3.796  12.255  0.3004  0.1038  0.9445
13122TIP3    H160857   2.565   3.868  12.202  0.9684  0.4834  1.8581
13122TIP3    H260858   2.610   3.756  12.294  0.0172 -1.5719 -0.0891
13123TIP3   OH260859   2.743   6.088   0.218  0.0670  0.2596  0.4679
13123TIP3    H160860   2.704   6.004   0.194  0.8072 -0.0762  0.4331
13123TIP3    H260861   2.702   6.151   0.157  0.4072 -0.2641 -0.3182
13124TIP3   OH260862   1.560   0.005  12.976  0.0063 -0.2792 -0.4370
13124TIP3    H160863   1.593   0.094  12.966 -1.4440  0.1690 -1.8525
13124TIP3    H260864   1.559  -0.030  12.887  1.2280 -2.0046  0.1806
13125TIP3   OH260865   0.198   6.698  12.919  0.1267 -0.0173 -0.0127
13125TIP3    H160866   0.248   6.777  12.942 -0.5203  0.2576  0.4737
13125TIP3    H260867   0.111   6.731  12.896 -0.3212 -0.6364  0.7584
13126TIP3   OH260868   5.405   4.543   5.154  0.3260 -0.7735  0.1166
13126TIP3    H160869   5.479   4.597   5.181  0.3099  0.3678 -1.9363
13126TIP3    H260870   5.444   4.476   5.098 -0.0525 -0.8853 -0.0150
13127TIP3   OH260871   2.679   0.617  14.636 -0.0615 -0.3682 -0.3664
13127TIP3    H160872   2.643   0.534  14.603  1.0343 -0.9487 -0.1710
13127TIP3    H260873   2.743   0.590  14.702 -0.3797  0.6858  0.3831
13128TIP3   OH260874   5.819   2.496  13.468 -0.6715 -0.1434 -0.4423
13128TIP3    H160875   5.733   2.457  13.477 -0.0297 -2.3022 -2.5603
13128TIP3    H260876   5.824   2.521  13.376  0.5104  1.1205 -0.0614
13129TIP3   OH260877   2.099   1.949  13.490 -0.0642  0.0200  0.1872
13129TIP3    H160878   2.042   2.025  13.496  0.2140  0.3230 -0.9698
13129TIP3    H260879   2.067   1.899  13.415  0.4374 -0.4407  0.2638
13130TIP3   OH260880   0.623   6.789  11.198 -0.4786  0.2088  0.3523
13130TIP3    H160881   0.711   6.824  11.200  0.1928 -1.4107  1.3582
13130TIP3    H260882   0.629   6.705  11.244 -2.9416  0.9622  2.2877
13131TIP3   OH260883   1.564   0.355   1.643 -0.3363  0.2499  0.5875
13131TIP3    H160884   1.540   0.330   1.732  0.5918 -3.0945  0.0494
13131TIP3    H260885   1.588   0.272   1.601  2.0571  2.0232 -1.9233
13132TIP3   OH260886   6.485   3.090  15.893  0.0606  0.1773 -0.2492
13132TIP3    H160887   6.397   3.073  15.860 -0.6739  0.1812  1.5974
13132TIP3    H260888   6.525   3.147  15.828 -1.8723  1.5023 -0.3426
13133TIP3   OH260889   4.059   5.778   2.310  0.4636 -0.0990  0.2151
13133TIP3    H160890   4.136   5.751   2.260 -0.8215  0.5720 -2.3151
13133TIP3    H260891   4.077   5.868   2.336  0.0866  0.5189 -1.5127
13134TIP3   OH260892   3.097   3.667   3.939 -0.7850 -0.2641  0.0182
13134TIP3    H160893   3.126   3.705   4.022 -0.4269 -1.5293  0.4903
13134TIP3    H260894   3.002   3.680   3.939 -0.8724 -0.8206  0.9252
13135TIP3   OH260895   0.225   5.110  11.564  0.5848  0.0802  0.0360
13135TIP3    H160896   0.163   5.125  11.635 -1.7000 -0.6046 -1.6899
13135TIP3    H260897   0.224   5.016  11.549  2.7489 -0.0666  0.4991
13136TIP3   OH260898   0.160   2.067  16.620 -0.5232  0.0373  0.4007
13136TIP3    H160899   0.170   2.077  16.714  0.6461 -1.1914  0.4363
13136TIP3    H260900   0.229   2.123  16.583 -1.5033  1.1705  0.2159
13137TIP3   OH260901   0.266   1.562  10.775  0.2281 -0.2937  0.0997
13137TIP3    H160902   0.286   1.650  10.807 -1.6141 -0.4688  1.9215
13137TIP3    H260903   0.244   1.575  10.683 -2.6510  1.6683  0.9388
13138TIP3   OH260904   6.764   3.801  15.151 -0.2186  0.4434  0.1537
13138TIP3    H160905   6.719   3.853  15.217 -0.0672 -1.8584  2.1895
13138TIP3    H260906   6.694   3.754  15.105 -0.1624  0.2463  0.2718
13139TIP3   OH260907   4.575   6.234  15.116 -0.4129 -0.1097 -0.2761
13139TIP3    H160908   4.533   6.320  15.110 -0.4856 -0.2717 -3.1150
13139TIP3    H260909   4.544   6.199  15.200 -1.6443  1.9566  0.2160
13140TIP3   OH260910   4.556   6.664  11.747  0.3259  1.1686  0.4737
13140TIP3    H160911   4.637   6.678  11.796  1.0000  1.8246 -0.7522
13140TIP3    H260912   4.487   6.698  11.803  1.1214  2.3370  0.7880
13141TIP3   OH260913   3.525   5.929   5.973  0.1182 -0.6747 -0.1066
13141TIP3    H160914   3.517   5.839   6.005 -2.2758 -0.0527  1.2725
13141TIP3    H260915   3.501   5.983   6.047 -0.0904  1.0701 -1.3947
13142TIP3   OH260916   5.660   6.324  15.022 -0.4191  0.0536  0.2703
13142TIP3    H160917   5.743   6.279  15.012 -0.4503  0.3627 -1.6622
13142TIP3    H260918   5.683   6.410  15.058  0.1992  0.4399 -1.0111
13143TIP3   OH260919   2.514   0.114   2.711  0.0196 -0.2501  0.3403
13143TIP3    H160920   2.553   0.050   2.771 -0.1286  0.3508  1.0982
13143TIP3    H260921   2.564   0.105   2.630 -1.8619 -3.4042 -0.6560
13144TIP3   OH260922   2.462   6.416   4.513  0.5366  0.3238 -0.4666
13144TIP3    H160923   2.527   6.346   4.501  3.2179  2.6642 -0.4988
13144TIP3    H260924   2.488   6.458   4.595 -0.1838  2.1015 -1.1100
13145TIP3   OH260925   5.109   0.617   5.263  0.2312 -0.1927 -0.7976
13145TIP3    H160926   5.085   0.558   5.192  0.6839  0.7384 -1.7598
13145TIP3    H260927   5.028   0.664   5.284 -0.1132 -1.0829 -0.0720
13146TIP3   OH260928   5.380   0.682   2.039 -0.6299 -0.0771  0.0413
13146TIP3    H160929   5.315   0.711   1.974  0.8877  1.1807 -0.9719
13146TIP3    H260930   5.346   0.714   2.123 -0.1871  2.7509 -0.7566
13147TIP3   OH260931   3.933   6.428   3.704 -0.0688 -0.2166  0.8788
13147TIP3    H160932   3.972   6.505   3.663 -2.4198  2.2098  2.8181
13147TIP3    H260933   3.886   6.384   3.634  2.4705 -0.8478 -0.5726
13148TIP3   OH260934   1.130   1.931  10.883 -0.3149  0.0667  0.0365
13148TIP3    H160935   1.193   1.951  10.813 -1.2410 -2.3751 -1.6325
13148TIP3    H260936   1.163   1.851  10.923 -1.4180 -0.2760  0.2979
13149TIP3   OH260937   4.869   1.359  11.191 -0.0488  0.1891  1.0975
13149TIP3    H160938   4.962   1.380  11.200  0.2863 -1.2536  1.3953
13149TIP3    H260939   4.826   1.408  11.260  0.5683  0.4823  1.2814
13150TIP3   OH260940   6.645   2.874  11.942  0.0477  0.2211  0.1719
13150TIP3    H160941   6.729   2.909  11.913  2.1528 -2.4177  2.4632
13150TIP3    H260942   6.626   2.803  11.880  0.6121 -0.4846  0.7838
13151TIP3   OH260943   0.719   5.556  15.484  0.1118  0.3573 -0.4174
13151TIP3    H160944   0.680   5.475  15.517 -0.8312  1.2273  0.6739
13151TIP3    H260945   0.685   5.625  15.541  1.4465  1.4546 -0.8809
13152TIP3   OH260946   1.442   1.929  12.309 -0.2386  0.1092 -0.2744
13152TIP3    H160947   1.519   1.872  12.314 -1.0349 -1.1430 -1.3067
13152TIP3    H260948   1.447   1.967  12.221 -0.1424  1.0246  0.1196
13153TIP3   OH260949   0.109   1.373  13.451  0.2641  0.7071 -0.0660
13153TIP3    H160950   0.044   1.419  13.504 -0.0219 -2.2304  2.4485
13153TIP3    H260951   0.185   1.431  13.451 -0.1307  1.4014  2.7239
13154TIP3   OH260952   2.623   0.319   2.508  0.0063  0.0278  0.2170
13154TIP3    H160953   2.572   0.286   2.434  0.0060  0.5116 -0.0037
13154TIP3    H260954   2.578   0.400   2.533  1.3788  1.1711 -0.8158
13155TIP3   OH260955   5.523   2.542   5.522  0.2707 -0.6313 -0.2977
13155TIP3    H160956   5.531   2.547   5.618 -0.3981 -0.4249 -0.2472
13155TIP3    H260957   5.478   2.623   5.498 -0.2393 -1.0319 -0.7032
13156TIP3   OH260958   6.015   5.169   5.185 -0.2813 -0.1946  0.6637
13156TIP3    H160959   6.001   5.222   5.263  0.2981 -2.1271  2.1660
13156TIP3    H260960   6.034   5.233   5.116 -2.9878  1.7239  1.5113
13157TIP3   OH260961   5.251   2.022   0.837 -0.2505 -0.3166  0.2031
13157TIP3    H160962   5.336   2.006   0.878 -0.1160 -0.9941 -0.3101
13157TIP3    H260963   5.199   2.065   0.904  0.3768 -0.2449  0.6508
13158TIP3   OH260964   2.132   3.235   1.865 -0.1185  0.5930 -0.5091
13158TIP3    H160965   2.124   3.247   1.959  1.6040 -0.0557 -0.2563
13158TIP3    H260966   2.138   3.140   1.853 -0.4913  0.6555 -1.2940
13159TIP3   OH260967   0.679   3.269   0.212 -0.8752  0.1379 -0.2560
13159TIP3    H160968   0.750   3.205   0.219 -0.0225  0.7274 -2.4577
13159TIP3    H260969   0.706   3.341   0.269 -0.2969 -0.1496 -0.1533
13160TIP3   OH260970   0.653   1.666   0.189 -0.7491 -0.1515 -1.1538
13160TIP3    H160971   0.592   1.711   0.131 -0.8981  0.3365 -0.6349
13160TIP3    H260972   0.663   1.726   0.264  0.4882 -0.1525 -1.2989
13161TIP3   OH260973   3.841   3.841  14.909  0.4226 -0.0242  0.4267
13161TIP3    H160974   3.859   3.931  14.884 -0.6035 -0.0155 -0.3586
13161TIP3    H260975   3.853   3.790  14.829 -1.9166 -0.1348  0.0488
13162TIP3   OH260976   4.994   6.515   2.472 -0.0704 -0.3406 -0.2188
13162TIP3    H160977   5.055   6.443   2.494  0.6546  0.3521  0.0934
13162TIP3    H260978   5.051   6.586   2.443 -0.6210  0.7784  1.3306
13163TIP3   OH260979   5.964   1.233   0.622 -0.1270 -0.4597  0.3100
13163TIP3    H160980   5.907   1.301   0.585 -2.2812 -2.2893  0.0446
13163TIP3    H260981   5.912   1.196   0.694  0.7080 -2.2405  0.0293
13164TIP3   OH260982   1.551   6.688   0.876 -0.5412  0.2885 -0.0136
13164TIP3    H160983   1.601   6.712   0.954 -0.3370 -0.8482  0.2268
13164TIP3    H260984   1.599   6.615   0.838 -0.1710  1.3551 -1.7141
13165TIP3   OH260985   3.248   6.553   4.121 -0.0938  0.0922  0.5568
13165TIP3    H160986   3.283   6.563   4.210 -2.4130  1.0308  1.4260
13165TIP3    H260987   3.326   6.544   4.066  1.4737  1.1209  2.4751
13166TIP3   OH260988   6.162   3.605  16.007 -0.1089 -0.1262 -0.0833
13166TIP3    H160989   6.231   3.669  15.989 -0.6832  0.4092 -0.4332
13166TIP3    H260990   6.207   3.530  16.045  0.6821  0.1643 -0.4387
13167TIP3   OH260991   0.676   3.432   5.343 -0.1304 -0.2279  0.8127
13167TIP3    H160992   0.669   3.435   5.439 -2.1629 -0.3182  0.7230
13167TIP3    H260993   0.683   3.523   5.317 -0.6417 -0.1245  1.0159
13168TIP3   OH260994   0.166   1.456   5.894 -0.4080  0.2082  0.1735
13168TIP3    H160995   0.085   1.436   5.941 -0.4196 -0.4360 -0.1202
13168TIP3    H260996   0.138   1.470   5.803 -0.2101  0.1523  0.1040
13169TIP3   OH260997   0.232   1.826   2.880 -0.0019 -0.5927 -0.5157
13169TIP3    H160998   0.208   1.788   2.796 -1.0740 -0.8564 -0.1096
13169TIP3    H260999   0.237   1.752   2.940  1.7767 -0.5300 -0.5533
13170TIP3   OH261000   2.121   6.169   4.347  0.1466  0.3166  0.0867
13170TIP3    H161001   2.030   6.182   4.371  0.1200  0.0397  0.1467
13170TIP3    H261002   2.121   6.085   4.301  0.4279  0.1367  0.4096
13171TIP3   OH261003   0.409   5.884   5.330  0.3291 -0.6425 -0.3544
13171TIP3    H161004   0.445   5.921   5.410  0.2329 -1.6638  0.1748
13171TIP3    H261005   0.336   5.943   5.308  0.8711  0.1190 -0.1664
13172TIP3   OH261006   5.500   5.564  15.134  0.1936  0.1257  0.1338
13172TIP3    H161007   5.594   5.581  15.138 -0.0714  1.5655  0.8904
13172TIP3    H261008   5.487   5.521  15.050  0.8921  4.3457 -2.4283
13173TIP3   OH261009   1.868   6.218   4.437 -0.1779 -0.4616 -0.3676
13173TIP3    H161010   1.786   6.176   4.410 -0.2948 -1.0211  0.8082
13173TIP3    H261011   1.871   6.205   4.531  0.8843  0.2604 -0.2924
13174TIP3   OH261012   4.785   2.117   1.753 -1.1805  0.2631  0.1123
13174TIP3    H161013   4.691   2.130   1.738 -1.6440 -1.9816  0.6426
13174TIP3    H261014   4.799   2.023   1.736  1.2626  0.8072 -1.3262
13175TIP3   OH261015   4.383   1.552   0.965  0.7399  0.4923  0.2434
13175TIP3    H161016   4.320   1.500   0.915  2.8503 -2.1167  0.0466
13175TIP3    H261017   4.331   1.595   1.032 -1.3014 -1.2979 -0.0863
13176TIP3   OH261018   1.656   3.977   1.885 -0.5827  0.1902  0.4462
13176TIP3    H161019   1.742   3.991   1.845 -0.1057  0.9825  1.7055
13176TIP3    H261020   1.660   4.022   1.969 -2.7902  1.7211 -0.1556
13177TIP3   OH261021   3.559   1.716   6.166 -0.8281  0.3436 -0.2608
13177TIP3    H161022   3.628   1.777   6.140  0.3250 -0.8934 -0.2038
13177TIP3    H261023   3.545   1.733   6.259  0.8822 -0.7397  0.2446
13178TIP3   OH261024   0.965   4.006  13.057  0.6876 -0.2490  0.1034
13178TIP3    H161025   0.967   4.099  13.034 -0.2773 -0.4936 -1.0346
13178TIP3    H261026   1.051   3.973  13.029  0.2893 -0.1087 -1.3666
13179TIP3   OH261027   3.463   5.066  11.819  0.3853 -0.2107 -0.2103
13179TIP3    H161028   3.474   5.129  11.748  1.2689 -0.1981 -0.0772
13179TIP3    H261029   3.434   5.118  11.893  0.1689 -0.1117 -0.3652
13180TIP3   OH261030   3.251   5.795   4.820 -0.0083  0.1446 -0.1768
13180TIP3    H161031   3.317   5.851   4.861  0.0663 -0.1524  0.1066
13180TIP3    H261032   3.242   5.831   4.731 -0.4608  1.0377  0.2145
13181TIP3   OH261033   6.356   6.378  11.992  0.2150  0.0630 -0.4392
13181TIP3    H161034   6.362   6.436  12.068 -0.2435 -0.5493  0.0745
13181TIP3    H261035   6.306   6.428  11.927 -2.5799 -0.7188  0.9674
13182TIP3   OH261036   6.010   2.428   4.195  0.1468  0.0149 -0.1526
13182TIP3    H161037   6.103   2.435   4.216  0.3541  1.4032 -1.3422
13182TIP3    H261038   6.008   2.386   4.109 -0.2663  0.6254 -0.4534
13183TIP3   OH261039   5.490   3.583   2.173  0.9071 -0.0842 -0.0901
13183TIP3    H161040   5.479   3.678   2.176 -0.1627 -0.2278  0.8308
13183TIP3    H261041   5.572   3.571   2.125  0.6960  1.2721 -0.8448
13184TIP3   OH261042   3.966   0.109  12.618  0.0980  0.1611  0.2542
13184TIP3    H161043   3.954   0.111  12.713  0.2306 -1.4901  0.3297
13184TIP3    H261044   3.918   0.186  12.587  1.6238  1.8543  1.7803
13185TIP3   OH261045   0.061   5.352   4.112 -0.1773  0.4564  0.3341
13185TIP3    H161046   0.111   5.406   4.174 -1.0742  1.2460  0.3895
13185TIP3    H261047   0.001   5.302   4.167  1.9200 -2.1137  0.4809
13186TIP3   OH261048   1.302   3.714   5.095 -0.4148  0.9337  0.1661
13186TIP3    H161049   1.257   3.630   5.102 -1.1786  1.1230 -1.7394
13186TIP3    H261050   1.282   3.744   5.006  2.5128  1.6163 -0.3510
13187TIP3   OH261051   2.481   1.768  16.331 -0.6447  0.1981  0.4803
13187TIP3    H161052   2.497   1.862  16.339  0.0582  0.0247  1.2884
13187TIP3    H261053   2.549   1.727  16.386 -1.5209 -0.7419  0.9026
13188TIP3   OH261054   2.918   4.279   2.798 -0.1894 -0.5827 -0.0006
13188TIP3    H161055   2.853   4.246   2.735 -1.7680  1.6096  0.3591
13188TIP3    H261056   2.970   4.341   2.749 -0.5321  0.1130  0.4949
13189TIP3   OH261057   2.087   4.718  10.859  0.1705 -0.0239  0.2635
13189TIP3    H161058   2.044   4.758  10.784  0.1722  1.6281  1.0933
13189TIP3    H261059   2.167   4.679  10.823 -0.2407  0.0062 -0.7127
13190TIP3   OH261060   0.276   3.234   5.862 -0.0589 -0.3689 -0.1199
13190TIP3    H161061   0.311   3.155   5.821  0.7829 -0.9371  1.5682
13190TIP3    H261062   0.232   3.201   5.941 -1.1610  0.7132 -0.2556
13191TIP3   OH261063   2.158   5.202  14.592 -0.4617 -0.2056  0.2134
13191TIP3    H161064   2.227   5.137  14.583  1.7353  1.9007  0.5312
13191TIP3    H261065   2.080   5.152  14.613  0.9329 -2.7441 -0.2486
13192TIP3   OH261066   5.287   5.935  11.364  0.0030  0.1629 -0.3084
13192TIP3    H161067   5.316   6.009  11.418  0.6925  0.3240 -0.8830
13192TIP3    H261068   5.212   5.970  11.315 -0.1142  0.2657 -0.0587
13193TIP3   OH261069   3.453   6.275   2.893 -0.4071  0.1887  0.0593
13193TIP3    H161070   3.426   6.226   2.971  1.3226  1.2779  1.4261
13193TIP3    H261071   3.449   6.211   2.822 -2.0683 -0.8312  0.9969
13194TIP3   OH261072   6.384   2.604  14.082  0.1580 -0.0712 -0.1991
13194TIP3    H161073   6.289   2.596  14.087  0.2384 -1.1324 -0.1545
13194TIP3    H261074   6.411   2.629  14.171 -0.0363 -0.2853 -0.0797
13195TIP3   OH261075   1.133   6.703  14.557  0.2444 -0.0534 -0.3608
13195TIP3    H161076   1.199   6.725  14.623 -0.2397 -0.4763  0.2768
13195TIP3    H261077   1.049   6.719  14.601 -0.0962  1.5537 -1.5325
13196TIP3   OH261078   5.965   0.103   4.321  0.2455 -0.0191  0.4853
13196TIP3    H161079   5.961   0.191   4.284  0.3479 -0.5505 -0.8571
13196TIP3    H261080   5.900   0.053   4.271  1.1629 -1.0292  0.2497
13197TIP3   OH261081   1.520   1.593   1.169 -0.0705 -0.2443  0.5738
13197TIP3    H161082   1.610   1.570   1.194 -0.5385 -1.1984  1.4373
13197TIP3    H261083   1.477   1.509   1.154 -0.9085  0.1954  0.4754
13198TIP3   OH261084   6.351   3.545   6.963 -0.0265 -0.0344  0.2144
13198TIP3    H161085   6.366   3.520   7.054 -1.9520 -1.6470  0.1657
13198TIP3    H261086   6.432   3.589   6.937  0.3883  0.9920  2.8434
13199TIP3   OH261087   5.445   4.384   6.278 -0.1662 -0.0676 -0.4366
13199TIP3    H161088   5.512   4.394   6.211  0.4778 -1.1574  0.0161
13199TIP3    H261089   5.364   4.370   6.229  0.3353 -1.1079 -1.0009
13200TIP3   OH261090   5.407   2.709   3.012  0.2297  0.3001 -0.7240
13200TIP3    H161091   5.364   2.630   3.044  0.7113  0.6926  1.0336
13200TIP3    H261092   5.465   2.679   2.942 -0.3251 -0.7355 -0.7605
13201TIP3   OH261093   5.539   5.831   1.269  0.2930 -0.3235  0.2399
13201TIP3    H161094   5.538   5.924   1.244  1.7462  0.0708  1.4076
13201TIP3    H261095   5.470   5.791   1.218 -0.1075  1.3386 -0.6019
13202TIP3   OH261096   4.097   3.191   0.324 -0.1437 -0.3530  0.6810
13202TIP3    H161097   4.030   3.124   0.340  0.9194 -2.1750 -1.9348
13202TIP3    H261098   4.084   3.217   0.233  1.0367  1.2145  0.9256
13203TIP3   OH261099   0.612   1.801   2.095 -0.0902 -0.1626  0.1231
13203TIP3    H161100   0.664   1.830   2.020 -0.6256 -0.7966 -0.4973
13203TIP3    H261101   0.638   1.710   2.109  0.3317  0.0797  0.9927
13204TIP3   OH261102   4.902   3.122   1.003 -0.4739 -0.0845  0.2160
13204TIP3    H161103   4.861   3.074   0.931 -0.9121  0.8667 -0.1775
13204TIP3    H261104   4.940   3.199   0.962  1.1535 -0.5962  0.6779
13205TIP3   OH261105   3.405   4.866   5.155 -0.4198  0.5290  0.0255
13205TIP3    H161106   3.491   4.893   5.187 -0.0643  0.2403 -0.6620
13205TIP3    H261107   3.423   4.822   5.072 -1.1806 -0.0628  0.1623
13206TIP3   OH261108   1.913   5.265   1.922  0.5752 -0.3027 -0.2425
13206TIP3    H161109   1.834   5.247   1.973  2.1882 -2.2684  1.7312
13206TIP3    H261110   1.893   5.230   1.835 -1.2519  0.6639 -0.2686
13207TIP3   OH261111   2.987   4.891  17.210  0.5784 -0.1616  0.3333
13207TIP3    H161112   2.993   4.835  17.132 -1.6159 -1.1597  0.7877
13207TIP3    H261113   2.982   4.829  17.283 -0.0079  0.6846  1.0223
13208TIP3   OH261114   5.123   2.239  16.157  0.2512  0.3993  0.1256
13208TIP3    H161115   5.180   2.254  16.081 -0.8299 -2.5122 -1.4230
13208TIP3    H261116   5.036   2.226  16.120  0.1396 -4.1369  1.3262
13209TIP3   OH261117   0.583   1.164  16.136 -0.0278  0.5238 -0.3061
13209TIP3    H161118   0.534   1.161  16.219 -0.8745  0.8876 -0.7826
13209TIP3    H261119   0.675   1.162  16.163 -0.2783 -0.7049  0.5973
13210TIP3   OH261120   4.669   5.539   4.319  0.7384  0.5232  0.3301
13210TIP3    H161121   4.716   5.560   4.400  2.4086  2.0684 -0.9668
13210TIP3    H261122   4.725   5.571   4.249 -0.6790 -0.7248 -1.4835
13211TIP3   OH261123   4.811   5.553  15.523 -0.2231  0.6119  0.0085
13211TIP3    H161124   4.760   5.615  15.575  0.4057  0.8753  0.3049
13211TIP3    H261125   4.835   5.602  15.444  1.5572  1.2433  0.9123
13212TIP3   OH261126   0.965   3.350   0.185  0.2447 -0.3205  0.5397
13212TIP3    H161127   0.952   3.256   0.202  1.2452 -0.7050 -0.6949
13212TIP3    H261128   0.998   3.354   0.095 -0.3750  1.2718  0.3505
13213TIP3   OH261129   0.542   1.665  14.003 -0.8205  0.6870 -0.3475
13213TIP3    H161130   0.482   1.601  14.042 -0.3161  0.4231 -0.0083
13213TIP3    H261131   0.515   1.749  14.041 -0.4119  0.4508  0.4798
13214TIP3   OH261132   1.260   1.228  15.693  0.4893  0.0070  0.3307
13214TIP3    H161133   1.328   1.208  15.628  0.7363  0.4009  0.4663
13214TIP3    H261134   1.245   1.322  15.685  0.4752  0.0480  0.7982
13215TIP3   OH261135   0.132   2.215   4.703 -0.1416  0.5457 -0.0471
13215TIP3    H161136   0.173   2.164   4.773  0.9908 -2.5534 -2.7127
13215TIP3    H261137   0.038   2.198   4.713  0.1211 -1.1585 -0.0945
13216TIP3   OH261138   2.416   2.063   1.124  0.6769 -0.4248  0.3630
13216TIP3    H161139   2.340   2.007   1.103  1.1194 -0.0600 -2.6511
13216TIP3    H261140   2.377   2.147   1.148  0.0212 -0.0081 -1.8720
13217TIP3   OH261141   4.346   2.036   2.370 -0.4377  0.2649 -0.5518
13217TIP3    H161142   4.423   2.068   2.417 -0.1082 -0.6122 -0.4728
13217TIP3    H261143   4.272   2.065   2.423 -0.1193  0.2744 -0.1089
13218TIP3   OH261144   4.705   2.803  12.163  0.2332  0.0675 -0.2633
13218TIP3    H161145   4.741   2.886  12.195  1.5555 -0.0463 -1.3547
13218TIP3    H261146   4.740   2.737  12.223 -2.5069  0.4083  1.9105
13219TIP3   OH261147   1.131   5.296   5.708 -0.1433 -0.0915 -0.0304
13219TIP3    H161148   1.168   5.332   5.628  3.9178 -0.2728  1.5393
13219TIP3    H261149   1.198   5.235   5.741 -0.8546  1.0995  4.2398
13220TIP3   OH261150   6.514   3.770   3.072 -0.3313  0.4327  0.0303
13220TIP3    H161151   6.541   3.858   3.048  0.7458  0.3058  0.7446
13220TIP3    H261152   6.422   3.780   3.098  0.4672  1.8689  2.6686
13221TIP3   OH261153   1.818   4.269  13.154 -0.4961  0.0222  0.0454
13221TIP3    H161154   1.741   4.306  13.198  0.7051  2.0671  0.5649
13221TIP3    H261155   1.888   4.274  13.220  0.5069 -0.1259 -0.9761
13222TIP3   OH261156   2.802   4.612  13.016  0.4445 -0.0709 -0.3958
13222TIP3    H161157   2.891   4.637  12.992  0.5085 -0.3943 -0.5035
13222TIP3    H261158   2.768   4.567  12.938  0.3018 -0.2375 -0.2389
13223TIP3   OH261159   2.635   3.118  16.359 -0.1181  0.5697 -0.5804
13223TIP3    H161160   2.608   3.130  16.267 -0.4450 -0.8316 -0.6920
13223TIP3    H261161   2.569   3.165  16.409 -0.1961  0.9757 -1.0557
13224TIP3   OH261162   4.577   1.320   4.973  0.1809  0.3548 -0.1302
13224TIP3    H161163   4.522   1.331   4.896  0.3263 -1.1659 -0.4610
13224TIP3    H261164   4.655   1.373   4.954 -0.6847  1.7150 -0.0798
13225TIP3   OH261165   2.654   5.733  17.335 -0.4680 -0.4181  0.7811
13225TIP3    H161166   2.572   5.693  17.306  0.7069 -3.6737  1.5446
13225TIP3    H261167   2.719   5.663  17.329  2.2748  1.9229  0.5021
13226TIP3   OH261168   3.805   2.315  14.635 -0.2063 -0.4112 -0.2897
13226TIP3    H161169   3.796   2.295  14.541 -1.2034 -2.5235  0.1831
13226TIP3    H261170   3.734   2.265  14.676  0.2326  0.4609  1.6121
13227TIP3   OH261171   5.049   1.025  14.000  0.4815  0.0256  0.1509
13227TIP3    H161172   4.988   0.992  13.934  3.4849 -1.9175 -1.8862
13227TIP3    H261173   5.064   1.117  13.976 -0.4004  0.0603 -0.2820
13228TIP3   OH261174   0.858   1.356   1.079  0.2778  0.0369  1.0117
13228TIP3    H161175   0.779   1.312   1.048 -0.6906  3.2586 -1.7514
13228TIP3    H261176   0.929   1.319   1.027 -0.7647  2.5647 -2.5824
13229TIP3   OH261177   5.246   5.805  17.209 -0.0290  0.5697  0.1723
13229TIP3    H161178   5.244   5.794  17.114  1.9132  0.1952  0.1402
13229TIP3    H261179   5.292   5.728  17.242  2.0683  2.1031  1.0972
13230TIP3   OH261180   5.620   0.800   0.897 -0.3928 -0.1488 -0.0375
13230TIP3    H161181   5.706   0.820   0.933 -0.9860  2.0042  0.3405
13230TIP3    H261182   5.633   0.720   0.846  1.8071  0.1109  0.0233
13231TIP3   OH261183   1.098   0.560  17.280  0.1243 -0.6707  0.0934
13231TIP3    H161184   1.045   0.637  17.298  0.2550 -0.5774  0.0752
13231TIP3    H261185   1.047   0.487  17.316  1.2057 -0.3278  2.5399
13232TIP3   OH261186   0.911   4.554   1.540  0.1279 -0.3843  0.1340
13232TIP3    H161187   0.924   4.620   1.471 -2.2818  0.3677  0.3207
13232TIP3    H261188   0.848   4.595   1.600  0.4918 -1.9047  1.6096
13233TIP3   OH261189   4.576   1.246   0.370  0.6218  0.5014  0.7704
13233TIP3    H161190   4.492   1.201   0.367  0.8680  0.0381  0.6969
13233TIP3    H261191   4.608   1.234   0.459  0.6141  0.6650  0.7952
13234TIP3   OH261192   3.375   5.487   5.713  0.1509  0.2426 -0.1839
13234TIP3    H161193   3.392   5.575   5.679  1.4523  0.2955  0.5130
13234TIP3    H261194   3.343   5.502   5.802  0.4640  0.0166 -0.0323
13235TIP3   OH261195   0.489   6.619  12.466 -1.0094 -0.3170  0.7719
13235TIP3    H161196   0.552   6.675  12.510 -0.2719 -1.8586  1.7289
13235TIP3    H261197   0.409   6.627  12.518 -0.2017 -1.9806  2.3789
13236TIP3   OH261198   5.612   5.865  12.074  0.3129 -0.0764 -0.3042
13236TIP3    H161199   5.674   5.937  12.074  0.0278  0.1726 -0.1924
13236TIP3    H261200   5.666   5.787  12.086  0.5199  0.2126  0.7079
13237TIP3   OH261201   3.893   2.734   1.389  0.2802 -0.6141  0.2207
13237TIP3    H161202   3.938   2.660   1.430  2.1634 -0.4799 -1.4181
13237TIP3    H261203   3.894   2.802   1.455  0.5717 -1.3321  0.9778
13238TIP3   OH261204   1.281   1.791   4.209  0.2477  0.0125 -0.4124
13238TIP3    H161205   1.202   1.843   4.223  0.2036 -0.1302 -0.1089
13238TIP3    H261206   1.349   1.836   4.261 -0.2490 -1.3251  1.5091
13239TIP3   OH261207   3.342   0.130   1.544 -0.3060  0.3188  0.1648
13239TIP3    H161208   3.296   0.173   1.616  1.0101  1.8793  0.1406
13239TIP3    H261209   3.283   0.060   1.516 -1.0952  0.0259  2.3723
13240TIP3   OH261210   4.645   3.403  13.131  0.1091 -0.0876 -0.5637
13240TIP3    H161211   4.702   3.403  13.208  0.6640 -0.5632 -0.9624
13240TIP3    H261212   4.689   3.460  13.068 -1.1470  1.6255  0.0136
13241TIP3   OH261213   1.080   4.187  16.433 -1.0208 -0.0494 -0.1219
13241TIP3    H161214   1.036   4.215  16.513 -1.3478  0.2135 -0.3922
13241TIP3    H261215   1.157   4.244  16.427 -0.5095 -0.6544  0.4650
13242TIP3   OH261216   6.441   5.686  16.769  0.3805 -0.0801 -0.0572
13242TIP3    H161217   6.417   5.678  16.676 -0.6305  1.4659  0.0351
13242TIP3    H261218   6.408   5.772  16.795  3.1815  0.8060  0.9889
13243TIP3   OH261219   3.828   4.321   4.224 -0.0151 -0.1395  0.1510
13243TIP3    H161220   3.882   4.385   4.177 -0.2699 -0.5202 -0.6949
13243TIP3    H261221   3.783   4.372   4.291  1.8295  0.0847  1.2768
13244TIP3   OH261222   4.773   0.439   5.345 -0.5829  0.5430 -0.1858
13244TIP3    H161223   4.831   0.420   5.271  1.3739 -0.2449  1.4475
13244TIP3    H261224   4.749   0.352   5.379  2.9216  0.6393  3.2353
13245TIP3   OH261225   6.657   5.145  14.481 -0.1720 -0.6134 -0.0317
13245TIP3    H161226   6.641   5.059  14.442 -0.3038 -0.4947 -0.2469
13245TIP3    H261227   6.572   5.189  14.475  0.2535  0.0882 -1.3280
13246TIP3   OH261228   6.066   0.236  13.156 -0.0612  0.2943 -0.4330
13246TIP3    H161229   6.159   0.224  13.137 -0.2198 -1.1742 -0.3942
13246TIP3    H261230   6.053   0.331  13.154  1.2435  0.4749 -1.3386
13247TIP3   OH261231   6.714   4.727  15.790  0.4874  0.8289 -0.0060
13247TIP3    H161232   6.756   4.673  15.722 -2.9698 -0.1852 -1.5703
13247TIP3    H261233   6.726   4.816  15.759  2.1516  0.6885  0.1008
13248TIP3   OH261234   1.755   6.099   5.195  0.1809 -0.6084 -0.5423
13248TIP3    H161235   1.691   6.034   5.167 -1.0624 -0.0963  0.9358
13248TIP3    H261236   1.726   6.181   5.156  1.1254 -0.7266 -1.5229
13249TIP3   OH261237   4.695   2.521   2.135 -0.3445 -0.1836  0.1356
13249TIP3    H161238   4.708   2.440   2.086  1.1709 -0.8088  1.4454
13249TIP3    H261239   4.690   2.589   2.069 -0.1798 -1.1948 -0.9452
13250TIP3   OH261240   5.673   5.233  10.819 -0.5548  0.3845  0.3026
13250TIP3    H161241   5.680   5.162  10.755 -1.9852  1.1281 -0.7375
13250TIP3    H261242   5.743   5.293  10.796  1.2544 -1.0487  1.7537
13251TIP3   OH261243   6.703   3.659   2.259  0.0263  0.0858 -0.3465
13251TIP3    H161244   6.779   3.608   2.231  2.0084  2.8085 -0.2763
13251TIP3    H261245   6.709   3.660   2.355 -0.8382 -0.6539 -0.2635
13252TIP3   OH261246   2.973   2.417   0.684  1.1572  0.1257 -0.5234
13252TIP3    H161247   2.918   2.469   0.625  1.2373  1.9816  0.9234
13252TIP3    H261248   2.916   2.398   0.758  1.0046 -2.3184 -1.2070
13253TIP3   OH261249   0.865   6.459   2.079 -0.1463  0.2813  0.2348
13253TIP3    H161250   0.858   6.429   2.170  1.5559 -0.3069  0.2164
13253TIP3    H261251   0.800   6.409   2.032 -0.6872  0.1991  1.0452
13254TIP3   OH261252   3.614   3.977   2.438  0.1341 -0.2701 -0.3071
13254TIP3    H161253   3.642   4.024   2.359  3.0934 -1.3233  0.0124
13254TIP3    H261254   3.626   4.040   2.509  0.4927 -0.3162 -0.3259
13255TIP3   OH261255   3.078   1.406   4.209  0.1924  0.2578 -0.1635
13255TIP3    H161256   3.035   1.491   4.216 -0.0829  0.1826 -0.8781
13255TIP3    H261257   3.105   1.400   4.117 -0.4717 -0.7570 -0.3062
13256TIP3   OH261258   5.813   3.983  17.217  0.3492 -0.1705  0.0937
13256TIP3    H161259   5.825   4.008  17.125 -1.2968 -1.1821 -0.4589
13256TIP3    H261260   5.746   4.043  17.249 -0.5193 -1.0654  0.0150
13257TIP3   OH261261   5.135   3.321  16.161  0.7031 -0.3739 -0.2747
13257TIP3    H161262   5.071   3.274  16.213  1.4700 -0.5072  0.5792
13257TIP3    H261263   5.084   3.370  16.097 -0.5296  2.1768  2.4683
13258TIP3   OH261264   3.025   5.090   2.794  0.4917  0.1291 -0.1514
13258TIP3    H161265   2.990   5.132   2.716  0.8969  0.7611  0.0052
13258TIP3    H261266   3.107   5.136   2.813  0.2656  0.1654  0.8031
13259TIP3   OH261267   5.259   5.514  14.417  0.5948  0.3594 -0.0774
13259TIP3    H161268   5.198   5.559  14.358 -0.0767  0.6440  0.8186
13259TIP3    H261269   5.346   5.536  14.383  0.2335  1.0545 -0.5699
13260TIP3   OH261270   0.605   5.396   6.239 -0.1685  0.1590  0.2026
13260TIP3    H161271   0.598   5.375   6.332  0.7852  0.9660  0.4745
13260TIP3    H261272   0.697   5.381   6.219 -0.0724  1.3426 -0.2689
13261TIP3   OH261273   0.614   6.655   5.979 -0.4583 -0.1817  1.0607
13261TIP3    H161274   0.701   6.645   6.019  0.5851  1.9356 -0.4728
13261TIP3    H261275   0.611   6.747   5.952 -2.3388 -0.7257 -0.8317
13262TIP3   OH261276   2.803   2.525   1.071 -0.2874 -0.0655  0.3917
13262TIP3    H161277   2.793   2.451   1.012  1.4873  0.2326 -0.3612
13262TIP3    H261278   2.777   2.491   1.157 -1.9094 -0.8033 -0.3574
13263TIP3   OH261279   3.299   1.789  14.099  0.0741  0.1452 -0.2919
13263TIP3    H161280   3.328   1.854  14.035  0.5533 -1.0790 -1.3532
13263TIP3    H261281   3.378   1.769  14.150 -0.0460  0.2927 -0.0450
13264TIP3   OH261282   0.805   2.194   3.185  0.0993  0.0975  0.5884
13264TIP3    H161283   0.763   2.280   3.190  1.4728  0.8251  0.1610
13264TIP3    H261284   0.819   2.168   3.276  0.2007  0.5970  0.7153
13265TIP3   OH261285   5.168   5.597  14.990  0.0080  0.0136  0.3611
13265TIP3    H161286   5.122   5.675  14.958  0.0197  0.3905  1.2377
13265TIP3    H261287   5.180   5.613  15.084  0.2291 -0.9380  0.5050
13266TIP3   OH261288   6.439   5.751   1.218  0.8375  0.1422 -0.3061
13266TIP3    H161289   6.347   5.742   1.193  0.5294 -1.9752  1.2837
13266TIP3    H261290   6.488   5.735   1.137 -0.1427  1.8147 -1.2837
13267TIP3   OH261291   5.053   1.371  16.125 -0.5817 -0.6056  0.7730
13267TIP3    H161292   4.995   1.446  16.141  0.1631  0.5010 -1.2993
13267TIP3    H261293   5.004   1.314  16.067 -0.1587 -0.4003  0.2068
13268TIP3   OH261294   5.493   5.481   0.656 -0.3031  0.3637  0.2354
13268TIP3    H161295   5.423   5.546   0.653 -0.4498  0.4315  2.8811
13268TIP3    H261296   5.448   5.397   0.665 -0.0849  0.3030  0.8394
13269TIP3   OH261297   1.623   4.194  12.307 -0.1898 -0.4206  0.5766
13269TIP3    H161298   1.590   4.284  12.306  0.7043 -0.0499 -1.3680
13269TIP3    H261299   1.718   4.203  12.296 -0.1501 -1.6143 -0.2828
13270TIP3   OH261300   0.562   4.528  14.541 -0.5081  0.4948  0.0356
13270TIP3    H161301   0.607   4.561  14.618  1.6655  0.4256 -1.1373
13270TIP3    H261302   0.553   4.604  14.483 -0.2847  0.1461 -0.4685
13271TIP3   OH261303   2.811   6.651  12.884  0.0639  0.1922  0.2742
13271TIP3    H161304   2.754   6.718  12.922 -0.1498 -0.7597  1.6825
13271TIP3    H261305   2.899   6.677  12.912  0.0716  0.3337  0.1220
13272TIP3   OH261306   4.699   2.593   4.088  0.1473 -0.0120 -0.1087
13272TIP3    H161307   4.628   2.583   4.152 -0.5376 -1.1789 -1.0036
13272TIP3    H261308   4.763   2.651   4.131 -0.1361 -1.0081  1.7440
13273TIP3   OH261309   5.731   5.761   4.422 -0.1618  0.1924 -0.1062
13273TIP3    H161310   5.664   5.714   4.372  0.4675 -2.6748  1.5348
13273TIP3    H261311   5.813   5.721   4.395  0.7041  1.9926 -0.2883
13274TIP3   OH261312   2.461   1.186  16.762 -0.0880  0.0284 -0.0381
13274TIP3    H161313   2.439   1.279  16.753  1.2545  0.5032  1.1432
13274TIP3    H261314   2.431   1.163  16.849 -2.0513 -1.1801 -0.9742
13275TIP3   OH261315   1.004   0.826  14.094  0.3256 -0.0300  0.8702
13275TIP3    H161316   0.978   0.860  14.179  0.1637  1.0073  0.4220
13275TIP3    H261317   1.100   0.827  14.096  0.3229 -0.1686  1.0956
13276TIP3   OH261318   6.241   3.050   0.614 -0.0054  0.2458 -0.3678
13276TIP3    H161319   6.276   2.961   0.625 -1.0844  0.0833  2.6674
13276TIP3    H261320   6.316   3.101   0.584  0.6953 -1.5933 -2.0251
13277TIP3   OH261321   2.945   5.296   0.163  0.5040 -0.1164  0.0917
13277TIP3    H161322   3.009   5.327   0.228  0.6966 -0.1508 -0.0790
13277TIP3    H261323   2.950   5.200   0.169  1.9549 -0.1770 -1.3267
13278TIP3   OH261324   6.611   6.145   3.206 -0.5060 -0.1082 -0.0968
13278TIP3    H161325   6.688   6.090   3.199 -0.1934  0.5059 -1.7938
13278TIP3    H261326   6.549   6.109   3.142 -0.5294  1.1011 -0.7846
13279TIP3   OH261327   3.112   4.881  11.828  0.4314 -0.6767 -0.0561
13279TIP3    H161328   3.041   4.903  11.888 -0.1327 -0.2886 -0.8563
13279TIP3    H261329   3.179   4.842  11.884  0.0163 -0.0987  0.8626
13280TIP3   OH261330   5.986   2.415  11.747  0.2126 -0.0891 -0.1424
13280TIP3    H161331   6.056   2.375  11.696 -0.3330 -0.2897 -0.7531
13280TIP3    H261332   5.969   2.498  11.702 -0.3497 -0.3199 -0.3735
13281TIP3   OH261333   3.536   4.047  14.652  0.2534  0.4479  0.2943
13281TIP3    H161334   3.524   4.081  14.741 -1.9444 -1.4663  0.8262
13281TIP3    H261335   3.593   4.111  14.609 -0.2074  2.4496  2.4628
13282TIP3   OH261336   5.472   1.701   1.544 -0.5470  0.0826  0.2409
13282TIP3    H161337   5.479   1.794   1.520  2.7334  0.4756  2.1582
13282TIP3    H261338   5.416   1.700   1.622 -2.0823  0.1278 -0.7995
13283TIP3   OH261339   6.564   1.600   2.997  0.8165 -0.0185  0.3268
13283TIP3    H161340   6.584   1.693   3.004 -0.3083  0.2308  0.4095
13283TIP3    H261341   6.559   1.569   3.087  0.3621  0.0403  0.3275
13284TIP3   OH261342   4.319   0.906   3.056  0.4115 -0.6261  0.5542
13284TIP3    H161343   4.378   0.896   3.130  1.0188  0.3959  0.2234
13284TIP3    H261344   4.288   0.996   3.062 -0.3902 -0.8719  0.1901
13285TIP3   OH261345   6.128   3.621   4.899  0.4420  0.1480 -0.2976
13285TIP3    H161346   6.074   3.542   4.897  0.9374 -0.1950 -0.3150
13285TIP3    H261347   6.197   3.601   4.962  0.4378  0.6590 -0.1267
13286TIP3   OH261348   3.967   5.542  15.518 -0.1553  0.8944  0.4854
13286TIP3    H161349   3.936   5.509  15.602  0.1367 -0.5621  0.0430
13286TIP3    H261350   3.901   5.513  15.455 -0.1439  1.5984  0.1295
13287TIP3   OH261351   5.568   2.829  15.311  0.1370 -0.1308  0.0892
13287TIP3    H161352   5.631   2.773  15.266 -0.1533 -0.6634  0.3264
13287TIP3    H261353   5.504   2.852  15.243  0.7387  0.6687 -0.2280
13288TIP3   OH261354   1.158   3.994   0.246  0.1493  0.2425  0.0345
13288TIP3    H161355   1.079   3.978   0.297  0.6594 -1.2496  0.4020
13288TIP3    H261356   1.212   4.050   0.302  0.8061 -1.5661  1.3029
13289TIP3   OH261357   2.323   5.413   5.835 -0.0679 -0.4200  0.2175
13289TIP3    H161358   2.325   5.484   5.899  0.9843 -0.4279  0.2190
13289TIP3    H261359   2.281   5.451   5.758  1.0122  0.4125  0.0090
13290TIP3   OH261360   5.695   0.509  15.973 -0.2078  0.2891  0.6443
13290TIP3    H161361   5.750   0.449  15.924 -0.1141 -0.0850  1.1964
13290TIP3    H261362   5.752   0.543  16.042 -0.8744 -0.7466  1.7495
13291TIP3   OH261363   5.614   2.926  16.773 -1.0238  0.0513 -0.7475
13291TIP3    H161364   5.530   2.970  16.782 -1.6445 -1.2409  0.0645
13291TIP3    H261365   5.596   2.850  16.717  0.0409  0.8214 -2.2093
13292TIP3   OH261366   6.599   0.161   4.860 -0.2533 -0.2672 -0.0891
13292TIP3    H161367   6.612   0.255   4.873  0.7879 -0.1839 -1.4626
13292TIP3    H261368   6.678   0.133   4.814 -0.5187 -1.8443  0.3615
13293TIP3   OH261369   2.558   6.648  11.700 -0.2907 -0.5835  0.5527
13293TIP3    H161370   2.610   6.569  11.687 -0.8020 -0.9324  0.5922
13293TIP3    H261371   2.494   6.647  11.628 -0.1635 -0.0962  0.4295
13294TIP3   OH261372   6.209   2.850  17.122  0.1434 -0.6808  0.3815
13294TIP3    H161373   6.157   2.860  17.042 -0.3666 -1.3037  0.6237
13294TIP3    H261374   6.293   2.892  17.102 -0.7046  1.0002  0.2544
13295TIP3   OH261375   2.329   0.990   2.658 -0.3430 -0.1577 -0.3205
13295TIP3    H161376   2.412   1.026   2.689  0.6401 -0.8265 -2.0773
13295TIP3    H261377   2.314   1.034   2.575 -1.6661 -0.1959 -0.1202
13296TIP3   OH261378   1.573   3.657   5.117  0.1354 -0.0002  0.1185
13296TIP3    H161379   1.482   3.630   5.124  0.7932 -2.0388  1.7692
13296TIP3    H261380   1.570   3.753   5.119 -1.9159 -0.0419  0.5909
13297TIP3   OH261381   2.946   6.009   2.171 -0.5913  0.1436 -0.2237
13297TIP3    H161382   2.934   5.990   2.078  1.4278 -1.7807 -0.1642
13297TIP3    H261383   3.028   6.058   2.176 -1.3839  1.4774  0.4762
13298TIP3   OH261384   6.707   2.352   6.080 -0.3315 -0.4049 -0.4920
13298TIP3    H161385   6.792   2.334   6.039  0.5156  1.7688  0.1527
13298TIP3    H261386   6.704   2.291   6.154  0.1326 -1.2890 -1.1729
13299TIP3   OH261387   0.659   1.618  15.162  0.4054 -0.4358 -0.8769
13299TIP3    H161388   0.573   1.633  15.201 -2.0518 -4.3708 -3.9743
13299TIP3    H261389   0.675   1.696  15.109 -1.2316  0.4223 -0.1820
13300TIP3   OH261390   3.023   1.244  14.117 -0.3084 -0.4870 -0.1535
13300TIP3    H161391   3.090   1.308  14.094 -0.8315 -0.0075 -0.3915
13300TIP3    H261392   3.023   1.181  14.046 -1.3802  0.5520 -1.1302
13301TIP3   OH261393   0.286   2.383   4.519  0.2505  0.3134 -0.7659
13301TIP3    H161394   0.231   2.341   4.585  1.3823 -0.7688 -0.4794
13301TIP3    H261395   0.354   2.319   4.500 -0.0733  0.5542 -3.0606
13302TIP3   OH261396   5.721   3.581  11.987  0.4169 -0.1527 -0.3002
13302TIP3    H161397   5.635   3.602  12.024 -0.8500 -1.1959 -2.4578
13302TIP3    H261398   5.732   3.487  12.003  1.3001  0.0278  0.2120
13303TIP3   OH261399   5.511   2.916  11.827  0.3647  0.2572 -0.0770
13303TIP3    H161400   5.433   2.876  11.790  0.9855 -0.1136 -1.0198
13303TIP3    H261401   5.581   2.854  11.808  0.8663  0.5062  0.8988
13304TIP3   OH261402   1.237   1.856   0.128 -0.4195  0.4008  0.2891
13304TIP3    H161403   1.273   1.784   0.178 -2.0956 -1.0838 -0.5441
13304TIP3    H261404   1.308   1.883   0.070  0.1122 -0.8624  0.3236
13305TIP3   OH261405   4.676   6.055  12.893  0.2375  0.4965  0.1022
13305TIP3    H161406   4.586   6.042  12.925 -0.1146  1.3040 -0.5268
13305TIP3    H261407   4.712   6.122  12.950  0.8206 -0.5614  1.0245
13306TIP3   OH261408   0.789   2.725   1.663 -0.3681 -0.4458 -0.3353
13306TIP3    H161409   0.716   2.664   1.669 -0.0908 -0.8108 -0.5672
13306TIP3    H261410   0.813   2.744   1.754 -1.4169  0.4990 -0.2460
13307TIP3   OH261411   1.933   4.069  13.574  0.1136 -0.1883 -0.4455
13307TIP3    H161412   1.878   4.114  13.509 -0.1134 -0.6899 -0.6036
13307TIP3    H261413   1.951   3.984  13.536 -0.1619 -0.5537  0.2212
13308TIP3   OH261414   1.265   3.977  12.127 -0.8223 -0.4771  0.1731
13308TIP3    H161415   1.300   3.945  12.044 -1.3448  0.3739 -0.3983
13308TIP3    H261416   1.339   3.974  12.188 -0.3316 -0.7410 -0.4272
13309TIP3   OH261417   0.256   2.767   5.167 -0.0274  0.1576 -0.1759
13309TIP3    H161418   0.263   2.862   5.157  0.4988 -0.0321 -2.1738
13309TIP3    H261419   0.163   2.751   5.178 -0.1517  0.8807 -0.0906
13310TIP3   OH261420   6.165   3.903   5.419 -0.7172 -0.2400  0.1760
13310TIP3    H161421   6.085   3.889   5.470 -0.2751  0.5774  1.1300
13310TIP3    H261422   6.186   3.996   5.432  0.0791 -0.3124 -0.5178
13311TIP3   OH261423   2.420   2.787   0.746 -0.1713 -0.1187  0.1578
13311TIP3    H161424   2.500   2.839   0.740 -0.0672 -0.2404  0.4929
13311TIP3    H261425   2.426   2.743   0.830  0.0517 -1.1969 -0.4042
13312TIP3   OH261426   2.190   0.024   5.655 -0.0721 -0.3532 -0.2858
13312TIP3    H161427   2.281  -0.001   5.669  0.0207  0.9325  1.8055
13312TIP3    H261428   2.160  -0.034   5.585  2.5532 -0.2812 -1.6037
13313TIP3   OH261429   6.069   2.385   5.045 -0.0893  0.6570  0.4846
13313TIP3    H161430   6.140   2.343   4.998  0.7922  0.2195  2.1090
13313TIP3    H261431   6.026   2.314   5.092 -0.4238  1.1727  0.9797
13314TIP3   OH261432   3.202   6.450   3.008 -0.0257  0.3717 -0.6603
13314TIP3    H161433   3.154   6.414   2.933 -1.1695  0.2366  0.1222
13314TIP3    H261434   3.163   6.536   3.023  0.0193  0.2893 -0.0550
13315TIP3   OH261435   2.960   4.002   1.996  0.2849 -0.6819  0.2500
13315TIP3    H161436   2.921   3.971   1.915  0.1871 -0.8969  0.3795
13315TIP3    H261437   3.051   4.022   1.972  0.0047  0.1617 -0.1334
13316TIP3   OH261438   4.809   5.699   5.992  0.1388  0.3659  0.7417
13316TIP3    H161439   4.879   5.636   5.972  0.4941  1.4964 -1.9760
13316TIP3    H261440   4.767   5.663   6.070  1.9257 -1.8678  0.7980
13317TIP3   OH261441   2.644   1.327  16.100  0.0918 -0.5795 -0.4667
13317TIP3    H161442   2.610   1.293  16.017  2.2497 -0.6524 -1.4150
13317TIP3    H261443   2.615   1.418  16.102 -1.0460 -0.9245 -0.6673
13318TIP3   OH261444   5.136   1.374  11.204  0.3642 -0.6070  0.1514
13318TIP3    H161445   5.137   1.432  11.127 -2.1716 -0.7055 -0.0457
13318TIP3    H261446   5.209   1.314  11.190  0.1715 -0.4037 -2.0205
13319TIP3   OH261447   2.800   2.751  14.637 -0.4054 -0.6251 -0.3281
13319TIP3    H161448   2.884   2.792  14.618 -1.4128  0.7626 -2.0892
13319TIP3    H261449   2.816   2.696  14.714  1.6314  1.0673  0.5187
13320TIP3   OH261450   1.962   5.841  17.169  0.0808 -0.9546  0.4325
13320TIP3    H161451   1.869   5.834  17.186 -0.1134 -0.6832 -0.4630
13320TIP3    H261452   1.971   5.921  17.116  0.7650 -1.2072  0.1508
13321TIP3   OH261453   2.466   0.036   4.780 -0.2553 -0.5643 -0.0995
13321TIP3    H161454   2.525  -0.005   4.842  0.4629 -0.3874 -0.6490
13321TIP3    H261455   2.515   0.038   4.698 -0.1485  1.6103 -0.0395
13322TIP3   OH261456   2.894   6.607  16.790 -0.3870 -0.1696 -0.2901
13322TIP3    H161457   2.832   6.632  16.721  0.5853  1.1896 -0.7061
13322TIP3    H261458   2.910   6.688  16.839  0.4899 -0.6671  0.2727
13323TIP3   OH261459   4.845   6.548  15.209  0.4791 -0.2110  0.0583
13323TIP3    H161460   4.879   6.611  15.145  0.5534  0.3837  0.6811
13323TIP3    H261461   4.862   6.463  15.169 -1.6190  0.1478 -1.8625
13324TIP3   OH261462   3.025   5.146  15.636  0.5439  0.0317  0.6818
13324TIP3    H161463   2.994   5.221  15.586  1.3044 -0.7853 -1.1140
13324TIP3    H261464   2.947   5.092  15.650  0.2980  0.3386  0.4951
13325TIP3   OH261465   0.074   1.567  14.546 -0.3186 -0.1386 -0.3582
13325TIP3    H161466   0.162   1.561  14.583  0.1757 -0.7562 -1.5782
13325TIP3    H261467   0.016   1.572  14.623  0.7426 -0.1675  0.4671
13326TIP3   OH261468   5.171   2.192  14.282 -0.0351  0.3914 -0.1118
13326TIP3    H161469   5.228   2.192  14.358 -0.3588  0.3722  0.1344
13326TIP3    H261470   5.206   2.260  14.225  2.8298 -2.3239 -1.9497
13327TIP3   OH261471   6.357   4.353  15.794 -0.4662 -0.1521 -0.1727
13327TIP3    H161472   6.286   4.399  15.750 -1.1750  1.0687  2.0596
13327TIP3    H261473   6.315   4.277  15.834 -0.1768 -0.3422 -0.2287
13328TIP3   OH261474   2.148   6.746  14.627  0.0997  0.2592 -0.1194
13328TIP3    H161475   2.110   6.796  14.699 -0.2901  2.2489 -1.6206
13328TIP3    H261476   2.235   6.783  14.615  0.6401 -0.8884  0.0789
13329TIP3   OH261477   0.276   1.952  15.370  0.4305  0.1136 -0.4969
13329TIP3    H161478   0.278   1.963  15.465  1.2896 -0.9412 -0.3720
13329TIP3    H261479   0.198   1.900  15.353  0.0621  0.6324 -0.4160
13330TIP3   OH261480   1.401   6.274   2.110  0.1063 -0.0526  0.3822
13330TIP3    H161481   1.453   6.316   2.041  1.1242  0.4114  1.3931
13330TIP3    H261482   1.456   6.202   2.140  0.3499  0.6625  1.7083
13331TIP3   OH261483   6.455   1.189   2.121  0.1097 -0.0180 -0.0649
13331TIP3    H161484   6.513   1.119   2.152  1.5598  0.7161 -1.0063
13331TIP3    H261485   6.399   1.146   2.057  0.5215 -0.4687 -0.1312
13332TIP3   OH261486   0.554   2.331   1.255 -0.1194 -0.0559  0.1094
13332TIP3    H161487   0.462   2.357   1.261  0.1002  1.2601 -1.3625
13332TIP3    H261488   0.551   2.240   1.225 -0.9401 -0.3001  0.9070
13333TIP3   OH261489   2.572   3.367  15.765 -0.5408 -0.1743 -0.0960
13333TIP3    H161490   2.507   3.298  15.754  0.0979 -0.6410 -1.0267
13333TIP3    H261491   2.530   3.431  15.824 -0.8620 -1.6911  1.3896
13334TIP3   OH261492   6.277   6.583   3.877  0.4486  0.5433 -0.6113
13334TIP3    H161493   6.228   6.615   3.801 -0.5359 -0.9463 -0.6395
13334TIP3    H261494   6.275   6.656   3.939 -1.7317  0.5831 -0.6602
13335TIP3   OH261495   3.824   4.964  17.066  0.2864 -0.1966 -0.0172
13335TIP3    H161496   3.810   4.958  16.972 -1.5083 -1.2708  0.2663
13335TIP3    H261497   3.761   5.031  17.095 -1.1148 -1.7622  0.7187
13336TIP3   OH261498   4.194   4.321  14.807  0.0634 -0.2745  0.2928
13336TIP3    H161499   4.172   4.356  14.721 -1.6116 -1.7435  0.0786
13336TIP3    H261500   4.147   4.378  14.868 -0.7217 -0.7009  0.0896
13337TIP3   OH261501   3.607   3.454  15.480  0.8965 -0.4746 -0.0290
13337TIP3    H161502   3.675   3.411  15.532 -0.0526  1.5749  3.1590
13337TIP3    H261503   3.533   3.394  15.483  0.9472 -0.5093  0.7827
13338TIP3   OH261504   6.660   0.919   1.096 -0.0051 -0.1426 -0.0439
13338TIP3    H161505   6.706   0.903   1.013  1.0882  2.4107 -0.0431
13338TIP3    H261506   6.704   0.863   1.159  1.6951  0.6113 -0.4995
13339TIP3   OH261507   4.348   3.225   3.364 -0.1682 -0.3451  0.1290
13339TIP3    H161508   4.353   3.280   3.286  0.9167 -1.8590 -0.9108
13339TIP3    H261509   4.432   3.238   3.408 -0.9196  0.8021  1.3079
13340TIP3   OH261510   1.510   6.563  17.186 -0.2051 -0.0660 -0.7019
13340TIP3    H161511   1.472   6.616  17.116  2.6185 -0.3609 -2.6425
13340TIP3    H261512   1.550   6.626  17.246  0.7973  0.1452 -1.5556
13341TIP3   OH261513   0.512   0.322   6.099  0.1650 -0.1449 -0.5425
13341TIP3    H161514   0.466   0.390   6.148 -0.0406 -0.4500 -0.3091
13341TIP3    H261515   0.533   0.256   6.165 -1.7224 -1.4407 -1.1581
13342TIP3   OH261516   0.235   2.399   0.497  0.0834 -0.2254  0.2968
13342TIP3    H161517   0.229   2.471   0.435  0.7417 -0.6230 -0.2379
13342TIP3    H261518   0.296   2.429   0.564  1.4609 -0.8043 -0.6664
13343TIP3   OH261519   4.363   4.088   2.518  0.3557  0.3314 -0.2146
13343TIP3    H161520   4.457   4.075   2.528  0.2538 -1.0174 -0.6962
13343TIP3    H261521   4.341   4.041   2.438 -1.0284 -1.1419  0.9600
13344TIP3   OH261522   4.457   1.322   1.738 -0.1808 -0.3152  0.1455
13344TIP3    H161523   4.428   1.359   1.821 -1.5879  1.1941 -0.9378
13344TIP3    H261524   4.489   1.398   1.688 -0.0125 -1.0796 -0.9352
13345TIP3   OH261525   5.776   5.441  13.951 -0.5354  0.2834 -0.1565
13345TIP3    H161526   5.707   5.507  13.936  1.4890  2.5323 -0.1323
13345TIP3    H261527   5.780   5.432  14.046 -1.3988 -0.6017 -0.1829
13346TIP3   OH261528   1.988   4.088  15.491  0.0034 -0.0541 -0.2767
13346TIP3    H161529   1.923   4.065  15.558 -1.3973  0.3009 -1.4444
13346TIP3    H261530   2.047   4.013  15.488 -2.0485 -1.7473 -1.1333
13347TIP3   OH261531   0.949   2.420   2.047 -0.4216  0.9937  0.0961
13347TIP3    H161532   0.917   2.479   2.115 -1.5583 -1.1856  1.5979
13347TIP3    H261533   0.906   2.336   2.066  1.8042 -0.5904 -1.3246
13348TIP3   OH261534   6.264   0.521  16.558 -0.0097 -0.3726 -0.0941
13348TIP3    H161535   6.175   0.551  16.574  0.0279 -0.9228  1.2896
13348TIP3    H261536   6.273   0.442  16.611  1.7269  0.4259  0.9065
13349TIP3   OH261537   3.818   5.519   4.962 -0.0922 -0.1242  0.6184
13349TIP3    H161538   3.892   5.577   4.943 -1.3163  0.8649 -1.6043
13349TIP3    H261539   3.742   5.566   4.926 -1.3264 -2.5007 -0.0325
13350TIP3   OH261540   5.671   3.714   5.609 -0.1117 -0.1433 -0.2218
13350TIP3    H161541   5.649   3.692   5.518 -1.4078  1.0512 -0.2400
13350TIP3    H261542   5.601   3.674   5.660 -0.4585  0.8083  0.0631
13351TIP3   OH261543   0.240   5.140   0.155 -0.3369 -0.5468  0.2647
13351TIP3    H161544   0.227   5.235   0.156  0.3644 -0.4359 -0.3933
13351TIP3    H261545   0.225   5.114   0.065  0.2957 -0.9332  0.2623
13352TIP3   OH261546   4.649   5.766  14.041 -0.3433 -0.3129  0.2697
13352TIP3    H161547   4.574   5.717  14.007  0.7336 -2.3180  0.6431
13352TIP3    H261548   4.659   5.839  13.981 -0.8042 -1.6621 -1.5448
13353TIP3   OH261549   0.493   2.148  11.890 -0.0894  0.2228 -0.7683
13353TIP3    H161550   0.514   2.128  11.981 -1.3256  3.1870  0.3012
13353TIP3    H261551   0.443   2.073  11.859  1.2359 -1.2958  0.6185
13354TIP3   OH261552   5.400   2.095   0.444  0.1144 -0.3003 -0.2618
13354TIP3    H161553   5.323   2.065   0.494 -0.0733  0.9392  0.2381
13354TIP3    H261554   5.462   2.023   0.450 -0.0024 -0.2993  1.5849
13355TIP3   OH261555   4.527   2.693   0.623 -0.2713  0.1926  0.7713
13355TIP3    H161556   4.440   2.662   0.599  0.7424 -0.8451 -1.9435
13355TIP3    H261557   4.538   2.775   0.576  0.3155  0.1788  0.8751
13356TIP3   OH261558   2.960   3.034   3.880 -0.9167 -0.0028 -0.0059
13356TIP3    H161559   2.924   2.965   3.825 -0.2474  0.4273 -1.0155
13356TIP3    H261560   3.023   3.079   3.824 -0.4129  0.6277  1.0312
13357TIP3   OH261561   2.191   0.710  14.611 -0.5482  0.2426 -0.1304
13357TIP3    H161562   2.253   0.696  14.682  1.3608  1.4398 -1.4668
13357TIP3    H261563   2.183   0.624  14.568  1.2012  0.3243 -0.6849
13358TIP3   OH261564   6.505   4.987  17.352  0.0189  0.0194  0.3906
13358TIP3    H161565   6.535   4.985  17.261 -0.5088 -1.0616  0.2254
13358TIP3    H261566   6.585   4.979  17.404  0.3955  1.3701  0.0585
13359TIP3   OH261567   0.507   6.638   3.583 -0.1180  0.0947 -0.6547
13359TIP3    H161568   0.474   6.700   3.648  0.5969  0.0850 -0.2785
13359TIP3    H261569   0.597   6.621   3.609  0.2113  0.1540 -1.7038
13360TIP3   OH261570   4.833   5.926   0.937 -0.0723  0.0379  0.0940
13360TIP3    H161571   4.893   5.961   1.003  0.1972  1.2712 -0.7606
13360TIP3    H261572   4.876   5.943   0.853  0.2169 -2.7048 -0.4073
13361TIP3   OH261573   3.357   5.547   6.326  0.2541  0.5386  0.5249
13361TIP3    H161574   3.280   5.604   6.323 -0.2429 -0.1312  0.0042
13361TIP3    H261575   3.364   5.520   6.418 -0.2984  0.4012  0.5310
13362TIP3   OH261576   5.024   2.106  12.099  0.2081 -0.1413 -0.5979
13362TIP3    H161577   5.102   2.074  12.055  2.0995 -0.2452  2.5118
13362TIP3    H261578   5.020   2.199  12.076  1.2061 -0.1490 -0.8646
13363TIP3   OH261579   3.736   2.577   5.246 -0.1144  0.0690 -0.9145
13363TIP3    H161580   3.754   2.650   5.186  1.7645 -1.3233 -2.1575
13363TIP3    H261581   3.641   2.578   5.256 -0.1041  3.5579  0.3243
13364TIP3   OH261582   6.258   1.158  14.528  0.4017 -0.3896 -0.6951
13364TIP3    H161583   6.278   1.239  14.480 -0.5638  0.0458 -0.3908
13364TIP3    H261584   6.193   1.184  14.593 -2.0300 -1.8630 -2.3350
13365TIP3   OH261585   4.319   4.432  16.712 -0.0414 -0.0413  0.2548
13365TIP3    H161586   4.239   4.390  16.682  0.2900 -0.5972  0.1338
13365TIP3    H261587   4.327   4.510  16.657 -1.4253  0.9835  1.4477
13366TIP3   OH261588   2.364   4.870  11.082 -0.1598  0.2404 -0.0044
13366TIP3    H161589   2.302   4.798  11.092 -0.4212  0.3769 -0.6269
13366TIP3    H261590   2.369   4.884  10.988 -1.3515  2.1048  0.1697
13367TIP3   OH261591   3.066   0.251   2.178  0.2175  0.3387  0.2827
13367TIP3    H161592   3.091   0.332   2.135 -0.2040 -0.5523 -1.7590
13367TIP3    H261593   3.116   0.183   2.133 -1.9219 -0.8940 -0.3931
13368TIP3   OH261594   6.286   1.806  13.960 -0.1032  0.7977  0.1773
13368TIP3    H161595   6.308   1.880  14.016 -0.8491 -0.1991  1.8716
13368TIP3    H261596   6.295   1.729  14.017 -0.5395 -0.3152 -1.1790
13369TIP3   OH261597   6.130   2.430  11.315 -0.2921  0.0647  0.1051
13369TIP3    H161598   6.053   2.390  11.354 -0.6437  1.0743  0.4680
13369TIP3    H261599   6.098   2.514  11.279 -0.0982 -0.9411 -2.6939
13370TIP3   OH261600   2.079   6.386   1.763 -0.4440  0.1292 -0.1956
13370TIP3    H161601   2.042   6.379   1.675  1.8499 -1.5110 -1.1267
13370TIP3    H261602   2.168   6.419   1.749  1.3528 -3.6522  1.0093
13371TIP3   OH261603   2.274   5.924   0.335  0.1398 -0.0251 -0.5268
13371TIP3    H161604   2.215   5.941   0.408  2.8063  0.8163  1.6066
13371TIP3    H261605   2.269   6.002   0.281  0.8745  1.0438  0.8671
13372TIP3   OH261606   4.172   4.331   1.953  0.0799 -0.4353 -0.5714
13372TIP3    H161607   4.215   4.386   2.019  1.4304 -0.4292 -1.4142
13372TIP3    H261608   4.183   4.242   1.986  2.1903 -0.5850 -1.4903
13373TIP3   OH261609   4.439   0.966  12.025  0.5037  0.1550 -0.1338
13373TIP3    H161610   4.373   0.901  11.997  0.4908  0.3210 -0.4998
13373TIP3    H261611   4.408   0.997  12.110  0.2041  0.0993 -0.2203
13374TIP3   OH261612   0.533   0.145  12.797 -0.3563 -0.1618 -0.1385
13374TIP3    H161613   0.523   0.129  12.891 -0.0337 -2.0928 -0.3957
13374TIP3    H261614   0.561   0.236  12.792 -3.7321  1.1171  1.4066
13375TIP3   OH261615   2.664   5.744  16.533 -1.0218  0.1761  0.1302
13375TIP3    H161616   2.760   5.743  16.538 -0.8358  1.9694 -1.6694
13375TIP3    H261617   2.635   5.703  16.614  1.2651 -0.3145  0.7687
13376TIP3   OH261618   1.088   5.311   1.838  0.2527  0.3757  0.1112
13376TIP3    H161619   0.999   5.303   1.805  0.7002 -1.6848 -0.7562
13376TIP3    H261620   1.078   5.328   1.931 -1.0802 -1.4472  0.3520
13377TIP3   OH261621   5.261   4.023  13.241 -0.0396  0.1011 -0.1593
13377TIP3    H161622   5.300   4.066  13.317 -0.2574 -1.2874  0.7681
13377TIP3    H261623   5.322   3.953  13.219 -0.3299  0.0500 -0.8500
13378TIP3   OH261624   4.284   5.070  16.284 -0.0798  0.6721  0.0972
13378TIP3    H161625   4.277   5.005  16.214 -2.4183 -0.3117  1.1557
13378TIP3    H261626   4.197   5.073  16.323  0.3904  3.3149  1.1250
13379TIP3   OH261627   3.319   2.662   4.285 -0.6422 -0.5604 -0.4143
13379TIP3    H161628   3.402   2.619   4.306  0.4779  1.2330 -0.9524
13379TIP3    H261629   3.303   2.638   4.193 -0.9743 -1.2757 -0.1772
13380TIP3   OH261630   0.218   3.786  13.335 -0.0595  0.0376 -0.1218
13380TIP3    H161631   0.301   3.832  13.348  0.0341 -0.3191  0.6045
13380TIP3    H261632   0.242   3.693  13.334 -0.3250 -0.0246 -0.9284
13381TIP3   OH261633   4.830   2.828  17.085  0.5006 -0.2924  0.1519
13381TIP3    H161634   4.804   2.791  17.169 -1.7754  1.3850  0.2828
13381TIP3    H261635   4.868   2.755  17.037 -1.5993 -2.2293  1.2563
13382TIP3   OH261636   4.544   1.730  12.814 -0.3571  0.0256 -0.3745
13382TIP3    H161637   4.622   1.746  12.865  0.1608 -0.5857 -0.9484
13382TIP3    H261638   4.525   1.813  12.771 -0.8997  0.5964  0.9142
13383TIP3   OH261639   5.787   5.925  16.380 -0.6215  0.0456 -0.1862
13383TIP3    H161640   5.822   6.014  16.376  2.1343 -0.8100  1.5946
13383TIP3    H261641   5.733   5.924  16.458  1.0081 -0.2679  0.9973
13384TIP3   OH261642   0.197   3.641  14.424  0.6324 -0.3599  0.4502
13384TIP3    H161643   0.154   3.595  14.496 -2.1926  2.4828  0.8023
13384TIP3    H261644   0.242   3.714  14.467  0.5385  0.2592 -0.4934
13385TIP3   OH261645   3.765   6.481   2.975 -0.1032 -0.1373 -0.0378
13385TIP3    H161646   3.710   6.518   2.907  0.0266 -0.9929 -0.6163
13385TIP3    H261647   3.841   6.539   2.979  0.4503 -0.7386 -1.4503
13386TIP3   OH261648   2.264   3.276  14.825 -0.2841  0.0316 -0.1125
13386TIP3    H161649   2.254   3.357  14.775 -1.2061 -0.9758 -1.6191
13386TIP3    H261650   2.177   3.256  14.858 -0.3658 -1.0853 -0.9566
13387TIP3   OH261651   5.925   0.869  11.181 -0.5434  0.2229  0.6387
13387TIP3    H161652   5.901   0.877  11.273 -0.0107 -0.7265  0.8813
13387TIP3    H261653   5.859   0.809  11.144  0.2079 -0.7507  0.8226
13388TIP3   OH261654   2.857   4.005   5.485  0.7241  0.2227 -0.6836
13388TIP3    H161655   2.882   3.921   5.525  0.5478  1.0139  1.2143
13388TIP3    H261656   2.929   4.063   5.508 -0.0239  1.0365 -0.3560
13389TIP3   OH261657   6.093   4.205  12.895  0.9935 -0.0589  0.4093
13389TIP3    H161658   6.059   4.289  12.928  1.8220  0.7801 -0.8038
13389TIP3    H261659   6.127   4.161  12.974 -0.4507  0.2198  1.2348
13390TIP3   OH261660   0.983   5.187  14.171 -0.1228 -0.1083 -0.0566
13390TIP3    H161661   0.951   5.117  14.113 -0.9149  0.8844 -0.8454
13390TIP3    H261662   1.074   5.164  14.188 -0.4220 -1.4447 -0.1242
13391TIP3   OH261663   0.910   6.749   5.453  0.1984 -0.3541 -0.0925
13391TIP3    H161664   0.940   6.817   5.393  0.9366 -1.1832 -0.6906
13391TIP3    H261665   0.885   6.796   5.532 -1.6301  0.8743 -1.2975
13392TIP3   OH261666   0.264   4.125  15.082 -0.0026 -0.1858 -0.2566
13392TIP3    H161667   0.198   4.159  15.142 -0.8295 -0.2978 -1.0704
13392TIP3    H261668   0.218   4.057  15.032  0.1688  0.9432 -2.0685
13393TIP3   OH261669   5.355   5.126  16.908  0.6805 -0.0870 -0.1103
13393TIP3    H161670   5.273   5.174  16.916  1.1777  0.6279  0.9476
13393TIP3    H261671   5.386   5.144  16.819  0.6611  1.2413  0.1393
13394TIP3   OH261672   4.067   4.358  15.789  0.3113 -0.1788 -0.2881
13394TIP3    H161673   4.128   4.410  15.842 -0.1301  0.2910 -0.2231
13394TIP3    H261674   4.058   4.276  15.837  0.8729 -0.2447 -0.2887
13395TIP3   OH261675   3.523   2.765  17.261 -0.0506  0.4304 -0.6597
13395TIP3    H161676   3.577   2.718  17.198  0.4016  1.6340 -1.1986
13395TIP3    H261677   3.544   2.858  17.247  0.9501  0.7003  2.0577
13396TIP3   OH261678   3.742   6.284  12.481 -0.7229  0.2542 -0.3042
13396TIP3    H161679   3.763   6.376  12.498  0.3516 -0.0778  0.2795
13396TIP3    H261680   3.765   6.271  12.389 -0.4697  0.4643 -0.2745
13397TIP3   OH261681   0.078   1.521  12.360 -0.0996  0.2187 -0.2473
13397TIP3    H161682   0.125   1.541  12.279 -1.0711  0.0158 -0.8844
13397TIP3    H261683   0.073   1.604  12.407  0.0974  0.4286 -0.5988
13398TIP3   OH261684   5.761   4.891  11.937  0.0378  0.5729  0.2871
13398TIP3    H161685   5.723   4.887  11.849 -1.5087 -1.4331  0.9426
13398TIP3    H261686   5.688   4.867  11.995  1.3594  0.5161  2.0070
13399TIP3   OH261687   5.809   5.550   2.403  0.2397  0.6630  0.0799
13399TIP3    H161688   5.767   5.579   2.484 -0.0308  0.5276 -0.0096
13399TIP3    H261689   5.739   5.549   2.339  0.7539  2.2574 -0.5533
13400TIP3   OH261690   3.590   5.517  14.699 -0.4392  0.5275 -0.1715
13400TIP3    H161691   3.664   5.559  14.656 -0.1946 -0.3990 -0.6840
13400TIP3    H261692   3.593   5.426  14.670 -1.2860  0.2757  0.4630
13401TIP3   OH261693   3.801   2.960  12.937 -0.4117 -0.1645  0.3852
13401TIP3    H161694   3.863   3.032  12.931 -1.1717  0.4067 -0.9650
13401TIP3    H261695   3.817   2.921  13.023  0.9377  0.7538  0.5644
13402TIP3   OH261696   2.585   1.231  14.808  0.0331  0.3690 -0.6009
13402TIP3    H161697   2.595   1.139  14.835 -1.0629  0.2354 -0.6039
13402TIP3    H261698   2.506   1.232  14.754  1.1062  0.9835 -2.2403
13403TIP3   OH261699   0.998   4.574   4.097  0.1432  0.2566  0.4128
13403TIP3    H161700   1.023   4.630   4.023 -0.6192  0.6664  0.4575
13403TIP3    H261701   0.917   4.532   4.069  0.6934 -0.8139  0.3934
13404TIP3   OH261702   0.057   5.620   0.052  0.3143 -0.3157  0.0025
13404TIP3    H161703   0.092   5.677   0.121  0.3392 -1.2797  0.8201
13404TIP3    H261704  -0.030   5.655   0.033  0.4418  0.1613  0.2944
13405TIP3   OH261705   0.809   4.765  16.517 -0.7098  0.3774 -0.1018
13405TIP3    H161706   0.750   4.832  16.552  0.0833  0.6559  0.7563
13405TIP3    H261707   0.780   4.751  16.427 -0.2916  2.5774 -0.6297
13406TIP3   OH261708   1.229   2.549  12.624 -0.1027  0.0424 -0.0926
13406TIP3    H161709   1.316   2.516  12.649 -0.0003  1.5459  1.7353
13406TIP3    H261710   1.210   2.618  12.687 -1.6654  1.3377 -1.8552
13407TIP3   OH261711   4.457   5.455  12.814 -0.2776 -0.4866  0.3881
13407TIP3    H161712   4.487   5.471  12.725 -0.0006 -0.7456  0.4330
13407TIP3    H261713   4.537   5.432  12.862 -0.0010  2.0301  1.2742
13408TIP3   OH261714   2.941   0.629   1.206 -0.3663 -0.6707  0.6914
13408TIP3    H161715   3.026   0.601   1.240 -0.1259 -0.4973  0.2441
13408TIP3    H261716   2.879   0.608   1.276  0.1766  0.1009  1.4207
13409TIP3   OH261717   5.681   0.222  15.518  0.7129 -0.0200  1.1071
13409TIP3    H161718   5.628   0.148  15.488  0.4293 -0.3695  2.3967
13409TIP3    H261719   5.734   0.246  15.442 -2.4082  1.4285 -0.8056
13410TIP3   OH261720   5.302   4.773  15.726  0.3002  0.6941 -0.2757
13410TIP3    H161721   5.306   4.711  15.653  0.6524  0.7858 -0.3405
13410TIP3    H261722   5.364   4.842  15.701 -0.0707  1.0590 -0.1932
13411TIP3   OH261723   6.375   3.361  14.247 -0.0478 -0.1158  0.7234
13411TIP3    H161724   6.358   3.272  14.217 -0.1886 -0.0203  0.5211
13411TIP3    H261725   6.295   3.409  14.225  1.0611  0.7461 -1.7822
13412TIP3   OH261726   1.191   2.134  12.613  0.4020  0.3569 -0.0775
13412TIP3    H161727   1.219   2.082  12.688  1.1190 -1.1506 -1.3226
13412TIP3    H261728   1.096   2.121  12.609  0.5817 -0.9856 -0.4230
13413TIP3   OH261729   1.856   4.149  13.812  0.2530 -0.7803 -0.3882
13413TIP3    H161730   1.885   4.127  13.723 -1.0704  0.0242 -1.0552
13413TIP3    H261731   1.838   4.065  13.853  2.3588 -1.2394 -0.3315
13414TIP3   OH261732   5.183   3.787   2.032 -0.2499  0.4602  0.3236
13414TIP3    H161733   5.156   3.799   1.940 -0.8850  1.3215  0.6096
13414TIP3    H261734   5.211   3.695   2.036 -0.0407  0.4547 -0.7738
13415TIP3   OH261735   2.450   2.086   4.481 -0.6106  0.0213  0.0457
13415TIP3    H161736   2.356   2.077   4.498 -0.3638  0.3475  1.6899
13415TIP3    H261737   2.464   2.180   4.468 -0.3919  0.0647  0.5833
13416TIP3   OH261738   3.808   3.166  15.833 -0.0993  0.5536  0.0680
13416TIP3    H161739   3.780   3.080  15.800 -0.9257 -1.2182  4.7110
13416TIP3    H261740   3.896   3.151  15.868 -1.1804  0.7524  3.1627
13417TIP3   OH261741   4.099   2.289   6.833  0.4248  0.1622  0.1047
13417TIP3    H161742   4.121   2.199   6.857 -1.2874 -0.8337 -1.6995
13417TIP3    H261743   4.091   2.335   6.916 -1.0035 -1.9587  1.2255
13418TIP3   OH261744   4.860   1.654  15.579  0.1676 -0.2574 -0.5145
13418TIP3    H161745   4.796   1.612  15.522  1.3598 -1.2534 -1.1869
13418TIP3    H261746   4.945   1.630  15.541  0.9686  2.6816 -0.8802
13419TIP3   OH261747   2.398   6.191  14.125  0.5449 -0.6713 -0.3811
13419TIP3    H161748   2.327   6.131  14.104  1.8758 -2.0608 -1.0894
13419TIP3    H261749   2.421   6.231  14.041  0.8224 -0.4750 -0.2136
13420TIP3   OH261750   1.205   4.033  13.939 -0.9815  0.6717  0.1256
13420TIP3    H161751   1.205   4.011  14.032 -2.1052 -0.8046 -0.1740
13420TIP3    H261752   1.175   4.124  13.935  0.5683  1.2607  1.2610
13421TIP3   OH261753   0.296   4.826  13.414  0.2109  0.1913 -0.1502
13421TIP3    H161754   0.338   4.753  13.459  0.6713  0.0487 -0.7982
13421TIP3    H261755   0.336   4.904  13.453  1.0260  0.0571 -0.7017
13422TIP3   OH261756   3.066   0.278   3.837 -0.2454  0.5536 -0.2019
13422TIP3    H161757   3.115   0.313   3.763  0.9915 -1.5097 -0.4356
13422TIP3    H261758   3.134   0.253   3.900 -1.1739  0.3984  0.7558
13423TIP3   OH261759   6.016   6.160   6.536  0.4873  0.2963 -0.2480
13423TIP3    H161760   6.089   6.126   6.588  0.0929 -1.5474 -0.8139
13423TIP3    H261761   5.982   6.083   6.490 -2.9565  0.6939  1.3273
13424TIP3   OH261762   6.509   4.242  13.243  0.2272  0.5941  0.3272
13424TIP3    H161763   6.505   4.299  13.320 -0.9543  1.2271 -0.1731
13424TIP3    H261764   6.428   4.261  13.196  1.0404  0.3872 -1.1920
13425TIP3   OH261765   3.110   4.416  15.713 -0.2637 -0.6091  0.4049
13425TIP3    H161766   3.062   4.450  15.638  0.4494 -0.5090 -0.0116
13425TIP3    H261767   3.053   4.348  15.749 -0.0955 -1.4998 -0.9417
13426TIP3   OH261768   4.011   4.563  13.700  0.1612  0.0032  0.2450
13426TIP3    H161769   4.046   4.581  13.788 -0.4414  0.1396  0.4653
13426TIP3    H261770   4.048   4.478  13.676  2.1331  0.9850 -0.3233
13427TIP3   OH261771   1.832   3.224  15.225 -0.2826  0.2271  0.1916
13427TIP3    H161772   1.898   3.156  15.236 -0.2895 -0.0931 -1.4813
13427TIP3    H261773   1.756   3.179  15.189 -0.7613  0.8983  0.3356
13428TIP3   OH261774   2.296   4.912   0.613 -0.3112  0.9015  0.2051
13428TIP3    H161775   2.371   4.924   0.555 -2.0506  0.2027 -2.3278
13428TIP3    H261776   2.277   5.000   0.646 -0.6718  1.7806 -2.1808
13429TIP3   OH261777   4.495   3.886   5.415  0.1739  0.0876  0.7888
13429TIP3    H161778   4.419   3.929   5.453  1.4188  0.7542  2.6636
13429TIP3    H261779   4.519   3.819   5.479 -0.5363 -2.1775 -1.1500
13430TIP3   OH261780   2.382   6.289  10.899  0.0283  0.4282  0.0735
13430TIP3    H161781   2.469   6.321  10.923  0.6556 -0.9172 -0.2749
13430TIP3    H261782   2.347   6.253  10.980 -0.1527  0.8353  0.1799
13431TIP3   OH261783   3.525   0.182  14.226 -0.0293 -0.5476  0.0198
13431TIP3    H161784   3.489   0.122  14.292  0.9268  1.2153  2.2923
13431TIP3    H261785   3.455   0.244  14.209  0.1010 -0.3333  0.2586
13432TIP3   OH261786   4.745   1.650  10.982 -0.5200 -1.0805 -0.4345
13432TIP3    H161787   4.806   1.633  11.054 -1.0785 -0.1326  0.2781
13432TIP3    H261788   4.793   1.623  10.903  0.9487 -0.0736  0.0734
13433TIP3   OH261789   6.358   1.527  16.974 -0.8189 -0.1924 -0.0632
13433TIP3    H161790   6.294   1.574  16.921 -0.4953 -1.1052 -1.3275
13433TIP3    H261791   6.311   1.450  17.007 -0.9646  0.2719  0.8275
13434TIP3   OH261792   5.198   3.672  11.409 -0.4643  0.3329 -0.1782
13434TIP3    H161793   5.281   3.707  11.375  0.0077  0.5578  1.1403
13434TIP3    H261794   5.190   3.710  11.496 -1.4820 -0.4540  0.0878
13435TIP3   OH261795   2.053   2.839  16.754 -0.1702  0.3930  0.5123
13435TIP3    H161796   1.995   2.889  16.811 -0.3186  1.2718 -0.3836
13435TIP3    H261797   2.105   2.905  16.710 -0.8951 -0.1780 -1.2730
13436TIP3   OH261798   0.334   4.840  12.777 -0.2178  0.1345  0.5526
13436TIP3    H161799   0.403   4.775  12.791  1.8765  2.2361  0.5798
13436TIP3    H261800   0.269   4.794  12.725  1.0303 -2.0553  0.7802
13437TIP3   OH261801   1.209   1.772   5.058  0.0819  0.7851  0.3256
13437TIP3    H161802   1.149   1.757   4.985  0.1427  0.0301  0.4256
13437TIP3    H261803   1.288   1.808   5.017  0.8682 -1.4639 -0.2644
13438TIP3   OH261804   0.060   4.644   5.201  0.4031  0.1737  0.3835
13438TIP3    H161805   0.096   4.629   5.113 -1.3230  1.2002 -0.5482
13438TIP3    H261806   0.131   4.689   5.248  0.8609  0.9355 -0.9637
13439TIP3   OH261807   0.276   3.261   4.223  0.6687 -0.1445 -0.0934
13439TIP3    H161808   0.185   3.285   4.243  0.4854  0.6542 -1.7107
13439TIP3    H261809   0.327   3.339   4.242  0.1014  1.8506 -5.1338
13440TIP3   OH261810   5.893   1.891  10.788  0.6982  0.3673 -0.7132
13440TIP3    H161811   5.947   1.843  10.851 -1.9373 -0.3913  1.1231
13440TIP3    H261812   5.956   1.928  10.726  3.3418  0.1125  1.6278
13441TIP3   OH261813   0.746   5.545  10.224  0.3740  0.0253  0.3100
13441TIP3    H161814   0.655   5.520  10.207  0.0473  1.6907 -0.5016
13441TIP3    H261815   0.788   5.542  10.139  0.4995  1.4410  0.2958
13442TIP3   OH261816   5.699   5.003  17.006 -0.3949  0.2111  0.5694
13442TIP3    H161817   5.676   4.916  17.038  1.1768  0.3575  2.2931
13442TIP3    H261818   5.767   4.987  16.940 -1.1998  0.0781 -0.2417
13443TIP3   OH261819   6.679   2.884   5.248 -0.3642  0.0038  0.3321
13443TIP3    H161820   6.725   2.832   5.315 -0.3340  0.2105  0.4736
13443TIP3    H261821   6.591   2.896   5.284  0.1901  1.7135  1.2271
13444TIP3   OH261822   1.290   6.151   3.705 -0.3168  0.7236 -0.3106
13444TIP3    H161823   1.311   6.130   3.796  0.8086 -1.1154 -0.9518
13444TIP3    H261824   1.331   6.237   3.690  0.5005  0.5003  0.5841
13445TIP3   OH261825   3.885   4.111  13.566 -0.3511  0.3339  0.1258
13445TIP3    H161826   3.880   4.016  13.563  0.6671  0.2531  0.6842
13445TIP3    H261827   3.793   4.140  13.560 -0.6113 -0.6308 -0.8909
13446TIP3   OH261828   3.301   1.677  13.544 -0.3006 -0.2939 -0.4799
13446TIP3    H161829   3.351   1.606  13.505 -0.8321 -0.8224 -0.2220
13446TIP3    H261830   3.366   1.743  13.566  0.5415 -1.6282  1.3366
13447TIP3   OH261831   5.646   1.118  11.403 -0.0247 -0.6176  0.0661
13447TIP3    H161832   5.678   1.186  11.343  2.1999 -1.2245  0.4742
13447TIP3    H261833   5.652   1.158  11.490 -3.4261  0.3319  0.0080
13448TIP3   OH261834   0.211   0.387  12.439  0.1127  0.0996  0.8609
13448TIP3    H161835   0.216   0.323  12.510  1.7674 -1.5000 -0.5897
13448TIP3    H261836   0.146   0.351  12.379 -0.6083  0.9833  1.0817
13449TIP3   OH261837   0.174   5.310  13.287 -0.0934 -0.3888  0.8079
13449TIP3    H161838   0.103   5.344  13.233 -0.6082 -0.9022  1.1554
13449TIP3    H261839   0.217   5.244  13.233  2.0315  1.9216 -0.5796
13450TIP3   OH261840   3.673   2.197   4.279 -0.2621 -0.0728  0.0336
13450TIP3    H161841   3.619   2.135   4.229  0.7931  0.5863 -2.0570
13450TIP3    H261842   3.753   2.149   4.300 -0.1315  0.0671 -0.1379
13451TIP3   OH261843   0.783   1.174   5.759 -0.0933  0.4336  0.2411
13451TIP3    H161844   0.878   1.184   5.754 -0.1851  0.9406 -0.5203
13451TIP3    H261845   0.748   1.236   5.695 -0.9879  1.0652  1.3108
13452TIP3   OH261846   6.708   3.368   2.499  0.5473 -0.3495  0.1777
13452TIP3    H161847   6.684   3.340   2.587 -2.2525 -0.1174 -0.4163
13452TIP3    H261848   6.732   3.460   2.509  0.1055 -0.2824  0.7067
13453TIP3   OH261849   6.346   2.855  12.962 -0.5546 -0.2381  0.2660
13453TIP3    H161850   6.385   2.800  13.030  1.0696 -0.3864 -0.7322
13453TIP3    H261851   6.363   2.945  12.990  1.4261 -0.2889 -0.5851
13454TIP3   OH261852   1.876   2.888  13.046  0.1691 -0.1186 -0.2247
13454TIP3    H161853   1.906   2.953  12.983 -0.4405  2.6870  2.2089
13454TIP3    H261854   1.944   2.820  13.043  2.2243  1.8316 -1.0459
13455TIP3   OH261855   6.161   3.294   2.824  0.6860 -0.2853  0.7245
13455TIP3    H161856   6.105   3.283   2.900 -0.8662 -2.0911 -0.5595
13455TIP3    H261857   6.109   3.259   2.751  1.4573  2.7338 -1.4800
13456TIP3   OH261858   0.128   1.376   4.804  0.2509 -0.5457  0.3511
13456TIP3    H161859   0.177   1.398   4.883 -0.2554  1.0605  0.2544
13456TIP3    H261860   0.037   1.371   4.834  0.0897 -0.2030 -0.0693
13457TIP3   OH261861   0.986   6.660   4.886  0.3555  0.0533  0.3670
13457TIP3    H161862   0.955   6.637   4.974 -0.4126 -0.4678 -0.0191
13457TIP3    H261863   1.075   6.690   4.899  0.9571 -1.8594  1.1153
13458TIP3   OH261864   4.201   5.879  12.480  0.2066  0.2324 -0.0968
13458TIP3    H161865   4.238   5.841  12.400  0.9112 -1.4926  0.9768
13458TIP3    H261866   4.110   5.850  12.481  0.2721  0.0213 -0.1550
13459TIP3   OH261867   2.213   6.618  13.779  0.1262 -0.0630  0.4432
13459TIP3    H161868   2.159   6.541  13.763 -0.4751  0.4360  0.0112
13459TIP3    H261869   2.264   6.596  13.857  0.9730 -1.4143 -0.4533
13460TIP3   OH261870   6.307   0.089   3.245 -0.5306 -0.7841 -0.5545
13460TIP3    H161871   6.347   0.021   3.191 -0.9912 -1.2959 -0.2602
13460TIP3    H261872   6.222   0.106   3.203  0.6319  1.4815 -2.1548
13461TIP3   OH261873   0.223   0.635  17.381 -0.8386 -0.9603  0.1503
13461TIP3    H161874   0.299   0.580  17.362 -0.9942 -1.0733 -0.1506
13461TIP3    H261875   0.207   0.683  17.299 -0.2570  0.0793  0.6259
13462TIP3   OH261876   4.997   6.175   5.404 -0.2168  0.5470  0.5201
13462TIP3    H161877   4.924   6.141   5.455 -0.3472 -0.0296 -0.0337
13462TIP3    H261878   5.061   6.202   5.469 -1.2054  1.7514  1.0394
13463TIP3   OH261879   1.901   6.418  15.821 -0.2442  0.1377 -0.1047
13463TIP3    H161880   1.830   6.464  15.775  0.1566  1.6002  0.6794
13463TIP3    H261881   1.926   6.478  15.891  0.1484 -1.4249  1.1207
13464TIP3   OH261882   4.001   4.244  16.076 -0.0432 -0.1415  0.2345
13464TIP3    H161883   3.923   4.294  16.099  0.1548  0.0412  0.5242
13464TIP3    H261884   3.995   4.165  16.130 -0.7092 -0.7668 -0.7370
13465TIP3   OH261885   4.101   1.015   1.663  0.1693 -0.2369  0.1458
13465TIP3    H161886   4.114   1.110   1.672 -3.2177  0.4340 -0.6642
13465TIP3    H261887   4.058   0.990   1.745 -1.7397 -0.3953 -0.8522
13466TIP3   OH261888   6.175   4.773   1.186 -0.3697  0.6089  0.5509
13466TIP3    H161889   6.109   4.742   1.248 -0.7203 -1.5262 -0.7778
13466TIP3    H261890   6.235   4.698   1.176 -0.4233  0.8020 -1.7782
13467TIP3   OH261891   4.008   5.641  14.813 -0.6194 -0.3594 -0.2768
13467TIP3    H161892   3.949   5.588  14.867 -1.6970 -0.2905 -1.3316
13467TIP3    H261893   4.034   5.584  14.741  0.6398 -0.3862  0.1712
13468TIP3   OH261894   0.407   0.573  11.705 -0.1242 -0.7089  0.0459
13468TIP3    H161895   0.385   0.666  11.706 -2.0439 -1.1278  1.1984
13468TIP3    H261896   0.409   0.549  11.613  0.1544  0.4120 -0.2462
13469TIP3   OH261897   0.201   6.705  16.602 -0.3686  0.5601  0.0335
13469TIP3    H161898   0.215   6.793  16.637 -2.8034  1.1911 -0.3519
13469TIP3    H261899   0.241   6.707  16.515  2.7829  0.0359  1.3414
13470TIP3   OH261900   2.023   6.297   0.301  0.5041  0.5543 -0.1657
13470TIP3    H161901   1.945   6.341   0.268  1.4651  1.0579 -1.9267
13470TIP3    H261902   1.990   6.216   0.340 -0.9774  1.2241  0.0322
13471TIP3   OH261903   1.779   2.059  12.259 -0.3775  0.7373 -0.5197
13471TIP3    H161904   1.792   2.109  12.340 -3.1615 -0.5051  0.8397
13471TIP3    H261905   1.690   2.079  12.232 -0.4814 -1.0614 -1.6936
13472TIP3   OH261906   3.038   5.842   3.771 -0.5366 -0.2926 -0.6961
13472TIP3    H161907   2.976   5.880   3.833  0.6039  0.8177 -0.2155
13472TIP3    H261908   3.019   5.885   3.688 -0.6602 -0.2409 -0.6411
13473TIP3   OH261909   6.612   2.140  11.795 -0.4846 -0.1567 -0.5070
13473TIP3    H161910   6.561   2.221  11.802  0.0045  0.0144  3.2192
13473TIP3    H261911   6.696   2.167  11.760  0.3891  1.4630  2.5101
13474TIP3   OH261912   5.299   1.276  16.129 -0.2257 -0.5392 -0.3673
13474TIP3    H161913   5.205   1.287  16.121 -0.4059 -1.9416 -0.4059
13474TIP3    H261914   5.313   1.243  16.218  0.5112  2.1346  0.6061
13475TIP3   OH261915   0.447   0.613   2.695 -0.5234  0.1990 -0.5780
13475TIP3    H161916   0.440   0.617   2.790 -2.1139 -1.8470 -0.5387
13475TIP3    H261917   0.488   0.528   2.678 -0.7595  0.2954 -1.7338
13476TIP3   OH261918   0.024   5.367  16.484  0.3675 -0.0634 -0.3002
13476TIP3    H161919   0.105   5.377  16.535  0.9459 -1.3273 -0.9262
13476TIP3    H261920  -0.042   5.344  16.550  0.3867  1.4037  0.2733
13477TIP3   OH261921   4.941   2.671  13.779 -0.9457  0.1168  0.1245
13477TIP3    H161922   4.847   2.669  13.760 -1.0550  0.3191  0.6310
13477TIP3    H261923   4.957   2.758  13.815 -0.5471  0.1118 -0.0343
13478TIP3   OH261924   5.107   0.069   4.568 -0.6402 -0.1047 -0.7460
13478TIP3    H161925   5.025   0.022   4.583 -0.6093 -0.0177 -0.3004
13478TIP3    H261926   5.174   0.016   4.611 -0.3260 -0.6476 -1.8727
13479TIP3   OH261927   2.424   2.379   5.658 -0.0834 -0.2160  0.3930
13479TIP3    H161928   2.480   2.426   5.718  0.8187 -0.7923  0.0207
13479TIP3    H261929   2.335   2.408   5.680  0.2751 -0.0072  1.6156
13480TIP3   OH261930   2.587   0.234  14.176 -0.5248  0.1114 -0.2393
13480TIP3    H161931   2.613   0.155  14.224 -0.2994  0.2929 -0.0556
13480TIP3    H261932   2.497   0.250  14.205 -0.8999 -0.5973 -0.9805
13481TIP3   OH261933   4.068   2.735   4.685  0.1623 -0.3552  0.1846
13481TIP3    H161934   3.987   2.777   4.716  0.8541  0.5280  0.8555
13481TIP3    H261935   4.067   2.648   4.724 -0.6710 -0.5210 -0.1726
13482TIP3   OH261936   0.497   3.841   0.324  0.0354  0.1688 -0.3606
13482TIP3    H161937   0.518   3.801   0.240  1.3706 -0.8150  0.4037
13482TIP3    H261938   0.562   3.910   0.334 -0.0391  0.1977 -0.0736
13483TIP3   OH261939   0.332   3.303  11.602  0.1106  0.5071  0.4615
13483TIP3    H161940   0.401   3.248  11.638 -0.2475 -0.1149  0.2306
13483TIP3    H261941   0.262   3.299  11.668  0.4870  1.5670  0.9461
13484TIP3   OH261942   6.008   0.159  15.064 -0.0240 -0.2878 -0.0437
13484TIP3    H161943   5.955   0.109  15.126  0.3603 -0.5845  0.0557
13484TIP3    H261944   5.983   0.126  14.978 -0.1240 -0.3043 -0.0077
13485TIP3   OH261945   5.383   3.354  16.924  0.5386  0.0394  0.3104
13485TIP3    H161946   5.415   3.388  17.007 -0.2127  1.7664 -0.0667
13485TIP3    H261947   5.405   3.421  16.860 -1.9023  0.3532 -0.3145
13486TIP3   OH261948   3.839   3.673   3.297 -0.4648  0.3571 -0.2045
13486TIP3    H161949   3.934   3.690   3.296 -0.5426  0.8225  0.0611
13486TIP3    H261950   3.804   3.732   3.230 -1.0422  3.1959  2.4141
13487TIP3   OH261951   5.004   0.908   3.933  0.5906 -0.4285  0.3952
13487TIP3    H161952   4.949   0.888   4.009  1.9678 -0.9666  1.2930
13487TIP3    H261953   5.056   0.983   3.960  0.7398 -0.3179 -0.1987
13488TIP3   OH261954   5.534   5.923  12.324 -0.4987 -0.8525 -0.0306
13488TIP3    H161955   5.457   5.973  12.297 -2.4306 -3.2448  0.6895
13488TIP3    H261956   5.564   5.880  12.245  0.7505  0.7802 -0.5057
13489TIP3   OH261957   6.365   1.922   4.419 -0.4754 -0.0735 -0.4569
13489TIP3    H161958   6.414   1.997   4.453 -0.4128  0.5242 -1.8269
13489TIP3    H261959   6.412   1.846   4.453  0.0209  0.4982  0.1696
13490TIP3   OH261960   5.637   1.263  15.455 -0.6111 -0.3651 -0.6131
13490TIP3    H161961   5.635   1.181  15.504 -1.6461  1.0029  1.8330
13490TIP3    H261962   5.726   1.270  15.421  0.0344 -1.5851  0.7579
13491TIP3   OH261963   6.739   2.942   2.863 -0.3109 -0.0068 -0.2515
13491TIP3    H161964   6.733   2.857   2.907  0.9895 -0.3838 -0.7598
13491TIP3    H261965   6.769   2.920   2.774 -1.4076  0.8675 -0.8698
13492TIP3   OH261966   3.496   1.609  14.526 -0.0830 -0.3096 -0.3432
13492TIP3    H161967   3.531   1.617  14.615 -1.1321 -0.7535  0.1208
13492TIP3    H261968   3.410   1.569  14.537 -0.3351 -0.1440 -1.5434
13493TIP3   OH261969   0.474   6.087  13.817 -0.2118 -0.0132 -0.5728
13493TIP3    H161970   0.474   6.060  13.725  0.3324  1.8027 -1.1479
13493TIP3    H261971   0.537   6.159  13.821  1.2000 -1.2600  1.6370
13494TIP3   OH261972   3.598   1.987  11.463 -0.0099 -0.5674  0.3554
13494TIP3    H161973   3.567   2.068  11.503  0.9049 -0.3409  0.6036
13494TIP3    H261974   3.551   1.983  11.379 -0.0169  0.2387  0.3183
13495TIP3   OH261975   2.232   4.196  13.387 -0.2559 -0.2996  0.0920
13495TIP3    H161976   2.257   4.113  13.428  0.4588  0.1417  0.5587
13495TIP3    H261977   2.236   4.260  13.457 -1.6587 -0.0070 -0.0743
13496TIP3   OH261978   2.315   5.230  14.859  0.3065 -0.1813  0.3079
13496TIP3    H161979   2.304   5.306  14.803 -0.5566  0.6387  1.5428
13496TIP3    H261980   2.400   5.243  14.901  0.8254 -0.6562 -0.5613
13497TIP3   OH261981   0.619   3.940   1.403 -0.0368  0.3371  0.1660
13497TIP3    H161982   0.606   3.863   1.459 -0.6776  0.7461  0.5962
13497TIP3    H261983   0.580   4.012   1.453  0.9867  1.0375 -0.0036
13498TIP3   OH261984   6.345   5.663  14.892  0.2518 -0.0382  0.0573
13498TIP3    H161985   6.253   5.688  14.887  0.3268  0.1289 -0.6160
13498TIP3    H261986   6.353   5.617  14.975 -0.1362  1.1639  0.7725
13499TIP3   OH261987   3.645   1.012   3.922 -0.0846  0.1390  0.3095
13499TIP3    H161988   3.552   1.033   3.912 -0.1568  1.5067  2.8343
13499TIP3    H261989   3.646   0.942   3.987  0.6602  0.2260  0.3952
13500TIP3   OH261990   0.084   3.895   1.376  0.6765  0.3377  0.5844
13500TIP3    H161991   0.066   3.977   1.423  2.0048  0.5657  0.7252
13500TIP3    H261992   0.156   3.917   1.316 -0.3741 -0.1810 -0.9493
13501TIP3   OH261993   4.810   2.178  16.877  0.1758  0.5476  0.5098
13501TIP3    H161994   4.733   2.131  16.908  0.7210  0.2890  1.5253
13501TIP3    H261995   4.883   2.121  16.901  0.8579  1.8931  1.7611
13502TIP3   OH261996   1.015   1.297   5.418  0.2816  0.3478  0.1041
13502TIP3    H161997   1.024   1.212   5.374  0.8311  0.5212 -0.1309
13502TIP3    H261998   1.100   1.313   5.457  0.8138  1.6563 -1.4548
13503TIP3   OH261999   3.785   4.899  16.012 -0.7812 -0.3898  0.0646
13503TIP3    H162000   3.718   4.833  16.027  0.6614 -1.8110  0.6346
13503TIP3    H262001   3.866   4.848  16.002  1.2103  1.2816  4.7423
13504TIP3   OH262002   4.550   3.926  16.515  0.0566  0.1493 -0.0579
13504TIP3    H162003   4.498   3.863  16.565 -0.1823 -0.3791 -0.9394
13504TIP3    H262004   4.640   3.914  16.547 -0.3301  1.1164  1.5209
13505TIP3   OH262005   0.681   5.565   1.486 -0.2146  0.5302 -0.8549
13505TIP3    H162006   0.738   5.640   1.503  1.3068 -0.7890  0.1443
13505TIP3    H262007   0.719   5.524   1.408 -0.0679 -0.1158 -0.4415
13506TIP3   OH262008   0.146   0.899   5.335 -0.0293 -0.0696 -0.3990
13506TIP3    H162009   0.161   0.918   5.427 -0.6206  0.4288 -0.3958
13506TIP3    H262010   0.117   0.983   5.298 -0.2252 -0.3696 -0.9382
13507TIP3   OH262011   5.226   1.584   0.673  0.3754 -0.3677  0.4977
13507TIP3    H162012   5.141   1.626   0.686  0.1958 -0.0492 -1.4530
13507TIP3    H262013   5.234   1.574   0.578  1.6307 -2.2668  0.7450
13508TIP3   OH262014   5.366   1.207  13.430 -0.0730  0.1058  0.6152
13508TIP3    H162015   5.459   1.230  13.432  0.3191 -1.3975  0.5619
13508TIP3    H262016   5.362   1.129  13.375 -1.4322  0.3936  0.2786
13509TIP3   OH262017   2.403   5.153  13.118  0.1854 -0.1786  0.3277
13509TIP3    H162018   2.363   5.068  13.135 -0.8424  0.3065  0.4192
13509TIP3    H262019   2.394   5.201  13.200  0.3904  0.1613  0.1540
13510TIP3   OH262020   0.137   3.874  14.957 -0.1294 -0.5190 -0.4299
13510TIP3    H162021   0.078   3.874  15.032  1.0996  0.4078  0.5758
13510TIP3    H262022   0.201   3.806  14.977  0.4714  0.0484 -0.4219
13511TIP3   OH262023   5.849   5.263  12.174  0.2666 -0.0120  0.2106
13511TIP3    H162024   5.945   5.265  12.169  0.2471  0.8288  0.0342
13511TIP3    H262025   5.821   5.340  12.126 -0.5052 -0.2461  0.2764
13512TIP3   OH262026   4.279   4.350   5.862 -0.1300 -0.0920 -0.1214
13512TIP3    H162027   4.341   4.369   5.792 -0.8875 -1.0744 -1.0940
13512TIP3    H262028   4.223   4.281   5.826 -0.3810 -0.7998  1.5464
13513TIP3   OH262029   3.589   1.213   0.033 -0.4174  0.7507 -0.1868
13513TIP3    H162030   3.673   1.238  -0.005 -0.2102 -1.3216 -1.2061
13513TIP3    H262031   3.612   1.169   0.115 -0.4068 -0.4903 -0.8261
13514TIP3   OH262032   4.428   1.602   5.793  0.0133 -0.0049  0.3187
13514TIP3    H162033   4.456   1.510   5.799 -0.5546 -0.3302 -1.3626
13514TIP3    H262034   4.503   1.647   5.756  0.3394  0.2514  1.2697
13515TIP3   OH262035   5.104   2.602  12.406  0.0450  0.2098  0.4384
13515TIP3    H162036   5.156   2.546  12.349 -2.5744 -1.9839  0.0093
13515TIP3    H262037   5.168   2.657  12.451  2.8467 -3.1420  0.9069
13516TIP3   OH262038   5.030   5.358   1.211  0.3516 -0.2490 -0.0113
13516TIP3    H162039   5.055   5.411   1.135 -1.2462 -1.1865 -1.2656
13516TIP3    H262040   5.096   5.288   1.214  1.4268  0.7557  0.5579
13517TIP3   OH262041   3.146   2.804   0.398 -0.3442 -0.1023 -0.4151
13517TIP3    H162042   3.142   2.710   0.416 -1.8954  0.1214  0.6396
13517TIP3    H262043   3.173   2.843   0.481 -0.8880  0.4616 -0.5005
13518TIP3   OH262044   0.397   0.427  16.914  0.1556 -0.0928 -0.5532
13518TIP3    H162045   0.334   0.359  16.938  0.3163 -0.3732 -0.9077
13518TIP3    H262046   0.366   0.458  16.828  0.5125 -0.2512 -0.7404
13519TIP3   OH262047   5.191   3.392  11.916  0.3527  0.3493 -0.0633
13519TIP3    H162048   5.112   3.440  11.943  0.2882 -0.2496  0.8785
13519TIP3    H262049   5.192   3.400  11.821 -0.5114  0.8864 -0.0456
13520TIP3   OH262050   5.718   4.052   6.825  0.0948  0.1399 -0.2049
13520TIP3    H162051   5.643   4.071   6.769  0.0876 -0.5251 -0.4299
13520TIP3    H262052   5.733   3.959   6.814  0.3967  0.0944  0.5363
13521TIP3   OH262053   4.497   3.297  12.404  0.3663  0.1175  0.9593
13521TIP3    H162054   4.507   3.212  12.447  1.2390 -1.3391 -1.8564
13521TIP3    H262055   4.403   3.315  12.407 -0.1362 -1.9852 -0.0489
13522TIP3   OH262056   6.175   2.517  15.722 -0.2700  0.2144 -0.1832
13522TIP3    H162057   6.118   2.591  15.744 -0.2998  0.0163  0.4479
13522TIP3    H262058   6.261   2.541  15.757 -0.2570  0.0002 -0.0615
13523TIP3   OH262059   5.649   1.049   1.404 -0.2810 -0.5233  0.0784
13523TIP3    H162060   5.713   0.980   1.420  0.4201 -0.7069 -2.8955
13523TIP3    H262061   5.581   1.007   1.351 -1.6556  0.2649  1.1678
13524TIP3   OH262062   4.166   0.190   6.705  0.2516  0.1689  0.2752
13524TIP3    H162063   4.154   0.137   6.626  1.8263 -0.8146  0.6646
13524TIP3    H262064   4.083   0.179   6.753  0.4404 -1.8524  0.2581
13525TIP3   OH262065   6.583   5.806   0.911  0.2102  0.2537  0.1273
13525TIP3    H162066   6.553   5.853   0.834  1.9099  0.5587 -0.4055
13525TIP3    H262067   6.679   5.807   0.903  0.4109 -0.0404  2.0356
13526TIP3   OH262068   0.322   4.945  13.028 -0.2134 -0.6751 -0.3859
13526TIP3    H162069   0.395   4.889  13.053  0.2583 -0.0514 -0.3118
13526TIP3    H262070   0.312   4.930  12.934  2.3471  1.7552 -1.2164
13527TIP3   OH262071   0.015   5.715   2.410  0.4618  0.2887  0.0065
13527TIP3    H162072  -0.079   5.729   2.401  0.1284 -1.0676  1.1776
13527TIP3    H262073   0.033   5.639   2.355  0.6671 -0.1500  0.6776
13528TIP3   OH262074   4.301   3.047   3.153 -0.2968  0.7602  0.0285
13528TIP3    H162075   4.342   3.132   3.170 -2.2306  1.6634  0.4165
13528TIP3    H262076   4.217   3.069   3.113 -1.7056 -0.8557  1.8980
13529TIP3   OH262077   0.197   2.644   0.374  0.1745  0.1880 -0.1496
13529TIP3    H162078   0.168   2.717   0.428  1.0549 -0.0241  0.6411
13529TIP3    H262079   0.197   2.678   0.284  1.1264  1.3441  0.2638
13530TIP3   OH262080   1.833   3.910  13.018  0.4004 -0.1693  0.3786
13530TIP3    H162081   1.769   3.914  12.946  0.0470 -1.8267  0.5732
13530TIP3    H262082   1.917   3.898  12.974  0.3479  0.0607  0.2086
13531TIP3   OH262083   1.695   5.774  15.162  0.3647  0.0080  0.2851
13531TIP3    H162084   1.650   5.751  15.081 -0.8017  0.0816  0.8950
13531TIP3    H262085   1.626   5.807  15.219  1.1671 -0.0550  1.3133
13532TIP3   OH262086   4.351   2.084   3.890  0.0737  0.3277  0.1215
13532TIP3    H162087   4.289   2.013   3.875  0.6464  0.1098 -1.4312
13532TIP3    H262088   4.340   2.107   3.983 -0.5997 -1.3260  0.4915
13533TIP3   OH262089   1.858   6.428   2.949  0.1011 -0.2157  0.6095
13533TIP3    H162090   1.809   6.385   3.018  1.1147 -0.5492  1.1462
13533TIP3    H262091   1.914   6.491   2.995  1.2387 -0.8775  0.1620
13534TIP3   OH262092   4.394   2.555   4.103 -0.7980  0.2494  0.5141
13534TIP3    H162093   4.299   2.542   4.099 -0.5978 -1.0262 -0.2706
13534TIP3    H262094   4.430   2.493   4.040  0.4821  1.7157 -0.2520
13535TIP3   OH262095   3.830   2.433   2.291  0.2444  0.0155  0.4356
13535TIP3    H162096   3.776   2.457   2.367 -1.0986 -0.3717 -0.3582
13535TIP3    H262097   3.820   2.507   2.230 -0.9389 -0.8615 -0.4862
13536TIP3   OH262098   2.533   1.434  10.882 -0.5095 -0.0900  0.0383
13536TIP3    H162099   2.462   1.499  10.889 -0.6414 -0.2933  0.6789
13536TIP3    H262100   2.547   1.424  10.788 -1.5833 -0.3083 -0.1131
13537TIP3   OH262101   1.669   6.612   0.484 -0.1019 -1.0176 -0.3003
13537TIP3    H162102   1.584   6.656   0.472  1.2586  2.7757  2.2045
13537TIP3    H262103   1.720   6.641   0.408  0.2554  0.5101  0.4764
13538TIP3   OH262104   5.077   5.415   3.483  0.4335 -0.4244  0.3537
13538TIP3    H162105   5.160   5.445   3.447  0.6031  0.9285  1.7854
13538TIP3    H262106   5.010   5.462   3.433  0.5552 -0.6184  0.0011
13539TIP3   OH262107   1.892   5.605   0.059  0.1180 -0.1756 -0.1343
13539TIP3    H162108   1.976   5.638   0.091 -0.8725  0.1821  2.2952
13539TIP3    H262109   1.833   5.613   0.133 -1.5661 -2.3807 -1.1092
13540TIP3   OH262110   4.644   1.350  11.872  0.0817  0.1715  0.0025
13540TIP3    H162111   4.657   1.279  11.935 -2.1204 -0.1655  0.1413
13540TIP3    H262112   4.559   1.387  11.893  0.5659  1.9766 -0.9617
13541TIP3   OH262113   5.106   6.102   3.348  0.2839  0.2718 -0.4302
13541TIP3    H162114   5.041   6.172   3.341  0.9308  0.7057 -3.8079
13541TIP3    H262115   5.057   6.027   3.381 -1.6123  0.9615 -1.5336
13542TIP3   OH262116   1.472   0.730   1.433 -0.2625  0.2587 -0.8776
13542TIP3    H162117   1.389   0.693   1.463  0.3273 -0.1970  0.2281
13542TIP3    H262118   1.531   0.655   1.428  0.1092  0.5915 -1.6048
13543TIP3   OH262119   3.513   0.393  15.645 -0.1326  0.1960 -0.1786
13543TIP3    H162120   3.596   0.437  15.663 -0.6334  1.4217 -0.7916
13543TIP3    H262121   3.489   0.352  15.729 -0.0185  1.7212  0.6351
13544TIP3   OH262122   5.482   1.395   6.937 -0.7131  0.1044  0.0578
13544TIP3    H162123   5.520   1.446   6.866 -1.3733 -0.6680 -0.8683
13544TIP3    H262124   5.533   1.420   7.014  0.7059  0.1736 -0.8686
13545TIP3   OH262125   2.208   2.066   2.125 -0.5545  0.5635 -0.1144
13545TIP3    H162126   2.248   1.980   2.111 -0.9429 -0.5198  4.1601
13545TIP3    H262127   2.119   2.057   2.089 -0.9921 -1.3042  1.2988
13546TIP3   OH262128   5.094   4.986  13.968 -0.1720 -0.1979  0.1695
13546TIP3    H162129   5.154   4.912  13.974 -0.1151 -0.0608  1.7340
13546TIP3    H262130   5.143   5.051  13.917  0.8125 -0.3017  0.9340
13547TIP3   OH262131   1.962   5.891   0.889  0.0109 -1.0437 -0.1999
13547TIP3    H162132   2.032   5.879   0.824  0.8411 -0.9530  0.6606
13547TIP3    H262133   1.947   5.985   0.891  1.4174 -0.8141  1.1805
13548TIP3   OH262134   1.408   2.708  13.176  0.6874 -0.0771 -0.1167
13548TIP3    H162135   1.373   2.652  13.107 -0.2250 -1.0678  1.1131
13548TIP3    H262136   1.339   2.773  13.191  1.1214  0.4812 -0.5158
13549TIP3   OH262137   3.296   0.709  15.548 -0.5270 -0.2606  0.0937
13549TIP3    H162138   3.278   0.798  15.517 -1.0318  1.2367  4.1042
13549TIP3    H262139   3.387   0.713  15.579 -0.0436 -1.6763 -1.0112
13550TIP3   OH262140   3.732   3.253  12.486 -0.2792 -0.2922 -0.0233
13550TIP3    H162141   3.716   3.190  12.417 -0.9315 -0.5635  0.3763
13550TIP3    H262142   3.712   3.207  12.567 -0.2797  0.2687  0.3035
13551TIP3   OH262143   4.382   5.653  14.665 -0.2463  0.5884  0.0715
13551TIP3    H162144   4.305   5.676  14.614 -1.7184 -0.6847  1.5936
13551TIP3    H262145   4.368   5.695  14.750  0.5032 -0.0448  0.5234
13552TIP3   OH262146   0.135   5.608   3.885 -0.6981  0.2865  0.0201
13552TIP3    H162147   0.211   5.618   3.943 -0.5651  1.2135 -0.2879
13552TIP3    H262148   0.169   5.559   3.810 -0.9637 -1.2436  0.8696
13553TIP3   OH262149   2.722   3.252   2.309  0.4813  0.3650 -0.1953
13553TIP3    H162150   2.717   3.263   2.214 -2.3209  0.2060 -0.1645
13553TIP3    H262151   2.808   3.286   2.332  0.6328  1.9365 -2.6098
13554TIP3   OH262152   3.517   1.567   0.223 -0.3881  0.0568 -0.4389
13554TIP3    H162153   3.422   1.559   0.218 -0.3230 -0.9309 -0.2904
13554TIP3    H262154   3.533   1.627   0.296 -0.9042  0.6185 -0.7828
13555TIP3   OH262155   6.541   4.499  16.488 -0.4321  0.1585 -0.0406
13555TIP3    H162156   6.601   4.426  16.499 -0.7434 -0.1351 -0.2426
13555TIP3    H262157   6.475   4.486  16.556  0.1899  0.9507  0.7266
13556TIP3   OH262158   1.180   6.056   2.828 -0.2020  0.4970 -0.3326
13556TIP3    H162159   1.170   6.148   2.853  0.6059  0.4522  0.1931
13556TIP3    H262160   1.162   6.055   2.734 -0.7656  1.0935 -0.2448
13557TIP3   OH262161   4.366   1.540   5.468  0.1709 -0.1842  0.0723
13557TIP3    H162162   4.461   1.544   5.469  0.2245 -0.6919 -1.2099
13557TIP3    H262163   4.338   1.631   5.470  0.6544 -0.0454  1.0783
13558TIP3   OH262164   3.234   1.025  13.102 -0.5008 -0.2710 -0.3656
13558TIP3    H162165   3.175   1.100  13.093  1.5471  1.4933  0.2196
13558TIP3    H262166   3.187   0.964  13.159 -1.6051  1.2276  0.3756
13559TIP3   OH262167   6.170   6.767  14.705  0.8482  0.4889  0.5356
13559TIP3    H162168   6.201   6.725  14.786 -1.2268 -0.7850  0.7410
13559TIP3    H262169   6.237   6.746  14.640  0.1715 -2.9190  0.7481
13560TIP3   OH262170   1.538   4.806   6.856  0.0837  0.1261  0.1427
13560TIP3    H162171   1.527   4.736   6.920  1.1855 -0.5481 -0.3710
13560TIP3    H262172   1.506   4.769   6.774  2.4455 -0.5387 -0.5587
13561TIP3   OH262173   3.833   4.849   4.936  0.5669  0.5393  0.5406
13561TIP3    H162174   3.755   4.902   4.952  0.5363  0.9137 -0.7476
13561TIP3    H262175   3.903   4.912   4.921  0.9488  0.2071  0.8950
13562TIP3   OH262176   3.440   3.121   6.176 -0.4367 -0.2159  0.0806
13562TIP3    H162177   3.421   3.212   6.199 -2.2348 -0.6260  0.3735
13562TIP3    H262178   3.354   3.079   6.172  0.3220 -1.7801 -0.6029
13563TIP3   OH262179   3.593   6.314  17.163 -0.2210  0.0026 -0.4970
13563TIP3    H162180   3.531   6.254  17.205 -0.8230 -0.2558 -1.7058
13563TIP3    H262181   3.538   6.381  17.122  0.3607  0.4322 -0.5904
13564TIP3   OH262182   3.117   4.518   3.059  0.0842  0.1433  0.7149
13564TIP3    H162183   3.155   4.559   3.137  2.5387 -1.1228  0.3059
13564TIP3    H262184   3.176   4.542   2.988 -0.6063 -0.8806 -0.2460
13565TIP3   OH262185   3.398   4.282   4.957  0.1534 -0.6004 -0.0804
13565TIP3    H162186   3.456   4.318   4.891  0.8733 -0.3561  0.6644
13565TIP3    H262187   3.321   4.253   4.908  1.1036 -1.3953 -1.1499
13566TIP3   OH262188   5.080   4.751  13.374 -0.1344 -0.3315  0.1960
13566TIP3    H162189   5.091   4.798  13.292 -3.1217 -0.1350 -0.1764
13566TIP3    H262190   5.134   4.799  13.437 -0.7464  1.7831 -0.8237
13567TIP3   OH262191   6.623   4.774   2.551 -0.3061 -0.4947  0.2713
13567TIP3    H162192   6.628   4.785   2.456  0.6255 -1.2856  0.2045
13567TIP3    H262193   6.696   4.715   2.571  0.5769  1.0066  1.6978
13568TIP3   OH262194   2.438   2.880   5.725  0.1255 -0.0414 -0.2263
13568TIP3    H162195   2.344   2.868   5.708  0.4419 -0.6797 -1.6121
13568TIP3    H262196   2.474   2.792   5.723  0.9683  0.3094 -1.0028
13569TIP3   OH262197   0.503   1.698   0.981 -0.3669  0.4850 -0.3992
13569TIP3    H162198   0.475   1.639   0.911  1.1388  0.6414 -1.1747
13569TIP3    H262199   0.575   1.652   1.024 -0.0133  1.2122 -0.1979
13570TIP3   OH262200   0.536   0.635   4.233 -0.3960 -0.1051 -0.1227
13570TIP3    H162201   0.519   0.580   4.157 -0.6500 -0.9900  0.5439
13570TIP3    H262202   0.618   0.679   4.214  0.7619 -2.0622  0.0199
13571TIP3   OH262203   1.415   4.376  11.601  0.6262 -0.2947 -0.3464
13571TIP3    H162204   1.411   4.431  11.679 -0.6621  0.4879 -0.9204
13571TIP3    H262205   1.487   4.412  11.549  3.5606 -2.6849  1.7462
13572TIP3   OH262206   5.451   1.738  12.582 -0.2560  0.8986 -0.3808
13572TIP3    H162207   5.476   1.807  12.520  1.5239  1.1817  0.5926
13572TIP3    H262208   5.514   1.746  12.653  1.1349 -2.8066 -0.9909
13573TIP3   OH262209   3.279   1.378   3.171  0.5072  0.2937 -0.1584
13573TIP3    H162210   3.226   1.455   3.192 -0.4624 -0.6062  0.8465
13573TIP3    H262211   3.349   1.378   3.237  1.8521  1.5142 -1.5205
13574TIP3   OH262212   4.552   2.345   5.699 -0.1751 -0.3609  0.1719
13574TIP3    H162213   4.555   2.386   5.785  1.1362  0.3682 -0.2041
13574TIP3    H262214   4.502   2.407   5.645 -1.2234 -0.9404  0.4507
13575TIP3   OH262215   6.096   3.960   1.258 -0.5842 -0.2909  0.2547
13575TIP3    H162216   6.111   4.024   1.327 -3.1474  2.2125 -1.2640
13575TIP3    H262217   6.003   3.939   1.265  0.0461 -3.6271  0.3602
13576TIP3   OH262218   2.912   1.451  16.010  0.4906  0.5086  0.2464
13576TIP3    H162219   2.837   1.403  15.976  0.7474  0.7950 -0.7592
13576TIP3    H262220   2.983   1.388  16.011  0.1681  0.1372  1.5444
13577TIP3   OH262221   2.094   3.753   2.937  0.2648  1.3339 -0.4657
13577TIP3    H162222   2.109   3.780   2.847 -1.8318  1.1122 -0.9238
13577TIP3    H262223   2.007   3.714   2.937  0.9358 -0.3492  1.3020
13578TIP3   OH262224   5.230   0.305  14.516  0.4131  0.2224  0.0870
13578TIP3    H162225   5.204   0.388  14.557  0.3595  0.2363  0.0247
13578TIP3    H262226   5.152   0.276  14.469 -0.1723 -0.8004  1.6169
13579TIP3   OH262227   1.423   3.029  14.890  0.2146  0.0084  0.0355
13579TIP3    H162228   1.409   3.113  14.932  0.5073  0.7686 -1.3161
13579TIP3    H262229   1.370   2.967  14.940 -2.2100  1.4873 -0.5752
13580TIP3   OH262230   4.561   1.873   0.354 -0.3518 -0.5984 -0.3191
13580TIP3    H162231   4.588   1.953   0.308 -0.0416 -0.1522  0.6085
13580TIP3    H262232   4.642   1.838   0.391 -0.7629 -0.1945  1.0309
13581TIP3   OH262233   3.675   4.422  13.519 -0.2116 -0.0533  0.2590
13581TIP3    H162234   3.612   4.490  13.542  0.1109  0.7607 -1.1165
13581TIP3    H262235   3.621   4.344  13.503 -0.7293  0.2440  0.5250
13582TIP3   OH262236   0.614   1.285  13.289 -0.4429 -0.2988 -0.0122
13582TIP3    H162237   0.565   1.243  13.219  0.3779  1.3118 -1.6534
13582TIP3    H262238   0.690   1.229  13.303 -0.1740 -0.2150 -1.0507
13583TIP3   OH262239   0.429   3.212  14.960 -0.1290  0.1033 -0.7058
13583TIP3    H162240   0.399   3.281  14.902 -2.9801  0.2840  0.7959
13583TIP3    H262241   0.490   3.255  15.019 -0.7907  1.0324 -0.6820
13584TIP3   OH262242   4.865   3.117   2.162 -0.0023  0.1666  0.0027
13584TIP3    H162243   4.946   3.069   2.178 -0.4688 -0.3282  1.0466
13584TIP3    H262244   4.875   3.198   2.213  0.4775  0.8547 -1.1554
13585TIP3   OH262245   1.759   5.038   3.145 -0.3518  0.1407 -0.3234
13585TIP3    H162246   1.724   5.064   3.230 -1.1786 -1.1965 -0.2215
13585TIP3    H262247   1.758   4.942   3.147  1.1067  0.0730 -1.2453
13586TIP3   OH262248   2.464   5.661  12.486  0.7460 -0.6700 -0.3349
13586TIP3    H162249   2.559   5.656  12.482  0.9292  0.7474  1.0075
13586TIP3    H262250   2.446   5.754  12.502 -0.8955 -0.8076 -1.2290
13587TIP3   OH262251   1.303   6.401  17.327  0.2911  0.1039 -0.0760
13587TIP3    H162252   1.243   6.462  17.285 -0.5185 -0.2572  0.5445
13587TIP3    H262253   1.390   6.435  17.306 -0.1399  1.7590  0.6520
13588TIP3   OH262254   3.882   3.699  14.219  0.0300 -0.4019  0.0259
13588TIP3    H162255   3.801   3.648  14.225 -0.0236 -0.5214 -1.3865
13588TIP3    H262256   3.873   3.766  14.286 -1.4814 -0.1000 -0.4415
13589TIP3   OH262257   4.022   2.996  17.034 -0.4552  0.0097  0.5625
13589TIP3    H162258   4.076   2.917  17.029 -0.8440 -0.2407  0.2650
13589TIP3    H262259   3.932   2.965  17.025 -0.4954  0.7251 -2.2935
13590TIP3   OH262260   0.199   6.415   2.745  0.1288  0.4919 -0.1282
13590TIP3    H162261   0.131   6.446   2.686  0.0163  1.9476  0.7103
13590TIP3    H262262   0.219   6.326   2.715 -0.6636  0.7996 -1.6662
13591TIP3   OH262263   5.622   1.488   6.007  0.1512 -0.3503  0.4059
13591TIP3    H162264   5.709   1.484   6.046  0.5669  0.4789 -0.3901
13591TIP3    H262265   5.639   1.510   5.915 -0.9552  1.2838  0.5604
13592TIP3   OH262266   1.884   6.411  11.562  0.6252  0.0543  0.3291
13592TIP3    H162267   1.836   6.357  11.625  0.4314  0.1677  0.2784
13592TIP3    H262268   1.826   6.417  11.486  0.2155  1.1489  0.7053
13593TIP3   OH262269   3.701   5.667   0.321  0.0130  0.3005 -0.4240
13593TIP3    H162270   3.730   5.753   0.353 -1.2731  0.2487  0.9923
13593TIP3    H262271   3.783   5.618   0.308  0.8495  2.0322 -2.3121
13594TIP3   OH262272   1.835   4.669   2.247 -0.8510 -0.1413  0.3124
13594TIP3    H162273   1.863   4.758   2.227 -0.4849 -0.5240 -0.9134
13594TIP3    H262274   1.762   4.681   2.309 -0.0739  0.9541  1.0568
13595TIP3   OH262275   6.248   5.001   5.688  0.3118  0.3211 -0.0116
13595TIP3    H162276   6.189   5.076   5.699  0.4552  0.2777  1.2774
13595TIP3    H262277   6.275   5.004   5.596 -1.4568  0.5108 -0.5521
13596TIP3   OH262278   5.691   6.409   3.193 -0.7564 -0.2825  0.3220
13596TIP3    H162279   5.758   6.469   3.160 -0.6421 -0.6176 -0.0626
13596TIP3    H262280   5.614   6.427   3.138  0.1617 -2.5796 -1.8993
13597TIP3   OH262281   0.192   1.621   1.324 -0.3728  0.1065 -0.6607
13597TIP3    H162282   0.162   1.558   1.389  0.2866 -0.8639 -1.2763
13597TIP3    H262283   0.115   1.675   1.305 -0.7974 -0.1510  0.2721
13598TIP3   OH262284   6.543   0.044  13.170  0.1480 -0.2316  0.2894
13598TIP3    H162285   6.522   0.105  13.241  0.8633  1.1768 -0.6692
13598TIP3    H262286   6.639   0.037  13.173  0.1540 -0.4471 -0.3152
13599TIP3   OH262287   2.341   6.182   4.508  0.3690 -0.1328  0.5415
13599TIP3    H162288   2.370   6.269   4.535 -1.2170 -0.1938  2.7331
13599TIP3    H262289   2.274   6.199   4.441 -0.2681  0.3798  1.2888
13600TIP3   OH262290   6.515   4.084   3.234 -0.0967 -0.4106 -0.1383
13600TIP3    H162291   6.443   4.133   3.275 -1.0147 -0.8100 -1.2039
13600TIP3    H262292   6.548   4.028   3.304 -0.8779 -0.2577  0.3726
13601TIP3   OH262293   0.495   0.284  15.527 -0.1576  0.1920  0.1280
13601TIP3    H162294   0.552   0.277  15.604 -1.8343  0.2149  1.4264
13601TIP3    H262295   0.546   0.246  15.456  1.5854  0.4842  1.1571
13602TIP3   OH262296   5.434   5.664   0.342 -0.5957 -0.2670  0.3490
13602TIP3    H162297   5.405   5.690   0.254 -0.0509 -0.4948  0.0990
13602TIP3    H262298   5.461   5.573   0.333 -0.8677 -0.3967  0.8340
13603TIP3   OH262299   0.395   1.124  11.198 -0.1138 -0.3465 -0.3468
13603TIP3    H162300   0.490   1.115  11.199 -0.1969 -1.2709 -0.3671
13603TIP3    H262301   0.363   1.051  11.250 -0.8825 -1.0356 -1.7321
13604TIP3   OH262302   5.943   0.279  16.639  0.1791 -0.0231 -0.1902
13604TIP3    H162303   6.002   0.226  16.692  1.5200  0.8688 -0.7191
13604TIP3    H262304   5.964   0.370  16.662 -0.1641  0.3414 -1.2219
13605TIP3   OH262305   5.015   2.719  14.082  0.0518 -0.5402  0.5845
13605TIP3    H162306   5.079   2.779  14.044  0.5898 -1.4553  0.0031
13605TIP3    H262307   5.053   2.694  14.166  0.2397 -0.7307  0.4436
13606TIP3   OH262308   1.359   3.059   0.630  0.0033 -0.6046  0.5253
13606TIP3    H162309   1.321   2.974   0.653 -0.9095 -0.1355  0.7766
13606TIP3    H262310   1.360   3.108   0.712  1.3595 -0.6703  0.5715
13607TIP3   OH262311   3.502   4.044   3.373  0.0675 -0.1538  0.0788
13607TIP3    H162312   3.444   4.012   3.304 -1.3451  0.4125  0.9604
13607TIP3    H262313   3.548   4.117   3.333 -1.8046  1.1153  0.1029
13608TIP3   OH262314   0.933   3.631  13.802  0.4130 -0.0677  0.1148
13608TIP3    H162315   0.910   3.638  13.895  1.7948  3.0747  0.3559
13608TIP3    H262316   0.868   3.571  13.766 -3.2254  2.1960  2.2099
13609TIP3   OH262317   2.308   0.834  17.056 -0.0908 -0.0674  0.2194
13609TIP3    H162318   2.345   0.884  17.129  1.0873  0.0921 -0.4496
13609TIP3    H262319   2.312   0.743  17.084 -1.3297  0.1277  1.0581
13610TIP3   OH262320   6.210   5.372   4.971  0.6080 -0.1624  0.9950
13610TIP3    H162321   6.127   5.361   4.924 -0.0520 -0.4675  2.1850
13610TIP3    H262322   6.255   5.442   4.924  0.0278 -0.5236 -0.1453
13611TIP3   OH262323   6.646   5.015  16.353  0.5028  0.1746  0.1613
13611TIP3    H162324   6.634   5.109  16.339 -0.3169  0.1684  0.8149
13611TIP3    H262325   6.558   4.979  16.353  0.8698 -1.0062 -2.7135
13612TIP3   OH262326   0.959   1.288   4.241 -0.5318  0.0442 -0.3467
13612TIP3    H162327   0.960   1.381   4.266  0.6432 -0.3300  1.1533
13612TIP3    H262328   0.881   1.279   4.187  0.2937  2.2766 -2.0668
13613TIP3   OH262329   1.220   3.746   0.076  0.1999  0.0442  0.0589
13613TIP3    H162330   1.290   3.795   0.033  0.5237  0.6748  1.2529
13613TIP3    H262331   1.196   3.800   0.152 -0.6927 -0.7784  0.3849
13614TIP3   OH262332   2.852   0.019   1.446  1.0750  0.7434 -0.2608
13614TIP3    H162333   2.809  -0.061   1.417  1.5285  0.3248  0.1895
13614TIP3    H262334   2.813   0.037   1.532 -0.1551  1.8888 -1.0414
13615TIP3   OH262335   2.821   2.412  15.906 -0.3148  0.1253 -0.2652
13615TIP3    H162336   2.843   2.398  15.998  0.4354 -0.6963 -0.5616
13615TIP3    H262337   2.775   2.496  15.905  0.3241  0.4992  0.7587
13616TIP3   OH262338   4.165   6.268   0.147  0.1280  0.6498  0.1699
13616TIP3    H162339   4.186   6.362   0.146  1.7335  0.3510  1.4882
13616TIP3    H262340   4.216   6.231   0.075  1.7412  0.4050  1.3922
13617TIP3   OH262341   6.289   2.693   3.060 -0.2435  0.3312  0.4189
13617TIP3    H162342   6.203   2.694   3.019  0.0251  0.2272 -0.1650
13617TIP3    H262343   6.350   2.687   2.986  0.1739 -2.7278  0.9158
13618TIP3   OH262344   5.666   6.407  16.067 -0.0705  0.3383  0.1769
13618TIP3    H162345   5.680   6.481  16.008 -0.0370 -0.0117 -0.2623
13618TIP3    H262346   5.577   6.378  16.047  0.3587 -0.5221 -0.5555
13619TIP3   OH262347   0.174   1.812   5.570 -0.0031  0.0058  0.4304
13619TIP3    H162348   0.153   1.904   5.583  0.2128  0.2096 -0.5963
13619TIP3    H262349   0.100   1.765   5.610 -1.3799  0.6712 -1.2153
13620TIP3   OH262350   3.204   2.521   3.054 -0.0612 -0.7005 -0.5023
13620TIP3    H162351   3.260   2.470   3.113  1.2065 -0.8309 -1.7701
13620TIP3    H262352   3.261   2.592   3.024 -1.1567  0.2323 -0.4212
13621TIP3   OH262353   6.734   0.423  13.686 -0.6025  0.3201  0.1808
13621TIP3    H162354   6.828   0.442  13.697 -0.8987  2.0170 -0.0208
13621TIP3    H262355   6.725   0.332  13.715  1.2953 -0.2543 -0.8593
13622TIP3   OH262356   5.128   3.605   4.838 -0.4454 -0.6002 -0.1773
13622TIP3    H162357   5.154   3.690   4.874  0.8137 -0.9880 -0.1306
13622TIP3    H262358   5.117   3.620   4.745 -0.6680 -0.2900 -0.1030
13623TIP3   OH262359   4.832   4.183   2.594  0.4132  0.5585 -0.8474
13623TIP3    H162360   4.876   4.262   2.624 -1.6712  1.1440  0.9635
13623TIP3    H262361   4.902   4.122   2.573  2.1318  1.3043  2.1582
13624TIP3   OH262362   3.344   3.914  15.387  0.4386 -0.9071  0.1234
13624TIP3    H162363   3.336   3.964  15.468  1.8348 -0.6739  0.1496
13624TIP3    H262364   3.256   3.913  15.350 -0.1678 -0.7814  1.4994
13625TIP3   OH262365   4.278   3.176   5.897 -0.1173 -0.1482 -0.3473
13625TIP3    H162366   4.287   3.271   5.883 -0.2123  0.0223  0.6792
13625TIP3    H262367   4.296   3.138   5.811  0.6010  0.7606 -0.6237
13626TIP3   OH262368   3.100   6.511  16.645 -0.0101 -0.1185 -0.3210
13626TIP3    H162369   3.189   6.495  16.677  0.0489 -1.6436 -1.1329
13626TIP3    H262370   3.053   6.545  16.721  1.6373  2.3711 -0.2766
13627TIP3   OH262371   3.177   1.579  10.978  0.6407  0.3095 -0.4450
13627TIP3    H162372   3.200   1.487  10.971  1.3203  0.4964 -0.7285
13627TIP3    H262373   3.081   1.580  10.975  0.6527 -0.2647 -2.0996
13628TIP3   OH262374   5.233   4.241  17.105  0.4103 -0.0172 -0.6385
13628TIP3    H162375   5.157   4.227  17.161  0.1936  0.7420 -0.7255
13628TIP3    H262376   5.238   4.336  17.096  1.8785  0.0092  0.0868
13629TIP3   OH262377   4.104   3.233  15.847 -0.6380  0.6337  0.2040
13629TIP3    H162378   4.162   3.308  15.832  0.4125 -0.1523  0.2117
13629TIP3    H262379   4.155   3.173  15.901 -0.4018 -1.2697 -1.9478
13630TIP3   OH262380   3.171   2.818  14.852  0.2157 -0.0193 -0.6840
13630TIP3    H162381   3.264   2.803  14.869  0.2267 -0.0732 -0.7894
13630TIP3    H262382   3.131   2.826  14.939  0.8505  3.2998 -0.5629
13631TIP3   OH262383   3.972   3.001  14.176 -0.5336 -0.4643  0.1090
13631TIP3    H162384   3.906   3.018  14.243 -2.9431 -0.5237 -2.0579
13631TIP3    H262385   3.982   2.906  14.176  0.4243 -0.3758  1.1825
13632TIP3   OH262386   5.886   4.908  14.483  0.3093 -0.5235 -0.2770
13632TIP3    H162387   5.979   4.903  14.504  0.5142  1.5231 -0.5218
13632TIP3    H262388   5.842   4.919  14.568  0.4750  0.4236 -0.3077
13633TIP3   OH262389   0.769   6.280  15.437  0.2709  0.0590  0.2779
13633TIP3    H162390   0.724   6.353  15.396 -0.4259  0.0433  0.9784
13633TIP3    H262391   0.820   6.319  15.507 -1.2084 -0.2186  1.5869
13634TIP3   OH262392   6.178   0.420   1.306  0.5694  0.7159  0.2966
13634TIP3    H162393   6.161   0.405   1.399 -0.6417 -0.2245 -0.0490
13634TIP3    H262394   6.119   0.360   1.260  1.7530  0.5256 -1.0757
13635TIP3   OH262395   3.442   4.692  12.437 -0.1915  0.1088  0.1092
13635TIP3    H162396   3.392   4.697  12.518 -0.9523 -0.4893 -0.3147
13635TIP3    H262397   3.376   4.677  12.369  0.6072 -1.3001 -0.3946
13636TIP3   OH262398   4.497   6.273   1.139  0.2798  0.5661 -0.1360
13636TIP3    H162399   4.443   6.252   1.064 -0.5006 -0.6314  0.7395
13636TIP3    H262400   4.587   6.271   1.105 -0.1307  1.5026 -1.3463
13637TIP3   OH262401   5.788   6.258  10.547 -0.2886  0.7383  0.0908
13637TIP3    H162402   5.836   6.176  10.554  1.5843  1.7280 -0.5426
13637TIP3    H262403   5.773   6.285  10.638  0.7865  0.6323  0.3151
13638TIP3   OH262404   3.530   3.122   0.777 -0.1037  0.4594 -0.5391
13638TIP3    H162405   3.482   3.108   0.859  0.1329  1.1651 -0.2749
13638TIP3    H262406   3.582   3.201   0.793  0.2208  0.3927 -1.2458
13639TIP3   OH262407   5.074   2.780   5.556 -0.0118  0.3160  0.6494
13639TIP3    H162408   5.143   2.742   5.611 -0.7101 -1.5940  0.2879
13639TIP3    H262409   5.114   2.788   5.469 -0.4607 -1.6521  0.2176
13640TIP3   OH262410   5.099   2.150   4.144 -0.3768  0.6545  0.1574
13640TIP3    H162411   5.096   2.246   4.152 -0.6671  0.8059 -1.3705
13640TIP3    H262412   5.192   2.128   4.149 -0.2989  1.0353  0.3925
13641TIP3   OH262413   4.626   5.430  14.732  0.1643  0.4705 -0.0322
13641TIP3    H162414   4.720   5.433  14.716  0.0594  0.2817 -0.7008
13641TIP3    H262415   4.586   5.453  14.648 -0.3918  0.1971  0.1504
13642TIP3   OH262416   6.109   0.600   5.813  0.2219  0.3491  0.2170
13642TIP3    H162417   6.089   0.694   5.812  0.7416  0.4659  0.3616
13642TIP3    H262418   6.154   0.585   5.730  1.8863  0.6381  1.0083
13643TIP3   OH262419   4.327   5.281  13.457 -0.7058  0.4830 -0.4171
13643TIP3    H162420   4.299   5.336  13.529 -0.2031  0.0144  0.1521
13643TIP3    H262421   4.402   5.232  13.492 -1.2559 -0.6952 -0.8360
13644TIP3   OH262422   0.634   4.236  16.531  0.4099 -0.6795  0.0750
13644TIP3    H162423   0.723   4.223  16.564  0.4500 -4.1057 -1.0210
13644TIP3    H262424   0.581   4.247  16.609  1.7172  1.6110  0.7510
13645TIP3   OH262425   2.019   0.753  15.969 -0.3007  0.2549  0.0498
13645TIP3    H162426   1.952   0.685  15.962  0.3298 -0.5047  1.0406
13645TIP3    H262427   2.021   0.793  15.882 -0.2225 -1.4635 -0.7965
13646TIP3   OH262428   1.008   5.539   0.739 -0.0120 -0.2810 -0.0630
13646TIP3    H162429   0.953   5.475   0.784 -0.2643 -1.2392 -1.6435
13646TIP3    H262430   1.005   5.616   0.795 -1.0969 -1.0776  1.0448
13647TIP3   OH262431   4.618   5.547  16.486  0.5107  0.0630  0.1119
13647TIP3    H162432   4.706   5.510  16.489  0.4876  0.0277  0.3052
13647TIP3    H262433   4.577   5.520  16.568  0.5163  0.5807  0.2861
13648TIP3   OH262434   5.872   4.505   2.287 -0.1357 -0.3306  0.6108
13648TIP3    H162435   5.848   4.431   2.231 -0.1388 -0.2885  0.5570
13648TIP3    H262436   5.967   4.513   2.278 -0.4097  1.2926 -1.3833
13649TIP3   OH262437   4.292   4.732  11.604  0.5377  0.5622 -0.1508
13649TIP3    H162438   4.275   4.680  11.525 -0.2768  2.7324 -1.5084
13649TIP3    H262439   4.383   4.712  11.626  0.3247 -1.2173 -0.7429
13650TIP3   OH262440   0.290   6.765   5.847  0.1266  0.0314  0.2830
13650TIP3    H162441   0.224   6.823   5.885 -0.4981 -1.0969  0.9773
13650TIP3    H262442   0.374   6.800   5.878 -0.1101  1.5207 -0.6634
13651TIP3   OH262443   4.638   6.245   3.200  0.8750  0.6850  0.1197
13651TIP3    H162444   4.631   6.202   3.285 -0.2100 -0.0791 -0.3421
13651TIP3    H262445   4.710   6.308   3.211  0.4684  0.9107  1.7316
13652TIP3   OH262446   0.180   1.907  16.293  0.4847 -0.2597 -0.0895
13652TIP3    H162447   0.239   1.845  16.336  1.6943 -0.2133 -1.5811
13652TIP3    H262448   0.209   1.992  16.323  0.6561 -0.2859 -0.1758
13653TIP3   OH262449   3.845   5.891   6.007 -0.2421  0.2102  0.4176
13653TIP3    H162450   3.901   5.948   6.062 -0.7046  0.1331  0.9813
13653TIP3    H262451   3.759   5.894   6.050 -0.7699  0.6140 -0.6477
13654TIP3   OH262452   2.553   1.451  13.385 -0.4460  0.1011  0.5692
13654TIP3    H162453   2.487   1.419  13.446  0.0724 -0.9557  0.6077
13654TIP3    H262454   2.503   1.487  13.312 -1.0882  1.7905  1.7845
13655TIP3   OH262455   2.832   3.750   6.307 -0.0862 -0.0932 -0.1949
13655TIP3    H162456   2.861   3.801   6.382 -0.1522 -0.1725 -0.1157
13655TIP3    H262457   2.746   3.716   6.333 -0.7640  1.0500 -0.8445
13656TIP3   OH262458   1.789   3.261   2.801 -0.1269  0.5943  0.1141
13656TIP3    H162459   1.855   3.309   2.851  1.4026 -1.5889  0.3615
13656TIP3    H262460   1.786   3.175   2.843  1.0703 -1.3000 -3.2823
13657TIP3   OH262461   0.405   5.362  15.837  0.2682 -0.2062  0.2318
13657TIP3    H162462   0.380   5.300  15.769  0.6133  0.8752 -0.9328
13657TIP3    H262463   0.334   5.426  15.839  1.1999  0.9020 -0.5860
13658TIP3   OH262464   5.589   4.224  16.043  0.0460 -0.2714  0.3240
13658TIP3    H162465   5.548   4.160  15.985  2.9768 -0.0330 -2.3195
13658TIP3    H262466   5.527   4.297  16.046 -0.4402 -0.4628 -2.3257
13659TIP3   OH262467   1.925   3.035  16.895 -0.9695 -0.3713 -0.3506
13659TIP3    H162468   1.962   2.994  16.973 -2.3751 -1.1473 -0.0614
13659TIP3    H262469   1.965   3.122  16.893  0.2312 -0.8797  0.3735
13660TIP3   OH262470   1.099   2.739   4.649  0.8020 -0.7182 -0.3865
13660TIP3    H162471   1.035   2.804   4.677  1.3159 -0.3025 -0.1501
13660TIP3    H262472   1.155   2.726   4.726  0.4062 -1.8184 -0.2661
13661TIP3   OH262473   4.779   2.589   4.689  0.7383  0.0993 -0.8138
13661TIP3    H162474   4.811   2.631   4.609  2.2604  0.1671 -0.2148
13661TIP3    H262475   4.708   2.645   4.720  1.5622  1.2684 -0.9818
13662TIP3   OH262476   3.328   2.803   2.106 -0.3166  0.2922  0.3457
13662TIP3    H162477   3.350   2.829   2.196  0.0334 -1.2302  0.7176
13662TIP3    H262478   3.412   2.782   2.066 -0.6836 -1.6448  0.5203
13663TIP3   OH262479   6.017   0.186   4.946  0.3328  0.0961  0.2190
13663TIP3    H162480   5.965   0.179   4.865  0.6642  0.0821  0.0048
13663TIP3    H262481   6.101   0.222   4.917  0.6472 -0.4152  0.4809
13664TIP3   OH262482   0.110   4.281   5.943 -0.2589  0.4403 -0.0529
13664TIP3    H162483   0.151   4.280   5.857  1.5962  1.7545  0.7347
13664TIP3    H262484   0.104   4.189   5.968 -1.6670 -0.0244 -1.9033
13665TIP3   OH262485   0.560   0.990   5.705  0.1870  0.2308 -0.2762
13665TIP3    H162486   0.643   1.020   5.744  1.4598 -0.6874 -2.1359
13665TIP3    H262487   0.545   0.904   5.746 -0.2432  0.6935  0.5696
13666TIP3   OH262488   2.829   5.023  11.815  0.3217 -0.6176  0.6881
13666TIP3    H162489   2.805   4.933  11.792 -1.0245 -0.5931  1.8579
13666TIP3    H262490   2.782   5.077  11.753  0.4644 -0.6898  0.5155
13667TIP3   OH262491   1.545   2.936  14.450 -0.5674  0.5115 -0.3667
13667TIP3    H162492   1.619   2.982  14.490  0.8591 -2.8999  1.3499
13667TIP3    H262493   1.473   2.946  14.512  0.6185 -1.8587  1.5383
13668TIP3   OH262494   0.952   0.223  10.822  0.5319 -0.0976 -0.4285
13668TIP3    H162495   1.020   0.222  10.755 -0.1329 -0.5541 -1.1184
13668TIP3    H262496   0.886   0.162  10.790 -0.3478  0.5703  0.0724
13669TIP3   OH262497   2.928   0.633   3.481 -0.0586  0.0916 -0.0045
13669TIP3    H162498   2.838   0.602   3.464 -0.2395  0.2724  0.6149
13669TIP3    H262499   2.977   0.553   3.499 -0.6997  0.1536  2.4033
13670TIP3   OH262500   0.887   6.175  12.056 -0.4631  0.0952  0.4800
13670TIP3    H162501   0.872   6.263  12.022 -1.4918 -0.5117 -0.7325
13670TIP3    H262502   0.901   6.121  11.979 -0.6515 -0.9459  1.1446
13671TIP3   OH262503   4.051   3.407  16.859 -0.2665 -0.3614  0.0125
13671TIP3    H162504   4.060   3.473  16.790 -0.1664  1.1883  1.4250
13671TIP3    H262505   4.007   3.334  16.816 -0.6346  0.7216 -1.5780
13672TIP3   OH262506   1.951   6.428   5.852 -0.7327  0.6519  0.2941
13672TIP3    H162507   1.981   6.517   5.835 -0.5384  0.7728  1.2143
13672TIP3    H262508   2.007   6.397   5.923  0.9525 -1.1377 -1.6821
13673TIP3   OH262509   0.742   3.303  11.488 -0.4524  0.3893  0.4269
13673TIP3    H162510   0.785   3.317  11.404  0.8503 -1.7008  0.6574
13673TIP3    H262511   0.699   3.386  11.508 -1.9414  0.5556 -2.8849
13674TIP3   OH262512   5.782   4.421   6.387 -0.6906 -0.2151  0.0348
13674TIP3    H162513   5.737   4.448   6.468 -2.4605  0.5161 -1.1174
13674TIP3    H262514   5.863   4.471   6.387 -1.0696  0.4308  0.9523
13675TIP3   OH262515   4.099   2.946   5.573  0.2479 -0.3486 -0.3688
13675TIP3    H162516   4.130   2.876   5.631  1.6049  0.1049 -0.5222
13675TIP3    H262517   4.063   2.899   5.497  1.8725 -0.9038 -0.8384
13676TIP3   OH262518   1.018   6.718  14.847 -0.4107 -0.1754 -0.4479
13676TIP3    H162519   0.979   6.791  14.798 -3.7469 -1.4757 -0.0107
13676TIP3    H262520   1.002   6.641  14.792  2.7437 -0.7647 -0.7482
13677TIP3   OH262521   2.679   6.644  13.801  0.1468 -0.0148  0.2654
13677TIP3    H162522   2.680   6.731  13.762  1.9648 -0.3382 -0.5350
13677TIP3    H262523   2.687   6.660  13.895 -0.6428  0.6963  0.2210
13678TIP3   OH262524   3.246   6.244   0.701 -0.0625 -0.6023  0.5921
13678TIP3    H162525   3.338   6.235   0.677 -0.1440  0.9316 -0.3721
13678TIP3    H262526   3.202   6.173   0.653  0.5063 -0.9035  0.5051
13679TIP3   OH262527   2.914   0.508  13.557 -0.2834 -0.0217  0.1731
13679TIP3    H162528   2.999   0.500  13.601 -1.0682 -1.9799  1.4750
13679TIP3    H262529   2.850   0.506  13.627 -1.4678  3.0944 -0.6457
13680TIP3   OH262530   5.441   2.774  12.293  0.4353  0.0117  0.3167
13680TIP3    H162531   5.505   2.801  12.227 -0.6701  0.7229 -0.5004
13680TIP3    H262532   5.359   2.768  12.245 -0.5684  1.3134  1.7622
13681TIP3   OH262533   1.667   5.813   3.392  0.2324  0.2841 -0.3244
13681TIP3    H162534   1.740   5.783   3.339  1.5138 -0.2767  1.6520
13681TIP3    H262535   1.631   5.734   3.432 -0.6663  0.6816 -0.3186
13682TIP3   OH262536   2.400   0.427  13.329  0.0576  0.1823 -0.1884
13682TIP3    H162537   2.408   0.488  13.402 -0.9766 -0.0875  0.1566
13682TIP3    H262538   2.339   0.469  13.269  2.1895  1.2292 -1.7946
13683TIP3   OH262539   6.295   6.495   1.190 -0.1500 -0.2113  0.1975
13683TIP3    H162540   6.294   6.589   1.203  1.3211 -0.0793 -0.5010
13683TIP3    H262541   6.265   6.459   1.273 -1.1461  0.8571  0.3347
13684TIP3   OH262542   2.186   4.341   3.879  0.4058 -0.0369  0.1339
13684TIP3    H162543   2.171   4.262   3.932 -1.6463  1.5465  2.0974
13684TIP3    H262544   2.130   4.329   3.802  0.0011 -0.4419  0.4840
13685TIP3   OH262545   6.249   1.225   3.265 -0.0166  0.0435  1.0513
13685TIP3    H162546   6.157   1.207   3.245  0.5074 -0.1231 -1.6666
13685TIP3    H262547   6.290   1.138   3.265  0.6978  0.2792 -1.5488
13686TIP3   OH262548   5.358   0.212   5.395  0.2816 -0.1693 -0.0461
13686TIP3    H162549   5.411   0.235   5.319 -0.1110 -1.2212 -0.6648
13686TIP3    H262550   5.361   0.116   5.399 -0.8581 -0.2107  0.4031
13687TIP3   OH262551   3.631   5.718  13.226  0.3073 -0.3027  0.6650
13687TIP3    H162552   3.632   5.778  13.300 -0.0355  0.5782 -0.0295
13687TIP3    H262553   3.626   5.631  13.266  3.0619 -0.0660  1.7557
13688TIP3   OH262554   1.432   5.974  13.848  0.2731 -0.2252  0.4405
13688TIP3    H162555   1.364   5.909  13.866 -0.6094  0.3151 -0.7637
13688TIP3    H262556   1.384   6.056  13.841  0.9703  0.0800 -0.9723
13689TIP3   OH262557   3.484   1.634   1.545 -0.2825 -0.0293 -0.1012
13689TIP3    H162558   3.556   1.616   1.485  0.3384  0.3212  0.5238
13689TIP3    H262559   3.406   1.638   1.489  0.1913 -0.3525 -0.7901
13690TIP3   OH262560   0.857   3.025   5.060 -0.5711 -0.3379  0.3292
13690TIP3    H162561   0.892   3.075   5.134 -0.1099 -0.7998  0.4319
13690TIP3    H262562   0.764   3.047   5.057 -0.2310  1.1476 -0.1244
13691TIP3   OH262563   1.343   3.496   3.491 -0.4271  0.3197 -0.1179
13691TIP3    H162564   1.331   3.550   3.413 -0.6514 -0.4981 -0.6640
13691TIP3    H262565   1.373   3.557   3.558  0.8236  0.8521 -1.1265
13692TIP3   OH262566   1.735   4.168  16.436  0.4774 -0.1276  0.3114
13692TIP3    H162567   1.659   4.139  16.487  1.4720 -2.2785  0.6788
13692TIP3    H262568   1.767   4.246  16.482  0.6709 -1.3504  2.3641
13693TIP3   OH262569   5.319   4.352   3.893  0.1635  0.4799  0.6071
13693TIP3    H162570   5.322   4.433   3.945  0.1650  0.4679  0.6258
13693TIP3    H262571   5.404   4.349   3.849  0.6286 -0.1206  1.5211
13694TIP3   OH262572   0.754   5.170  16.140 -0.2086  0.2847 -0.0902
13694TIP3    H162573   0.808   5.178  16.218 -0.3820  2.3788 -0.1272
13694TIP3    H262574   0.764   5.254  16.095 -2.1655  0.1043 -0.9710
13695TIP3   OH262575   5.410   3.832  12.752 -0.3996 -0.3666  0.0800
13695TIP3    H162576   5.336   3.785  12.713  0.0708 -2.1813  1.2410
13695TIP3    H262577   5.439   3.892  12.684 -2.3150 -0.3023 -0.7525
13696TIP3   OH262578   5.502   6.078   3.466 -0.2893  0.1552  0.0233
13696TIP3    H162579   5.456   6.075   3.550  1.5913 -1.2468  1.0766
13696TIP3    H262580   5.494   5.989   3.432  0.4076  0.2797 -0.4724
13697TIP3   OH262581   0.466   4.051  14.692 -0.0018 -0.1393 -0.0321
13697TIP3    H162582   0.556   4.050  14.659 -0.2251  0.8202 -0.7312
13697TIP3    H262583   0.460   4.135  14.738 -0.4833 -0.2989  0.1957
13698TIP3   OH262584   1.631   6.740  11.067  0.3024 -0.2678 -0.0241
13698TIP3    H162585   1.585   6.784  11.139  1.4543 -0.9685  1.1705
13698TIP3    H262586   1.706   6.795  11.049 -0.5863  0.5217 -1.5302
13699TIP3   OH262587   1.577   5.174   3.993 -0.2211  0.1777  0.0383
13699TIP3    H162588   1.558   5.089   4.033  2.1418 -0.3619  0.1453
13699TIP3    H262589   1.624   5.153   3.912 -0.9873  1.3720 -0.7502
13700TIP3   OH262590   5.131   1.953  13.673  0.2822  0.6889  0.1989
13700TIP3    H162591   5.051   2.005  13.683  1.4576  2.8613 -0.9595
13700TIP3    H262592   5.199   2.005  13.716  1.1080 -1.1906  1.3020
13701TIP3   OH262593   1.760   2.786   3.865 -0.0692  0.8033  0.2563
13701TIP3    H162594   1.735   2.816   3.953 -2.0188 -1.8402  0.7477
13701TIP3    H262595   1.821   2.852   3.833 -1.7518  3.5495  2.3043
13702TIP3   OH262596   3.759   1.152   1.658 -0.7497  0.5294  0.5261
13702TIP3    H162597   3.696   1.181   1.724 -0.1727  0.5004  1.0987
13702TIP3    H262598   3.779   1.062   1.682 -0.0618  0.7193  0.6967
13703TIP3   OH262599   0.234   5.221   0.497 -0.0439 -0.4233  0.2056
13703TIP3    H162600   0.254   5.305   0.455 -0.1747  0.5948  2.0672
13703TIP3    H262601   0.317   5.174   0.496 -0.0717 -0.4796 -1.2565
13704TIP3   OH262602   0.908   4.224   1.129  0.1366 -0.2263 -0.8806
13704TIP3    H162603   0.862   4.182   1.057  1.2222  0.0788 -1.7775
13704TIP3    H262604   0.902   4.318   1.111 -1.1680 -0.0145  0.4287
13705TIP3   OH262605   1.860   3.569   1.625 -0.2099 -0.4134 -0.1291
13705TIP3    H162606   1.867   3.629   1.550 -0.1711 -1.2106 -0.7747
13705TIP3    H262607   1.766   3.560   1.639 -0.2110  0.6098  0.6493
13706TIP3   OH262608   1.688   1.915   1.706 -0.5088  0.3297 -0.5785
13706TIP3    H162609   1.704   1.831   1.749  0.3369  1.0287  0.5062
13706TIP3    H262610   1.760   1.924   1.643 -0.0783  0.6591 -0.0425
13707TIP3   OH262611   6.075   4.233  14.925 -0.9657  0.1098  0.2664
13707TIP3    H162612   6.122   4.179  14.989 -1.7972 -1.3688 -0.3266
13707TIP3    H262613   6.140   4.250  14.856 -1.6835 -3.6613 -1.5915
13708TIP3   OH262614   6.485   2.275   5.552 -0.2124 -0.3078  0.3453
13708TIP3    H162615   6.437   2.193   5.569 -1.2725  0.4415  1.1734
13708TIP3    H262616   6.434   2.342   5.599  1.5739  0.5709  1.1317
13709TIP3   OH262617   1.769   3.560  14.841 -0.1501  0.0308  0.6907
13709TIP3    H162618   1.729   3.509  14.911 -0.7709 -1.8374 -0.9063
13709TIP3    H262619   1.742   3.515  14.761  0.9756  1.7394 -0.7300
13710TIP3   OH262620   5.848   1.533   4.389 -0.0960 -0.1181  1.1589
13710TIP3    H162621   5.920   1.470   4.393 -1.8940 -2.4956 -1.0828
13710TIP3    H262622   5.776   1.489   4.434 -1.9003 -0.5318 -1.9197
13711TIP3   OH262623   2.141   1.925  16.262  0.0970 -0.5250 -0.7924
13711TIP3    H162624   2.195   1.921  16.341 -0.3492 -0.1070 -0.4602
13711TIP3    H262625   2.157   1.842  16.218  0.8053 -0.5179 -0.5653
13712TIP3   OH262626   5.921   5.964  13.424 -0.4672  0.4866 -0.6570
13712TIP3    H162627   5.993   5.925  13.374 -1.0031 -0.9172 -0.4009
13712TIP3    H262628   5.849   5.970  13.362 -0.2848  1.4575 -0.7894
13713TIP3   OH262629   2.113   1.982   5.565  0.2534  0.0386  0.3043
13713TIP3    H162630   2.019   1.968   5.577 -0.0683  0.0077 -1.9007
13713TIP3    H262631   2.132   2.062   5.615 -0.7851 -0.3303  1.3302
13714TIP3   OH262632   4.326   0.037  16.951  0.3518 -0.1124  0.0436
13714TIP3    H162633   4.420   0.020  16.960  0.4411  0.8025  0.9594
13714TIP3    H262634   4.294   0.044  17.040 -0.5198  0.0025 -0.2672
13715TIP3   OH262635   5.300   4.305   3.514 -0.4177  0.5528  0.1073
13715TIP3    H162636   5.276   4.246   3.443  0.6808 -0.0552  0.2256
13715TIP3    H262637   5.217   4.330   3.554 -0.8836 -1.3209  0.3776
13716TIP3   OH262638   2.164   1.290  16.871 -0.4209 -0.0077  0.0812
13716TIP3    H162639   2.232   1.230  16.902 -1.3031 -1.2566 -0.2962
13716TIP3    H262640   2.196   1.321  16.786  1.1080  1.9180  1.2760
13717TIP3   OH262641   1.963   4.400  11.567  0.0559 -0.1314 -0.4882
13717TIP3    H162642   1.984   4.417  11.476  0.3939  0.4000 -0.3157
13717TIP3    H262643   2.036   4.346  11.599 -0.1678 -0.4946 -0.5862
13718TIP3   OH262644   3.829   6.672   1.932  0.0605 -0.2841  0.0610
13718TIP3    H162645   3.859   6.582   1.916  0.6416 -0.1867  0.5747
13718TIP3    H262646   3.900   6.726   1.897 -0.3283 -0.0203 -0.3255
13719TIP3   OH262647   2.274   6.446   2.451 -0.1479  0.2823 -0.0953
13719TIP3    H162648   2.266   6.541   2.436 -0.4711  0.6006  1.7429
13719TIP3    H262649   2.259   6.437   2.545 -1.8830 -1.7987 -0.5162
13720TIP3   OH262650   4.243   6.755   1.430  0.0606 -0.3087  0.4919
13720TIP3    H162651   4.177   6.697   1.393 -0.1728 -1.1097  2.0752
13720TIP3    H262652   4.259   6.721   1.518  2.1881  0.1950  0.3619
13721TIP3   OH262653   4.303   3.210  12.763 -0.7273  0.0675 -0.2029
13721TIP3    H162654   4.302   3.251  12.677 -1.4245  0.2253 -0.1256
13721TIP3    H262655   4.326   3.118  12.746  2.7135  0.7997 -0.2103
13722TIP3   OH262656   6.650   6.790  15.672 -0.0466 -0.1709 -1.1892
13722TIP3    H162657   6.719   6.852  15.695 -1.5433  1.5383 -1.1485
13722TIP3    H262658   6.658   6.778  15.577  0.2911  0.0263 -1.1846
13723TIP3   OH262659   1.355   5.745   1.761  0.0346 -0.5067  0.1467
13723TIP3    H162660   1.308   5.787   1.688 -0.8806 -1.3957  0.2025
13723TIP3    H262661   1.448   5.762   1.742 -0.2518  0.4861 -0.4677
13724TIP3   OH262662   3.292   0.526   3.387  0.2158 -0.4703 -0.8236
13724TIP3    H162663   3.349   0.599   3.363 -0.0866  1.3612  3.2357
13724TIP3    H262664   3.352   0.457   3.417  0.4279 -1.5496 -3.4053
13725TIP3   OH262665   0.450   3.327   0.335  0.1280  0.0817 -0.0434
13725TIP3    H162666   0.519   3.292   0.280  1.6666 -0.9234  2.3644
13725TIP3    H262667   0.452   3.422   0.320  2.5409  0.1577  0.4561
13726TIP3   OH262668   3.028   5.906  14.867  0.3607  0.3154 -0.7271
13726TIP3    H162669   3.092   5.882  14.935 -1.1889  1.6444  1.3199
13726TIP3    H262670   3.023   5.828  14.812  1.4831 -0.9604  0.8453
13727TIP3   OH262671   5.201   2.374   1.213 -0.0538 -0.2232  0.2050
13727TIP3    H162672   5.262   2.420   1.156  0.2675  0.7006  1.2500
13727TIP3    H262673   5.223   2.404   1.301  0.1223 -2.3399  0.9441
13728TIP3   OH262674   1.793   5.461   2.827  0.0426 -0.4166 -0.5402
13728TIP3    H162675   1.783   5.414   2.744 -1.4512 -0.2604 -0.4776
13728TIP3    H262676   1.832   5.545   2.802 -1.5348  0.1460 -1.2989
13729TIP3   OH262677   1.570   6.702   5.005 -0.0451 -0.3237  0.1370
13729TIP3    H162678   1.497   6.764   5.000  0.4658  0.1719 -2.3867
13729TIP3    H262679   1.536   6.622   4.964 -0.0042 -1.0415  1.4369
13730TIP3   OH262680   5.356   2.045  12.197 -0.5093 -0.7584 -0.0245
13730TIP3    H162681   5.335   2.137  12.217 -2.6201 -1.2228  0.0893
13730TIP3    H262682   5.318   2.030  12.111 -1.6036 -1.9507  0.6417
13731TIP3   OH262683   0.714   1.151  17.314  0.0401  0.7038  0.3969
13731TIP3    H162684   0.679   1.164  17.227  0.6075 -0.4769 -0.0317
13731TIP3    H262685   0.654   1.089  17.356  1.8456 -1.8654 -0.5780
13732TIP3   OH262686   2.171   0.492  11.803 -0.3908  0.2986 -0.2461
13732TIP3    H162687   2.232   0.555  11.842 -1.3381  1.6258 -0.8387
13732TIP3    H262688   2.215   0.462  11.724  0.0773  0.1987  0.0481
13733TIP3   OH262689   1.622   0.085  14.864  0.0282  0.3576  0.2145
13733TIP3    H162690   1.619   0.180  14.848  3.0656  0.5382  0.0334
13733TIP3    H262691   1.617   0.077  14.959 -0.3919  0.6787  0.2229
13734TIP3   OH262692   2.338   5.197  10.757 -0.0373  0.7832 -0.4931
13734TIP3    H162693   2.413   5.136  10.753 -1.5382 -1.5744  2.7782
13734TIP3    H262694   2.355   5.251  10.834 -0.7695  1.6407 -0.9131
13735TIP3   OH262695   2.308   6.659   4.965 -0.2047  0.2244 -0.5672
13735TIP3    H162696   2.329   6.648   4.872  0.9731 -1.5458 -0.1312
13735TIP3    H262697   2.390   6.686   5.005 -0.2860 -0.6087  0.1955
13736TIP3   OH262698   6.239   4.544  12.171 -0.5259 -0.4798 -0.2608
13736TIP3    H162699   6.166   4.493  12.135 -1.1953  0.8388 -0.8513
13736TIP3    H262700   6.233   4.532  12.266 -0.0446 -2.2815 -0.4261
13737TIP3   OH262701   5.359   6.449  15.710  0.1884  0.1646 -0.3065
13737TIP3    H162702   5.295   6.492  15.766 -0.5928 -1.0264 -0.2389
13737TIP3    H262703   5.375   6.511  15.639 -0.5741  0.7317  0.0025
13738TIP3   OH262704   0.766   1.180   5.153  0.0025  0.6567  0.2558
13738TIP3    H162705   0.741   1.258   5.202 -0.4627  0.6349  0.0600
13738TIP3    H262706   0.800   1.120   5.220 -0.9959  0.4783  0.6183
13739TIP3   OH262707   5.477   3.976  13.854  0.2164  0.4935 -0.4062
13739TIP3    H162708   5.527   4.029  13.792  0.3784  0.3435 -0.4042
13739TIP3    H262709   5.479   4.027  13.935  0.0065  0.6888 -0.5209
13740TIP3   OH262710   5.219   2.146   0.040 -0.1196 -0.1913 -0.7214
13740TIP3    H162711   5.294   2.204   0.031 -0.5360  0.2304 -1.5328
13740TIP3    H262712   5.216   2.125   0.133  0.5494  0.3950 -0.5616
13741TIP3   OH262713   0.205   4.397  12.861  0.3602  0.0542  0.8968
13741TIP3    H162714   0.172   4.391  12.951 -0.3133 -0.2447  0.6317
13741TIP3    H262715   0.131   4.430  12.810  0.5782 -0.2817  0.3553
13742TIP3   OH262716   2.809   2.129   2.386 -0.0098 -0.4213 -0.2564
13742TIP3    H162717   2.825   2.036   2.369  0.0266 -0.2842 -1.0120
13742TIP3    H262718   2.817   2.138   2.481 -2.0778 -1.5698  0.0722
13743TIP3   OH262719   5.378   0.550   3.222  0.1333  0.2446  0.2451
13743TIP3    H162720   5.358   0.641   3.200  0.4364  0.1774 -0.3226
13743TIP3    H262721   5.332   0.499   3.155  0.1517 -0.0102  0.4254
13744TIP3   OH262722   6.557   1.984  12.349  0.2805  0.4330 -0.0675
13744TIP3    H162723   6.483   1.959  12.293 -1.1308  0.4786  1.6641
13744TIP3    H262724   6.596   1.900  12.376 -0.3855  0.3067  0.5516
13745TIP3   OH262725   4.343   1.540  15.172  0.3094 -0.3151  0.3099
13745TIP3    H162726   4.426   1.493  15.163  1.0935  1.0535  0.1991
13745TIP3    H262727   4.355   1.596  15.248  0.0711  1.0629 -0.6327
13746TIP3   OH262728   1.400   4.543  15.822  0.3883 -0.3969 -0.3985
13746TIP3    H162729   1.464   4.572  15.757  0.8298  0.3231  0.3294
13746TIP3    H262730   1.453   4.498  15.888 -0.2080 -2.3839 -1.1847
13747TIP3   OH262731   2.944   4.276  15.897  0.2566  0.0148  0.3384
13747TIP3    H162732   2.852   4.251  15.910  0.4988 -0.2824  1.6008
13747TIP3    H262733   2.978   4.210  15.836 -0.8241  1.2233 -1.7213
13748TIP3   OH262734   6.290   5.685   4.339 -0.4375 -0.3716 -0.1035
13748TIP3    H162735   6.366   5.629   4.324  0.2339  0.4959 -0.0552
13748TIP3    H262736   6.263   5.664   4.429 -0.5427 -1.0142 -0.2825
13749TIP3   OH262737   1.727   0.886  12.627 -0.5631 -0.1228  0.4597
13749TIP3    H162738   1.818   0.863  12.605 -0.5026  1.0044 -0.5766
13749TIP3    H262739   1.720   0.865  12.720  0.5561 -0.8624  0.4068
13750TIP3   OH262740   5.260   3.986   5.633  0.6580  0.1960 -0.0463
13750TIP3    H162741   5.344   4.025   5.609  1.3287 -1.1932 -0.0508
13750TIP3    H262742   5.263   3.978   5.728  0.1106  1.0103  0.0570
13751TIP3   OH262743   0.696   2.107   3.982  0.5250 -0.3799  0.0195
13751TIP3    H162744   0.775   2.076   3.939  0.5229 -0.2182 -0.1037
13751TIP3    H262745   0.629   2.106   3.913 -0.4704 -3.7108  0.8350
13752TIP3   OH262746   2.656   2.421  13.421 -0.5338 -0.1540 -0.3692
13752TIP3    H162747   2.728   2.482  13.412  0.0534 -0.6719  0.6301
13752TIP3    H262748   2.681   2.364  13.495 -0.5041 -2.3342 -1.9524
13753TIP3   OH262749   1.734   3.091   4.205 -0.4542  0.0718 -0.3895
13753TIP3    H162750   1.700   3.009   4.168 -0.7812  0.2900 -0.5738
13753TIP3    H262751   1.670   3.116   4.271  1.1784 -1.4543  1.9350
13754TIP3   OH262752   3.086   6.505  12.782  0.0666 -0.0972 -0.4726
13754TIP3    H162753   3.158   6.531  12.725  1.5944 -0.4903  1.1845
13754TIP3    H262754   3.071   6.413  12.762  0.0654 -0.0314 -0.7796
13755TIP3   OH262755   5.928   3.167   2.994 -0.4815 -0.0171 -0.0369
13755TIP3    H162756   5.932   3.090   3.049 -1.8532  0.4164  0.7123
13755TIP3    H262757   5.863   3.145   2.926  0.4034 -0.1533 -0.8543
13756TIP3   OH262758   3.223   3.613   4.580  0.2809  0.1905  0.9797
13756TIP3    H162759   3.212   3.708   4.573  0.5794  0.1845  0.3686
13756TIP3    H262760   3.144   3.577   4.540  1.3132  0.1731 -1.2093
13757TIP3   OH262761   3.101   0.959   0.194  0.0637 -0.3421 -0.0832
13757TIP3    H162762   3.137   0.881   0.236 -0.8942 -0.5934  0.3001
13757TIP3    H262763   3.010   0.937   0.176  0.6100 -0.5309 -3.0506
13758TIP3   OH262764   0.834   6.227   4.253 -0.5309 -0.5777 -0.1273
13758TIP3    H162765   0.817   6.182   4.170  0.8526  1.0012 -1.3377
13758TIP3    H262766   0.894   6.169   4.300  0.4117 -0.5060 -1.2082
13759TIP3   OH262767   4.553   0.505  12.305 -0.2838 -0.0081  0.5963
13759TIP3    H162768   4.618   0.504  12.376 -1.5118 -0.1578  1.7601
13759TIP3    H262769   4.552   0.596  12.275  0.2140  0.0665  0.7943
13760TIP3   OH262770   6.112   5.943  16.264  0.4965  0.0765 -0.2004
13760TIP3    H162771   6.070   5.915  16.183 -0.2519  0.7425 -0.0556
13760TIP3    H262772   6.052   6.009  16.300 -0.2092 -1.6333  1.9143
13761TIP3   OH262773   5.194   2.609   6.843  0.1917  0.2026  0.4589
13761TIP3    H162774   5.258   2.580   6.778  0.9664  0.6906  0.9902
13761TIP3    H262775   5.214   2.701   6.857 -0.9400  0.4837  0.2900
13762TIP3   OH262776   0.430   5.676  13.327 -0.2896  0.3896 -0.6240
13762TIP3    H162777   0.450   5.674  13.234 -0.5643  0.9700 -0.7001
13762TIP3    H262778   0.512   5.650  13.370 -0.8007 -2.2783 -1.0717
13763TIP3   OH262779   3.028   5.288  12.926 -0.1988 -0.5497 -0.1818
13763TIP3    H162780   3.072   5.263  12.844  0.4564  0.0295 -0.0131
13763TIP3    H262781   2.951   5.231  12.930  1.0318 -2.2749 -0.0166
13764TIP3   OH262782   4.968   3.825  12.225 -0.5520 -0.8140  0.1654
13764TIP3    H162783   5.010   3.909  12.208 -1.7583 -0.6171 -2.3080
13764TIP3    H262784   4.886   3.848  12.270 -1.1828 -0.5580 -1.0673
13765TIP3   OH262785   4.344   0.142   1.773  0.5308  0.4856 -0.0713
13765TIP3    H162786   4.343   0.077   1.842  0.4839 -0.9712 -1.3841
13765TIP3    H262787   4.436   0.165   1.762  1.0001 -1.7813 -1.6932
13766TIP3   OH262788   0.161   6.071  11.684 -0.0096 -0.3973  0.1428
13766TIP3    H162789   0.157   6.135  11.755  0.7034 -0.3279  0.1285
13766TIP3    H262790   0.142   6.120  11.605  0.6945 -0.1689  0.1130
13767TIP3   OH262791   0.350   6.636  12.690 -0.3190 -0.1345 -0.2449
13767TIP3    H162792   0.445   6.625  12.698 -0.0991  1.2545 -0.6582
13767TIP3    H262793   0.323   6.673  12.774 -0.6814 -1.4734  0.2592
13768TIP3   OH262794   3.094   1.005  15.652 -0.3276  0.0026 -0.0236
13768TIP3    H162795   3.090   1.099  15.666  1.8884  0.2381 -0.5890
13768TIP3    H262796   3.148   0.972  15.724  0.2613 -0.5957 -0.7220
13769TIP3   OH262797   1.798   0.912  15.016  0.2237 -0.3084  0.0963
13769TIP3    H162798   1.836   0.923  15.102 -1.0425  0.7673  0.5588
13769TIP3    H262799   1.862   0.861  14.967  1.0120 -0.8352  1.6250
13770TIP3   OH262800   4.065   6.344  16.814 -0.0925  0.0636 -0.1338
13770TIP3    H162801   3.992   6.370  16.758  1.1990  2.2981 -0.9089
13770TIP3    H262802   4.098   6.264  16.774 -0.4630  0.5176 -1.3960
13771TIP3   OH262803   3.630   5.915   4.478 -0.1638  0.2260  0.4640
13771TIP3    H162804   3.623   5.930   4.384  0.9826 -0.9343  0.1641
13771TIP3    H262805   3.569   5.843   4.496  0.2556 -0.1369  0.4464
13772TIP3   OH262806   4.547   2.025   5.626  0.2586 -0.4878  0.0254
13772TIP3    H162807   4.544   2.115   5.659 -3.5271 -0.4851  0.1336
13772TIP3    H262808   4.527   2.033   5.533  0.9196 -1.1655 -0.1825
13773TIP3   OH262809   3.669   5.509  16.736  0.1653  0.1210 -0.5309
13773TIP3    H162810   3.665   5.433  16.679 -0.1804 -0.3851  0.1580
13773TIP3    H262811   3.763   5.530  16.741  0.3099 -0.5523 -0.3392
13774TIP3   OH262812   5.636   3.787  13.570  0.4890  0.0148 -0.2822
13774TIP3    H162813   5.690   3.812  13.644  0.6132 -1.9589  0.3340
13774TIP3    H262814   5.662   3.847  13.500  1.4828  0.8809  0.8035
13775TIP3   OH262815   3.029   0.765   6.396 -0.7375  0.1607 -0.2984
13775TIP3    H162816   2.938   0.735   6.393  0.0797 -2.5690 -0.3454
13775TIP3    H262817   3.036   0.827   6.323 -2.2249 -0.6220 -1.1581
13776TIP3   OH262818   5.057   3.302   3.054 -0.5060  0.0214 -0.0360
13776TIP3    H162819   5.065   3.285   3.148 -1.0515  0.2842  0.0599
13776TIP3    H262820   4.987   3.245   3.024  0.7829 -1.3310 -0.6303
13777TIP3   OH262821   4.063   2.307  11.620  0.2494  0.0808  0.5463
13777TIP3    H162822   4.019   2.251  11.683 -0.2100 -2.6270 -1.9746
13777TIP3    H262823   4.018   2.391  11.626 -4.0464 -1.8811 -0.4095
13778TIP3   OH262824   1.265   4.818   4.213 -0.2222  0.1669  0.0477
13778TIP3    H162825   1.172   4.833   4.229 -0.5454 -0.1191 -1.3761
13778TIP3    H262826   1.267   4.743   4.153  0.9264  0.1428  0.0923
13779TIP3   OH262827   4.282   5.581   5.944  0.8644 -0.1093  1.0853
13779TIP3    H162828   4.311   5.506   5.996  1.4800 -0.5606  0.1066
13779TIP3    H262829   4.280   5.653   6.007  1.5283 -0.6543  1.7626
13780TIP3   OH262830   5.087   5.282   3.937  0.0054  0.4083 -0.6166
13780TIP3    H162831   5.099   5.306   4.029 -0.5667 -0.0553 -0.4143
13780TIP3    H262832   5.073   5.187   3.939  1.0567  0.2215 -1.2853
13781TIP3   OH262833   0.686   4.521   2.266  0.0874 -0.1199 -0.1558
13781TIP3    H162834   0.675   4.462   2.341 -1.6208 -0.9849 -1.0219
13781TIP3    H262835   0.758   4.579   2.292  0.5518 -1.3468  1.5170
13782TIP3   OH262836   3.930   1.103  16.155 -0.0175  0.0824 -0.3292
13782TIP3    H162837   3.878   1.077  16.231 -2.1979 -0.9692 -2.0405
13782TIP3    H262838   3.879   1.173  16.114 -1.4841 -2.4461 -3.2950
13783TIP3   OH262839   4.562   0.286   0.298  0.1681 -0.3527 -0.1036
13783TIP3    H162840   4.599   0.216   0.245 -1.0830 -0.8585 -0.3400
13783TIP3    H262841   4.622   0.360   0.285  1.2976 -1.2601 -0.1342
13784TIP3   OH262842   0.479   4.076  17.183 -0.1905  0.3588  0.2711
13784TIP3    H162843   0.444   4.151  17.231 -0.1301  1.4489 -1.3185
13784TIP3    H262844   0.443   4.085  17.095  0.1192 -1.2872 -0.0443
13785TIP3   OH262845   6.475   3.805  11.953  0.3194  0.4430 -0.2272
13785TIP3    H162846   6.509   3.753  11.880 -1.0434  2.3137 -2.3258
13785TIP3    H262847   6.554   3.840  11.995  1.1732 -1.5330 -0.0336
13786TIP3   OH262848   1.064   1.642   6.136  0.0946 -0.7732  0.0937
13786TIP3    H162849   1.024   1.598   6.061  0.5791 -3.2188  1.1616
13786TIP3    H262850   1.134   1.694   6.098  0.2338 -1.8293 -1.2000
13787TIP3   OH262851   0.572   2.449   2.223 -0.2519  0.7018 -0.1622
13787TIP3    H162852   0.515   2.388   2.175  1.1526 -0.9206  0.1502
13787TIP3    H262853   0.577   2.526   2.166 -1.7544  0.3943 -0.7569
13788TIP3   OH262854   1.623   4.549   1.489  0.1492  0.0308  0.6024
13788TIP3    H162855   1.585   4.462   1.500  0.6910 -0.2738  0.1304
13788TIP3    H262856   1.653   4.551   1.398  1.2377  0.2617  0.9425
13789TIP3   OH262857   1.386   1.602  16.875  0.2266  0.1645  0.3293
13789TIP3    H162858   1.375   1.514  16.837 -0.5605  0.1511  0.5818
13789TIP3    H262859   1.478   1.604  16.903  0.8756  0.1952 -1.6103
13790TIP3   OH262860   5.455   5.150   3.299 -0.3248  0.2972 -0.1686
13790TIP3    H162861   5.495   5.167   3.213  0.5792 -0.3310  0.1056
13790TIP3    H262862   5.361   5.150   3.282 -0.2119  1.4809 -0.9049
13791TIP3   OH262863   1.865   6.048   2.869  0.6498  0.8343 -0.3138
13791TIP3    H162864   1.791   6.057   2.809 -0.5804  2.6824  1.3418
13791TIP3    H262865   1.933   6.104   2.830  0.8704 -0.1054 -1.3372
13792TIP3   OH262866   4.170   6.311  15.261 -0.1165 -0.0838 -0.1488
13792TIP3    H162867   4.154   6.289  15.353  3.0030 -0.3390  0.4507
13792TIP3    H262868   4.163   6.227  15.215  0.6757 -0.3995  0.2804
13793TIP3   OH262869   0.807   1.151  12.514 -0.3257 -0.2852 -0.1532
13793TIP3    H162870   0.746   1.106  12.571 -0.0036  0.0874  0.5085
13793TIP3    H262871   0.893   1.133  12.552 -0.0552 -0.4662 -0.8315
13794TIP3   OH262872   2.964   4.733  15.602 -0.7206  0.2388  0.1773
13794TIP3    H162873   2.944   4.717  15.695  1.6820 -0.4034  0.6496
13794TIP3    H262874   2.976   4.646  15.565 -1.0914  0.5250 -0.6254
13795TIP3   OH262875   3.706   2.505   0.074  0.6075 -0.5026  0.4939
13795TIP3    H162876   3.668   2.557   0.003 -0.3215  0.0202  1.3481
13795TIP3    H262877   3.796   2.490   0.046  0.5363  0.4830 -0.3652
13796TIP3   OH262878   3.234   5.758  16.785 -0.6695  0.5135  0.4285
13796TIP3    H162879   3.323   5.769  16.750 -1.1694 -0.5700 -1.2475
13796TIP3    H262880   3.242   5.786  16.877  0.9356  2.3785 -0.1926
13797TIP3   OH262881   0.845   1.145  16.123 -0.1455 -0.0100 -0.1678
13797TIP3    H162882   0.916   1.198  16.160 -0.9402  0.7680  0.2585
13797TIP3    H262883   0.858   1.058  16.160  0.9401 -0.0333 -0.5603
13798TIP3   OH262884   4.189   4.927  14.402 -0.2422 -0.4655 -0.6044
13798TIP3    H162885   4.254   4.979  14.356  0.3411 -1.0278 -0.4296
13798TIP3    H262886   4.123   4.906  14.335  0.5569 -1.2097 -1.1819
13799TIP3   OH262887   6.750   1.253   5.098 -0.1107  0.5430 -0.4995
13799TIP3    H162888   6.734   1.163   5.071 -1.9092  0.6666  0.0370
13799TIP3    H262889   6.698   1.306   5.038 -3.4713  0.8670  2.3787
13800TIP3   OH262890   1.374   0.029  11.598 -0.9353  0.0726  0.0718
13800TIP3    H162891   1.354   0.013  11.690  0.2254 -0.8906  0.1883
13800TIP3    H262892   1.314   0.098  11.571 -0.6634  1.0425  1.8160
13801TIP3   OH262893   3.314   3.691   4.989 -0.2852 -0.5509  0.2552
13801TIP3    H162894   3.251   3.750   4.948 -0.5879 -0.8285  0.3232
13801TIP3    H262895   3.363   3.654   4.916 -0.6115 -0.8049  0.1652
13802TIP3   OH262896   3.584   6.518  13.556 -0.3038  0.1379  0.1186
13802TIP3    H162897   3.542   6.575  13.620 -1.2750 -0.5810  0.1403
13802TIP3    H262898   3.542   6.433  13.568 -0.7568  0.0649 -1.6820
13803TIP3   OH262899   3.931   2.785  16.047  0.4502 -0.1932 -0.1757
13803TIP3    H162900   3.936   2.869  16.092  0.3286 -1.4844  2.3944
13803TIP3    H262901   3.839   2.776  16.022  0.3674  0.1996 -0.0105
13804TIP3   OH262902   1.229   1.430  10.712  0.0310  0.2253 -0.2307
13804TIP3    H162903   1.276   1.347  10.699  0.6766  0.4812  0.4118
13804TIP3    H262904   1.289   1.483  10.764 -0.3756  1.1097 -0.6513
13805TIP3   OH262905   6.575   3.617   4.479 -0.4046 -0.0077 -0.7551
13805TIP3    H162906   6.562   3.659   4.394 -1.1127 -0.6409 -0.9728
13805TIP3    H262907   6.568   3.523   4.461  0.6417 -0.2067 -0.1871
13806TIP3   OH262908   0.793   1.194   4.047 -0.0306  0.4719  0.8821
13806TIP3    H162909   0.740   1.118   4.023  1.3484  0.3638 -2.2823
13806TIP3    H262910   0.873   1.186   3.995  1.1118  3.0157  2.0275
13807TIP3   OH262911   2.544   6.300   2.798 -0.1398 -0.5875 -0.7751
13807TIP3    H162912   2.565   6.391   2.815 -0.9020 -0.6866  0.8408
13807TIP3    H262913   2.540   6.294   2.702 -0.3553  1.1223 -0.9010
13808TIP3   OH262914   4.544   2.491  12.635  0.0913  0.5494  0.4471
13808TIP3    H162915   4.603   2.485  12.710  0.1204 -2.7289  0.3054
13808TIP3    H262916   4.588   2.443  12.565 -0.9921  1.5175 -0.9603
13809TIP3   OH262917   3.454   3.472   0.662  0.0139 -0.1771  0.0010
13809TIP3    H162918   3.480   3.439   0.748 -1.9298 -0.5710  0.4714
13809TIP3    H262919   3.359   3.480   0.667 -0.3962 -2.1721 -2.7987
13810TIP3   OH262920   5.292   2.105   3.738  0.5776  0.7183  1.2333
13810TIP3    H162921   5.303   2.067   3.651  1.8971  0.5985  1.4266
13810TIP3    H262922   5.201   2.086   3.761  0.0955  1.0754 -0.2561
13811TIP3   OH262923   5.021   2.773  14.811 -0.2194  0.4924  0.2583
13811TIP3    H162924   5.003   2.865  14.831  0.7576  0.8692 -0.5261
13811TIP3    H262925   4.967   2.724  14.873 -0.9200  1.5889  0.5388
13812TIP3   OH262926   6.647   0.031   0.354 -0.0198 -0.4505 -0.2750
13812TIP3    H162927   6.664   0.108   0.299  3.1355 -0.6213  0.2737
13812TIP3    H262928   6.581   0.061   0.417  0.7916  1.6889 -0.3372
13813TIP3   OH262929   1.191   1.631   1.774 -0.0879 -0.2562  0.0236
13813TIP3    H162930   1.258   1.652   1.709 -0.5845 -0.7894 -0.6862
13813TIP3    H262931   1.218   1.547   1.810  1.0149  0.7500  1.6604
13814TIP3   OH262932   3.536   2.330   4.858  0.2577  0.1009  0.4424
13814TIP3    H162933   3.541   2.234   4.858  1.0790  0.1227 -0.3175
13814TIP3    H262934   3.613   2.358   4.909  0.0915  0.3565  0.5538
13815TIP3   OH262935   2.596   6.764  16.336 -0.1724  0.0604 -0.8871
13815TIP3    H162936   2.575   6.735  16.247  0.4560 -1.9355 -0.4470
13815TIP3    H262937   2.512   6.762  16.382 -0.3487  0.2088 -1.1960
13816TIP3   OH262938   5.144   3.292  17.332 -0.0931  0.3018  0.7407
13816TIP3    H162939   5.156   3.250  17.247  0.8049  1.9636  0.0192
13816TIP3    H262940   5.084   3.233  17.379 -2.3984  0.4315 -1.8096
13817TIP3   OH262941   1.247   5.055   1.064 -0.2374  0.0573  0.4601
13817TIP3    H162942   1.300   5.057   0.985  0.8049  0.2472  1.1356
13817TIP3    H262943   1.310   5.035   1.134 -1.6304 -3.6346  0.8727
13818TIP3   OH262944   2.470   0.432  14.603 -1.0781 -0.1157 -0.0544
13818TIP3    H162945   2.451   0.339  14.589 -0.0443 -0.5091  0.9943
13818TIP3    H262946   2.465   0.471  14.515  1.2186 -1.7057 -0.9983
13819TIP3   OH262947   2.173   4.868   5.768  0.4340  0.1764  0.1103
13819TIP3    H162948   2.213   4.789   5.804 -0.7961 -0.3331  0.4223
13819TIP3    H262949   2.121   4.904   5.839  2.3764  2.3453  0.5635
13820TIP3   OH262950   0.729   5.412  16.783  0.2536 -0.2069  0.1076
13820TIP3    H162951   0.660   5.478  16.772  1.7767  1.5399  0.6293
13820TIP3    H262952   0.715   5.378  16.871 -1.0884 -1.2968 -0.4830
13821TIP3   OH262953   0.408   1.131  13.566 -0.4575  0.2744  0.6035
13821TIP3    H162954   0.488   1.110  13.615  1.0151  3.2650 -0.2968
13821TIP3    H262955   0.386   1.049  13.520  2.1082 -0.6420  0.8495
13822TIP3   OH262956   3.279   4.450  16.302  0.6511  0.3848  0.0828
13822TIP3    H162957   3.241   4.364  16.321 -1.8753  1.6466  1.2534
13822TIP3    H262958   3.209   4.499  16.260  2.6322  1.3472 -2.3292
13823TIP3   OH262959   1.132   4.396   1.822 -0.0702 -0.3312  0.1349
13823TIP3    H162960   1.060   4.346   1.784  0.8107 -0.9758 -0.7304
13823TIP3    H262961   1.145   4.358   1.909  0.0990 -1.1251 -0.2293
13824TIP3   OH262962   0.137   0.660   5.505 -0.7204 -0.6298  0.7052
13824TIP3    H162963   0.164   0.718   5.433  0.3420  0.5073  1.9643
13824TIP3    H262964   0.214   0.654   5.561 -1.8106 -0.6756  2.2638
13825TIP3   OH262965   3.500   2.890  12.499  0.0551 -0.0709 -0.4621
13825TIP3    H162966   3.406   2.884  12.483 -0.2162  1.3344  0.4058
13825TIP3    H262967   3.507   2.894  12.595  0.8661  1.2181 -0.5530
13826TIP3   OH262968   4.105   4.596   5.473 -0.0775  0.4048 -0.2912
13826TIP3    H162969   4.089   4.502   5.464  0.0153  0.4617 -1.2228
13826TIP3    H262970   4.178   4.603   5.534  1.1416 -0.2395 -1.6140
13827TIP3   OH262971   1.585   0.723   0.630  0.6357 -0.3883  0.5374
13827TIP3    H162972   1.512   0.772   0.591  0.5191  1.0360  2.3994
13827TIP3    H262973   1.648   0.713   0.559 -1.6406 -2.3924 -1.3728
13828TIP3   OH262974   3.502   6.552  12.505  0.3034 -0.8028 -0.3593
13828TIP3    H162975   3.467   6.464  12.494  1.1907 -1.3743  1.0941
13828TIP3    H262976   3.594   6.544  12.479  0.8106 -0.7274  1.3048
13829TIP3   OH262977   3.191   4.260   3.095 -0.1271 -0.1164  0.2680
13829TIP3    H162978   3.276   4.269   3.138  1.5713  0.5616 -2.9200
13829TIP3    H262979   3.154   4.348   3.097  0.2179  0.0388 -0.1758
13830TIP3   OH262980   1.682   0.522   2.249  0.1333 -0.5190  0.1500
13830TIP3    H162981   1.622   0.512   2.174  1.6126 -1.2902 -0.9801
13830TIP3    H262982   1.629   0.565   2.316 -1.9495 -1.9367 -0.4794
13831TIP3   OH262983   5.569   6.615   3.831  0.1139  0.0891  0.0067
13831TIP3    H162984   5.510   6.558   3.783  0.2285  0.2601 -0.3350
13831TIP3    H262985   5.522   6.634   3.913 -0.9475  1.4240 -0.8853
13832TIP3   OH262986   2.085   3.518   0.966  0.4227 -0.5876 -0.3171
13832TIP3    H162987   2.061   3.521   0.873 -1.3730  2.4550  0.1299
13832TIP3    H262988   2.092   3.610   0.992  3.9610 -1.2814  1.9109
13833TIP3   OH262989   6.044   3.442  13.952 -0.8530  0.3310  0.2014
13833TIP3    H162990   5.955   3.441  13.917 -0.4854 -1.0853 -0.7491
13833TIP3    H262991   6.097   3.397  13.886 -0.0482 -2.0622  2.3037
13834TIP3   OH262992   6.410   4.942   4.239 -0.1310 -0.4496 -1.0798
13834TIP3    H162993   6.400   4.917   4.148  0.4295 -0.6539 -1.0908
13834TIP3    H262994   6.392   5.036   4.240 -0.6137 -0.5386 -1.3174
13835TIP3   OH262995   0.077   3.320   3.706  0.3528  0.1707  0.3373
13835TIP3    H162996   0.004   3.301   3.766  0.4714 -0.0710  0.4049
13835TIP3    H262997   0.138   3.372   3.759  0.0535  0.7075  0.1677
13836TIP3   OH262998   1.598   5.375  16.520  0.9756  0.1095 -0.5740
13836TIP3    H162999   1.635   5.449  16.472  0.6243  1.4931  1.1712
13836TIP3    H263000   1.634   5.384  16.609  1.5574 -2.3017 -0.5179
13837TIP3   OH263001   0.405   2.384   4.112  0.4020  0.6523 -0.0791
13837TIP3    H163002   0.470   2.339   4.166  0.0825  0.8328  0.4655
13837TIP3    H263003   0.435   2.370   4.022  1.1343  0.6443  0.1555
13838TIP3   OH263004   2.338   5.523  15.167 -0.0685 -0.0059  0.1405
13838TIP3    H163005   2.395   5.503  15.241  2.6019  1.1956 -1.4199
13838TIP3    H263006   2.331   5.440  15.119  0.2190 -0.2267  0.4748
13839TIP3   OH263007   1.913   6.061  16.227  0.1102  0.0438  0.3620
13839TIP3    H163008   2.008   6.047  16.219 -0.1835 -1.0240 -1.9032
13839TIP3    H263009   1.875   6.007  16.159 -2.1347  0.8850  0.8722
13840TIP3   OH263010   6.607   4.136  15.733  0.5739 -0.8829  0.3016
13840TIP3    H163011   6.688   4.177  15.703  0.4677 -0.7629  0.1739
13840TIP3    H263012   6.541   4.205  15.725  0.1298 -1.4195 -1.1560
13841TIP3   OH263013   0.695   2.286   2.770  0.3482 -0.2480  0.0593
13841TIP3    H163014   0.744   2.300   2.851  0.2998 -0.2208  0.0843
13841TIP3    H263015   0.604   2.281   2.798  0.5295 -3.7102  0.4493
13842TIP3   OH263016   1.195   5.630  11.424 -0.5622 -0.4550  0.2880
13842TIP3    H163017   1.284   5.663  11.406 -0.1672 -1.7712 -0.2987
13842TIP3    H263018   1.140   5.675  11.360 -0.0655 -0.7883 -0.3852
13843TIP3   OH263019   0.849   0.378   4.736  0.3565 -0.1000  0.1300
13843TIP3    H163020   0.884   0.432   4.806 -1.8330  1.1732  0.3290
13843TIP3    H263021   0.860   0.288   4.768 -0.9922  0.4431  2.3907
13844TIP3   OH263022   4.741   2.421   6.269 -0.3263 -0.0411 -0.4953
13844TIP3    H163023   4.669   2.458   6.217  0.7008  1.1235 -1.1418
13844TIP3    H263024   4.698   2.386   6.347 -1.7786 -0.8017 -1.5757
13845TIP3   OH263025   0.339   3.069  16.163  0.4200 -0.1837 -0.4005
13845TIP3    H163026   0.288   3.013  16.222 -0.2628 -1.3160 -1.9881
13845TIP3    H263027   0.420   3.085  16.210 -0.7872  0.4384  1.5809
13846TIP3   OH263028   0.544   1.257   4.591 -0.0529 -0.5619 -0.6564
13846TIP3    H163029   0.550   1.316   4.516  0.1599 -0.6490 -0.7081
13846TIP3    H263030   0.634   1.231   4.609 -0.0462 -0.1401 -0.0486
13847TIP3   OH263031   3.369   4.445  11.525 -0.3158 -0.5435 -0.7998
13847TIP3    H163032   3.438   4.487  11.577  0.0524 -2.4883  0.3780
13847TIP3    H263033   3.416   4.405  11.452 -0.8490  2.3505 -2.9490
13848TIP3   OH263034   2.015   6.341  16.104 -0.2348 -0.1954 -0.2680
13848TIP3    H163035   1.970   6.257  16.110  3.1187 -2.1812 -0.4040
13848TIP3    H263036   2.044   6.346  16.013  1.3193  0.0553  0.2039
13849TIP3   OH263037   0.314   4.426  15.566 -0.1404  0.0837  0.3023
13849TIP3    H163038   0.377   4.495  15.544  1.9567 -0.2007  4.5385
13849TIP3    H263039   0.237   4.473  15.598  0.3843  0.5037  0.9839
13850TIP3   OH263040   4.598   3.172  13.462  0.8137 -0.4041  0.6206
13850TIP3    H163041   4.597   3.169  13.558  1.8831  1.3373  0.7121
13850TIP3    H263042   4.534   3.239  13.440 -1.1402 -2.3465 -0.0543
13851TIP3   OH263043   0.635   0.795  16.398  0.7684 -0.3394  0.5630
13851TIP3    H163044   0.616   0.823  16.487  1.4274  1.2232  0.2449
13851TIP3    H263045   0.551   0.804  16.352  0.9350  1.0351  0.5027
13852TIP3   OH263046   3.112   2.661  16.721  0.0849  0.1611  0.1927
13852TIP3    H163047   3.050   2.605  16.675  0.4515 -0.5653  0.5573
13852TIP3    H263048   3.123   2.619  16.806  0.6617  0.5799  0.3324
13853TIP3   OH263049   2.600   3.729  11.620  0.0656 -0.1704 -0.3133
13853TIP3    H163050   2.666   3.684  11.567 -0.0125 -0.9032  0.1930
13853TIP3    H263051   2.583   3.669  11.693 -2.4096 -0.7820 -1.2998
13854TIP3   OH263052   4.923   1.928   4.223  0.2323  0.3136 -0.8875
13854TIP3    H163053   4.950   2.017   4.200 -0.3797  0.6012 -0.5129
13854TIP3    H263054   4.871   1.899   4.149 -0.3276  0.6121 -0.6175
13855TIP3   OH263055   0.116   6.249  13.054  0.7236  0.5399 -0.0865
13855TIP3    H163056   0.177   6.322  13.059  1.1337  0.1284  2.0489
13855TIP3    H263057   0.159   6.179  13.103 -0.6186 -0.4015 -0.2000
13856TIP3   OH263058   4.929   2.796   3.046 -0.0210 -0.1132  0.7773
13856TIP3    H163059   5.001   2.750   3.002 -0.1853  0.0136  0.3692
13856TIP3    H263060   4.969   2.833   3.125  0.7087  1.1315 -0.1223
13857TIP3   OH263061   5.142   6.624  16.511  0.1094  0.2494 -0.1646
13857TIP3    H163062   5.128   6.672  16.592  1.6288 -0.7319  0.7309
13857TIP3    H263063   5.230   6.588  16.519 -0.3777 -1.3741 -1.4717
13858TIP3   OH263064   5.110   0.665   3.043  0.2917  0.2078  0.0545
13858TIP3    H163065   5.144   0.582   3.009 -0.8232  0.2328 -1.2249
13858TIP3    H263066   5.147   0.732   2.985 -0.5661  0.3856 -0.3020
13859TIP3   OH263067   2.741   0.118   3.523 -0.5787  0.2951 -0.3320
13859TIP3    H163068   2.812   0.162   3.570 -0.2896 -0.2390 -0.2646
13859TIP3    H263069   2.690   0.190   3.486  0.6613  0.6666 -1.3954
13860TIP3   OH263070   3.899   6.784   5.766 -0.7719 -0.0692  0.3946
13860TIP3    H163071   3.890   6.869   5.724 -0.4445 -0.6966 -1.0033
13860TIP3    H263072   3.945   6.802   5.848 -1.2998  1.1698  0.4378
13861TIP3   OH263073   4.386   4.578   4.183 -0.7018  0.5339 -0.0133
13861TIP3    H163074   4.323   4.637   4.224 -1.4687  1.1021 -1.8928
13861TIP3    H263075   4.463   4.633   4.166 -0.7299  0.5443 -0.1130
13862TIP3   OH263076   3.423   4.541   5.631  0.3960  0.3410  0.3662
13862TIP3    H163077   3.369   4.566   5.557  0.2814  0.0333  0.3406
13862TIP3    H263078   3.511   4.570   5.609  0.1293  1.4132  0.6858
13863TIP3   OH263079   2.349   0.740   0.056  0.4065 -0.0628  0.2607
13863TIP3    H163080   2.351   0.809  -0.011 -0.4845  0.9018  1.2028
13863TIP3    H263081   2.259   0.709   0.056  0.6728 -0.8526  0.2367
13864TIP3   OH263082   4.624   0.347   6.027 -0.2771  0.6835 -0.7069
13864TIP3    H163083   4.684   0.404   6.074 -0.3673  1.5924 -1.6686
13864TIP3    H263084   4.655   0.259   6.046 -1.0164  0.9157  2.0201
13865TIP3   OH263085   3.651   1.348  11.262 -0.5368  0.1238  0.2865
13865TIP3    H163086   3.618   1.327  11.175  0.9144 -0.5274 -0.1425
13865TIP3    H263087   3.718   1.415  11.247 -1.1023  0.8801  1.0424
13866TIP3   OH263088   2.057   4.675   5.337  0.0263 -0.3138  0.1594
13866TIP3    H163089   2.045   4.620   5.414  1.4452  0.1006  0.7169
13866TIP3    H263090   2.068   4.763   5.372 -1.4640  0.2383 -0.6742
13867TIP3   OH263091   1.089   3.931   3.920  0.7137  0.1456 -0.2353
13867TIP3    H163092   1.155   3.874   3.960 -0.3815 -2.2700 -1.6282
13867TIP3    H263093   1.094   3.911   3.826 -1.7150  0.0949 -0.4269
13868TIP3   OH263094   6.622   6.358  15.315 -1.0155  0.1960 -0.1059
13868TIP3    H163095   6.542   6.332  15.359  1.4178 -2.5319  3.2805
13868TIP3    H263096   6.639   6.289  15.252 -0.9393  0.3437 -0.2473
13869TIP3   OH263097   2.867   6.174   3.383 -0.2063 -0.0252 -0.3324
13869TIP3    H163098   2.837   6.215   3.464 -0.2611  0.4842 -0.6093
13869TIP3    H263099   2.952   6.135   3.405 -1.0108 -1.4480  0.4549
13870TIP3   OH263100   4.657   0.691  16.512 -0.4160 -0.3213  0.1996
13870TIP3    H163101   4.649   0.778  16.472 -1.5138 -0.8492 -0.7996
13870TIP3    H263102   4.709   0.706  16.591  1.4379  0.8426 -1.1610
13871TIP3   OH263103   6.061   4.543   5.697  0.0860  0.2841 -0.5135
13871TIP3    H163104   6.136   4.506   5.743  0.0368  0.7484 -0.0550
13871TIP3    H263105   5.985   4.514   5.748  0.0590  1.1580 -0.0506
13872TIP3   OH263106   4.760   4.610   1.674 -0.6422 -0.6294 -0.1521
13872TIP3    H163107   4.808   4.650   1.601 -0.4797 -0.7331 -0.1023
13872TIP3    H263108   4.672   4.593   1.638 -0.1102 -2.1351 -0.8252
13873TIP3   OH263109   3.725   5.493  15.711 -0.3730  0.6079  0.2468
13873TIP3    H163110   3.698   5.404  15.689 -0.8611  0.7297  0.3344
13873TIP3    H263111   3.650   5.547  15.685 -1.2488  0.7174  2.7170
13874TIP3   OH263112   4.164   6.743  15.855  0.1591 -0.0605 -0.1482
13874TIP3    H163113   4.116   6.811  15.808 -2.9478 -1.1624  1.1792
13874TIP3    H263114   4.213   6.697  15.787  0.4868  1.9968 -1.3918
13875TIP3   OH263115   5.798   3.282   7.069  0.5918  0.6668  0.1168
13875TIP3    H163116   5.822   3.233   7.148 -0.5561  1.2439  0.8510
13875TIP3    H263117   5.721   3.332   7.094  1.0402  1.9663 -0.9619
13876TIP3   OH263118   3.412   4.771   2.634 -0.5634  0.4150 -0.3826
13876TIP3    H163119   3.456   4.772   2.549  0.9406 -2.4908  0.2467
13876TIP3    H263120   3.472   4.815   2.694  0.2841 -1.0806 -0.0851
13877TIP3   OH263121   1.134   0.588  10.903 -0.2750  0.7808 -0.6266
13877TIP3    H163122   1.121   0.665  10.847  1.3566  0.7159 -1.1600
13877TIP3    H263123   1.046   0.560  10.927 -0.9416  2.0263 -1.5045
13878TIP3   OH263124   4.711   2.152  13.045 -0.5491 -0.7982  0.6576
13878TIP3    H163125   4.623   2.152  13.006  0.2453 -1.6054 -1.3016
13878TIP3    H263126   4.745   2.240  13.030 -1.2254 -0.2820  2.0050
13879TIP3   OH263127   1.739   5.324  11.676 -0.1348  0.1881  0.1050
13879TIP3    H163128   1.777   5.402  11.638  1.0183 -1.0223 -1.3333
13879TIP3    H263129   1.668   5.300  11.617 -2.2329  1.5239  1.9132
13880TIP3   OH263130   2.324   0.405  16.531  0.1672  0.3522 -1.0828
13880TIP3    H163131   2.241   0.440  16.500 -1.1880 -1.9652 -0.2671
13880TIP3    H263132   2.308   0.312  16.545  3.3612 -0.5562 -2.4238
13881TIP3   OH263133   1.255   5.093   0.639  0.0774 -0.2399  0.4009
13881TIP3    H163134   1.175   5.042   0.650  1.0145 -2.3624 -1.8621
13881TIP3    H263135   1.247   5.134   0.553  1.1197  0.0967  0.4396
13882TIP3   OH263136   2.025   4.190   6.067 -0.5689 -0.1114 -0.6434
13882TIP3    H163137   2.061   4.184   6.156 -0.3122 -0.6853 -0.7791
13882TIP3    H263138   2.098   4.222   6.015 -0.5378 -0.3535 -0.7504
13883TIP3   OH263139   3.170   0.710   2.136  0.0651  0.2371 -0.8849
13883TIP3    H163140   3.103   0.763   2.179 -0.0006  0.0558 -0.7619
13883TIP3    H263141   3.246   0.768   2.130  0.3839 -0.0226  0.3095
13884TIP3   OH263142   0.779   4.347  14.466  0.0277  0.4409 -0.3124
13884TIP3    H163143   0.701   4.400  14.482  0.0206  0.1529  0.6867
13884TIP3    H263144   0.830   4.397  14.402 -1.5220  0.0790 -1.9225
13885TIP3   OH263145   0.579   3.869  13.516 -0.0062  0.2301 -0.5101
13885TIP3    H163146   0.508   3.870  13.452 -0.7935  0.2111  0.3353
13885TIP3    H263147   0.608   3.960  13.521 -0.4291  0.3601 -0.3765
13886TIP3   OH263148   6.139   6.103  11.786  0.0644  0.1846 -0.7435
13886TIP3    H163149   6.188   6.047  11.846 -0.2645  0.6308 -0.0543
13886TIP3    H263150   6.107   6.175  11.840 -2.1429 -0.5686 -0.9528
13887TIP3   OH263151   3.578   0.071  16.152 -0.0194  0.2449  0.6839
13887TIP3    H163152   3.646   0.119  16.104 -0.7698 -0.0234 -0.7191
13887TIP3    H263153   3.575  -0.014  16.108 -0.3695 -0.2072  1.5790
13888TIP3   OH263154   6.601   5.740  14.018 -0.7598  0.0033 -0.8194
13888TIP3    H163155   6.619   5.732  14.112 -0.1532 -0.3091 -0.9583
13888TIP3    H263156   6.529   5.803  14.013  0.5730  1.6495 -0.2669
13889TIP3   OH263157   1.641   1.185  16.142 -0.2432 -0.1563 -0.1093
13889TIP3    H163158   1.736   1.182  16.141 -0.2274 -0.0115  0.4858
13889TIP3    H263159   1.615   1.096  16.169 -0.3656 -1.0448 -2.8961
13890TIP3   OH263160   5.929   1.306   2.636 -0.0135  0.1099  0.6199
13890TIP3    H163161   6.018   1.272   2.648  0.1868  0.3993  0.0050
13890TIP3    H263162   5.899   1.268   2.554  0.0186  0.9824  0.1930
13891TIP3   OH263163   3.322   2.950   5.392 -0.4519 -0.9638 -0.6631
13891TIP3    H163164   3.263   2.942   5.317  0.1926  0.1451 -1.3081
13891TIP3    H263165   3.303   3.036   5.428 -0.0130 -1.0611 -0.1866
13892TIP3   OH263166   3.712   2.157  13.891 -0.0491 -0.8643  0.0969
13892TIP3    H163167   3.796   2.111  13.890  0.1195 -0.5543 -0.0776
13892TIP3    H263168   3.734   2.246  13.918 -0.1050 -0.3756 -1.3941
13893TIP3   OH263169   4.889   0.609  11.515 -0.1037 -0.4001 -0.3437
13893TIP3    H163170   4.825   0.679  11.503 -0.1680 -0.2248  0.9390
13893TIP3    H263171   4.858   0.539  11.457  0.2585  0.7987 -2.0589
13894TIP3   OH263172   3.259   6.327   5.916  0.3155 -0.2580  0.1702
13894TIP3    H163173   3.236   6.282   5.998 -0.7926  0.5436  0.3193
13894TIP3    H263174   3.185   6.311   5.858 -0.5078  1.9940  0.5027
13895TIP3   OH263175   1.192   4.378   5.056 -0.4152  0.1604  0.4588
13895TIP3    H163176   1.225   4.323   5.128 -2.1485 -1.1445  0.3257
13895TIP3    H263177   1.187   4.465   5.094 -2.6052 -0.7306  2.4531
13896TIP3   OH263178   4.068   3.588   5.506 -0.1904 -0.3739 -0.2060
13896TIP3    H163179   4.087   3.622   5.593 -0.7159  0.0970 -0.2722
13896TIP3    H263180   3.997   3.526   5.520 -0.8665  0.3487 -0.4178
13897TIP3   OH263181   0.163   2.001  13.683  0.1272  0.3151 -0.2036
13897TIP3    H163182   0.255   2.007  13.655  0.8522  1.8823  2.2271
13897TIP3    H263183   0.113   2.008  13.601  2.1357  1.5059 -1.4162
13898TIP3   OH263184   4.013   5.924  14.908  0.1024  0.0301 -0.4087
13898TIP3    H163185   3.919   5.931  14.921  0.0566  1.3133 -1.3452
13898TIP3    H263186   4.025   5.843  14.858 -0.3653 -0.7618  0.6999
13899TIP3   OH263187   5.134   3.437   1.242  0.2548  0.0998 -0.3677
13899TIP3    H163188   5.071   3.473   1.304  0.4870  0.3465 -0.2682
13899TIP3    H263189   5.140   3.504   1.174  2.7817  1.6234  1.2006
13900TIP3   OH263190   5.560   2.787  13.426  0.3807  0.0929  0.1580
13900TIP3    H163191   5.607   2.761  13.347  2.7975  2.0910  0.7930
13900TIP3    H263192   5.630   2.807  13.489 -1.4487 -0.6512  2.5551
13901TIP3   OH263193   1.674   4.540  12.201  0.4367 -0.2754 -0.0275
13901TIP3    H163194   1.645   4.620  12.158 -0.2045 -1.3994 -1.7518
13901TIP3    H263195   1.594   4.492  12.220  0.8281 -0.6328  0.7984
13902TIP3   OH263196   3.097   6.696   2.760  0.0909 -0.1809 -0.2721
13902TIP3    H163197   3.006   6.670   2.743 -0.1605  1.4301 -1.7154
13902TIP3    H263198   3.095   6.728   2.850 -0.0803 -2.7713  0.7337
13903TIP3   OH263199   0.219   2.586   3.858 -0.4163  0.2517  0.4447
13903TIP3    H163200   0.231   2.674   3.822  2.0501  0.4112  1.4454
13903TIP3    H263201   0.133   2.588   3.899 -0.2065  2.3808  0.8807
13904TIP3   OH263202   4.809   3.553   3.727  0.0688  0.7924  0.1995
13904TIP3    H163203   4.825   3.646   3.711 -1.0237  0.8672 -0.5202
13904TIP3    H263204   4.723   3.550   3.770 -0.2938  0.0630 -0.5504
13905TIP3   OH263205   6.119   1.671   1.143  0.2126  0.1489 -0.1274
13905TIP3    H163206   6.041   1.630   1.105 -0.1314  1.0371 -0.3968
13905TIP3    H263207   6.108   1.661   1.237 -0.5244  0.7813 -0.1362
13906TIP3   OH263208   2.407   0.610   2.044  0.1122 -0.0603 -0.1511
13906TIP3    H163209   2.477   0.675   2.045  1.0587 -1.0420 -0.8368
13906TIP3    H263210   2.339   0.647   2.100  1.1385  0.9532  0.4533
13907TIP3   OH263211   6.694   6.102   1.459  0.3927 -0.0057 -0.1165
13907TIP3    H163212   6.672   6.024   1.407 -0.2877  0.1657 -0.0963
13907TIP3    H263213   6.671   6.176   1.401  0.9061  0.1783 -0.0848
13908TIP3   OH263214   4.555   4.598  11.263  0.1500  0.0624  0.2359
13908TIP3    H163215   4.517   4.632  11.344 -0.1779  0.8515 -0.2456
13908TIP3    H263216   4.606   4.671  11.227 -0.7399  0.1393 -0.9211
13909TIP3   OH263217   6.247   1.123   1.661 -0.5282 -0.0717  0.0372
13909TIP3    H163218   6.313   1.101   1.595  0.8132  0.8470  0.9978
13909TIP3    H263219   6.171   1.151   1.611 -0.2911 -1.3976 -1.1240
13910TIP3   OH263220   5.202   1.526   4.704 -0.6223  0.5105  0.2787
13910TIP3    H163221   5.253   1.458   4.662 -0.9392 -0.3793  1.2952
13910TIP3    H263222   5.167   1.579   4.631 -1.0647 -0.9067 -0.5695
13911TIP3   OH263223   4.286   5.378  12.309  0.0428  0.5968 -0.4466
13911TIP3    H163224   4.330   5.313  12.253  2.5462  3.2222 -1.8057
13911TIP3    H263225   4.198   5.385  12.272  0.5902 -0.1045 -2.0004
13912TIP3   OH263226   2.668   2.378  15.637 -0.4268  0.1478  0.4751
13912TIP3    H163227   2.734   2.442  15.663  1.9908 -0.6596 -2.9057
13912TIP3    H263228   2.617   2.424  15.570 -2.5165  0.3043  2.1033
13913TIP3   OH263229   0.031   3.846  12.925  0.3582  0.5399 -0.2819
13913TIP3    H163230   0.023   3.889  13.010 -0.0259 -1.1315  0.5762
13913TIP3    H263231   0.108   3.790  12.933 -0.3059 -0.4581 -0.6218
13914TIP3   OH263232   5.621   4.442   6.078 -0.1315 -0.4653 -0.0730
13914TIP3    H163233   5.620   4.468   5.986 -1.4261  0.2999  0.1329
13914TIP3    H263234   5.688   4.374   6.083  0.2503 -0.2291 -1.4927
13915TIP3   OH263235   1.661   3.982   3.925 -0.1084 -0.5171  0.0127
13915TIP3    H163236   1.741   4.021   3.889  0.6146  0.5127  2.5180
13915TIP3    H263237   1.590   4.039   3.894  0.5016  0.4451  0.3305
13916TIP3   OH263238   1.903   6.561  12.671  0.3975  0.5513  0.7688
13916TIP3    H163239   1.837   6.496  12.694 -0.3869  0.7236 -0.8479
13916TIP3    H263240   1.917   6.612  12.751 -0.2383 -0.5021  1.5686
13917TIP3   OH263241   2.439   0.234   1.806  0.1841  0.2836  0.5126
13917TIP3    H163242   2.371   0.299   1.787  0.1803  0.1126 -0.0717
13917TIP3    H263243   2.459   0.247   1.899 -0.4339  0.5361  0.6162
13918TIP3   OH263244   6.062   5.103   3.567 -0.6172 -0.4932  0.1540
13918TIP3    H163245   6.116   5.170   3.525 -0.8199 -0.9651 -0.8880
13918TIP3    H263246   5.980   5.149   3.588 -0.1979 -0.0314  0.8540
13919TIP3   OH263247   2.443   2.250   3.825 -0.1800 -0.1545  0.1683
13919TIP3    H163248   2.484   2.240   3.739 -0.2112 -0.0109  0.1369
13919TIP3    H263249   2.496   2.195   3.883  0.6270  0.7506  0.3157
13920TIP3   OH263250   0.373   4.496  16.623 -0.1073 -0.2118  0.0528
13920TIP3    H163251   0.299   4.556  16.614  1.1715  1.3801 -0.3682
13920TIP3    H263252   0.442   4.536  16.570  0.7076 -2.2426 -0.4892
13921TIP3   OH263253   5.430   4.535   4.631 -0.0919  0.1184 -0.1635
13921TIP3    H163254   5.392   4.462   4.680 -0.2068 -0.9746 -1.8017
13921TIP3    H263255   5.517   4.503   4.605  1.2181  1.8135  1.7949
13922TIP3   OH263256   1.380   5.097  12.894  0.0039  0.3031  0.2753
13922TIP3    H163257   1.446   5.089  12.825  1.0774  1.3876  1.1163
13922TIP3    H263258   1.431   5.121  12.972 -1.3022  0.2674  1.1670
13923TIP3   OH263259   4.712   0.662  11.824  0.8820  0.4299 -0.4093
13923TIP3    H163260   4.720   0.621  11.910 -0.5021  0.4733 -0.2301
13923TIP3    H263261   4.754   0.601  11.764  1.8721  0.4003  0.2933
13924TIP3   OH263262   6.603   4.943   5.400 -0.3093 -0.2602 -0.2040
13924TIP3    H163263   6.649   4.913   5.322 -0.8599  0.2632 -0.7330
13924TIP3    H263264   6.630   5.034   5.411  0.1957 -0.4883  0.5402
13925TIP3   OH263265   2.560   0.885  15.777 -0.8274 -0.2712  0.3152
13925TIP3    H163266   2.616   0.816  15.811  1.0409  1.4612  0.9222
13925TIP3    H263267   2.618   0.939  15.724 -1.6425  2.1865  1.7924
13926TIP3   OH263268   0.552   3.563   1.400  0.1733  0.2769  0.0678
13926TIP3    H163269   0.518   3.487   1.448 -1.1394  0.7487 -0.0803
13926TIP3    H263270   0.575   3.626   1.468 -2.3889  1.2445  0.1572
13927TIP3   OH263271   4.046   4.600   2.286 -0.5171 -0.1417  0.7144
13927TIP3    H163272   3.995   4.612   2.206  0.1860 -1.6025  0.0204
13927TIP3    H263273   4.002   4.655   2.351 -2.0432 -0.1708 -0.2583
13928TIP3   OH263274   3.351   0.662  13.266 -0.1449 -0.1309  0.4440
13928TIP3    H163275   3.442   0.659  13.298 -0.6283  0.0678  1.9137
13928TIP3    H263276   3.326   0.570  13.256  0.5414 -0.1879 -1.0161
13929TIP3   OH263277   5.166   2.887   5.050  0.2545 -0.5697  0.3566
13929TIP3    H163278   5.230   2.929   4.993 -0.0465 -2.1080 -1.1838
13929TIP3    H263279   5.100   2.955   5.065  0.4475 -0.0535 -0.9755
13930TIP3   OH263280   1.336   4.622  15.106  0.6096  0.2169  0.2686
13930TIP3    H163281   1.320   4.554  15.041 -0.1437  0.0864  0.5835
13930TIP3    H263282   1.430   4.639  15.101  0.7891 -0.7926  0.1320
13931TIP3   OH263283   2.918   1.373  16.599  0.4232 -0.0103 -0.5947
13931TIP3    H163284   2.903   1.465  16.580  2.9282  0.7206  0.5153
13931TIP3    H263285   2.863   1.356  16.676 -0.1015  0.5508 -0.8394
13932TIP3   OH263286   4.627   5.866   5.708  0.3239  0.5350  0.0682
13932TIP3    H163287   4.624   5.927   5.782  1.3896 -0.3307  0.8594
13932TIP3    H263288   4.580   5.789   5.739 -0.2599  0.6147 -0.6103
13933TIP3   OH263289   3.572   3.026  16.826  0.2377 -0.4436 -0.8908
13933TIP3    H163290   3.616   2.943  16.810  0.9517 -0.3650  0.5387
13933TIP3    H263291   3.630   3.092  16.789  0.0874 -0.5163 -1.2580
13934TIP3   OH263292   3.817   5.651   0.828  0.3266  0.0251 -0.7300
13934TIP3    H163293   3.891   5.633   0.771  0.3801 -1.6716 -0.1644
13934TIP3    H263294   3.857   5.680   0.910  0.3721 -0.5850 -0.5301
13935TIP3   OH263295   0.687   6.246  14.139 -0.6147  0.4481  0.3280
13935TIP3    H163296   0.678   6.153  14.118  1.6494  0.0782  0.7166
13935TIP3    H263297   0.664   6.291  14.057  0.5803 -0.5845 -0.6118
13936TIP3   OH263298   0.566   3.856  14.171 -0.0956  0.0788 -0.4234
13936TIP3    H163299   0.587   3.853  14.265 -0.2343 -1.1009 -0.4135
13936TIP3    H263300   0.488   3.802  14.163 -0.6681  0.9877 -1.0857
13937TIP3   OH263301   5.425   6.455  12.648  0.0723 -0.6323 -0.3156
13937TIP3    H163302   5.459   6.450  12.738 -2.5953  0.4734  0.8594
13937TIP3    H263303   5.382   6.370  12.635  1.4185 -1.2347 -1.0307
13938TIP3   OH263304   4.967   0.598  13.370  0.2868  0.4772 -0.4106
13938TIP3    H163305   4.910   0.635  13.302 -2.7737 -1.4726  0.8877
13938TIP3    H263306   4.912   0.534  13.415  3.9082 -2.5380  0.2300
13939TIP3   OH263307   6.117   3.959   4.332 -0.0509 -0.0367  0.0402
13939TIP3    H163308   6.080   4.043   4.359 -0.2107 -0.0642 -0.0866
13939TIP3    H263309   6.182   3.938   4.399  0.0545  0.2325  0.0214
13940TIP3   OH263310   2.438   3.258   5.692  0.4231 -0.3874  0.2276
13940TIP3    H163311   2.527   3.277   5.663 -0.2559 -0.1403 -1.8811
13940TIP3    H263312   2.410   3.184   5.638 -0.3490 -1.0808  1.5216
13941TIP3   OH263313   6.728   4.899   0.849  0.4900  0.2497 -0.9492
13941TIP3    H163314   6.693   4.871   0.933  0.4349  2.5768 -0.1180
13941TIP3    H263315   6.685   4.983   0.832 -1.1221 -1.0854 -4.3702
13942TIP3   OH263316   3.961   0.661   0.630 -0.4401  0.0119 -0.0495
13942TIP3    H163317   3.878   0.635   0.670 -0.1705 -0.2840  0.3342
13942TIP3    H263318   3.993   0.581   0.587 -0.1171 -0.0104  0.2289
13943TIP3   OH263319   4.661   4.787  16.294  0.5583 -0.3721 -0.6621
13943TIP3    H163320   4.740   4.812  16.245  0.8550 -1.1584 -0.6063
13943TIP3    H263321   4.664   4.841  16.373  2.0951 -1.7196  0.2683
13944TIP3   OH263322   5.286   0.599   3.766 -0.3380 -0.2036  0.0073
13944TIP3    H163323   5.283   0.523   3.824  0.8631 -0.3674 -0.1059
13944TIP3    H263324   5.313   0.563   3.681 -1.9439  0.0479 -0.6511
13945TIP3   OH263325   0.302   4.882  11.749  0.1292  0.0375  0.3672
13945TIP3    H163326   0.260   4.826  11.685 -0.2458  0.4712  0.2243
13945TIP3    H263327   0.229   4.920  11.799  0.4071 -0.1769  0.9502
13946TIP3   OH263328   6.402   5.180  12.908 -0.5119 -0.0103 -0.1480
13946TIP3    H163329   6.427   5.190  13.000  0.7442 -0.4115 -0.4169
13946TIP3    H263330   6.391   5.085  12.897  0.3527 -0.0660 -0.6380
13947TIP3   OH263331   6.062   1.302  14.727  0.1484 -0.7148 -0.5597
13947TIP3    H163332   5.998   1.373  14.719  0.2004 -0.3934  1.2748
13947TIP3    H263333   6.019   1.237  14.782  1.7867  0.1130  1.8838
13948TIP3   OH263334   2.979   1.150  15.304  0.0990  0.0733  0.8247
13948TIP3    H163335   3.025   1.122  15.225  0.4981  0.4862  0.9072
13948TIP3    H263336   2.902   1.094  15.308 -0.7852  1.0895 -0.7376
13949TIP3   OH263337   3.558   4.939   1.898  0.1800 -0.0964 -0.5905
13949TIP3    H163338   3.508   4.861   1.924  1.0901 -0.1797  1.0806
13949TIP3    H263339   3.629   4.905   1.843 -0.3810 -0.2178 -1.2592
13950TIP3   OH263340   0.948   5.688   1.202 -0.3075 -0.1502 -1.0378
13950TIP3    H163341   0.999   5.740   1.140  1.7646  1.4834  1.8025
13950TIP3    H263342   0.869   5.739   1.217  0.8948  1.4197  0.3649
13951TIP3   OH263343   4.018   5.265  13.057 -0.6746 -0.1616  0.0519
13951TIP3    H163344   4.094   5.301  13.012 -0.3920 -1.4779 -0.5954
13951TIP3    H263345   4.040   5.173  13.071 -2.6489 -0.9341 -1.3714
13952TIP3   OH263346   6.694   1.164   2.791  0.5275 -0.0100 -0.0658
13952TIP3    H163347   6.717   1.250   2.827 -0.5473  0.7565 -1.1535
13952TIP3    H263348   6.771   1.111   2.808  1.6741  1.4742 -0.3750
13953TIP3   OH263349   1.133   2.119   1.357 -0.4118  0.4175 -0.5970
13953TIP3    H163350   1.119   2.031   1.393  2.2550  0.1154 -0.1438
13953TIP3    H263351   1.120   2.178   1.431 -1.1281  0.3290 -0.6470
13954TIP3   OH263352   4.939   4.688   4.399  0.1226 -0.7509  0.2522
13954TIP3    H163353   4.873   4.643   4.347 -0.3055  0.5683 -0.3885
13954TIP3    H263354   5.010   4.624   4.409 -1.1317 -2.1256  0.7757
13955TIP3   OH263355   1.325   3.239  17.136  0.2791  0.2752  0.3302
13955TIP3    H163356   1.377   3.291  17.197  1.1839  0.2577 -0.4112
13955TIP3    H263357   1.339   3.148  17.165 -0.1262  0.3288  0.7166
13956TIP3   OH263358   4.790   3.815   1.356 -0.6980 -0.4540  0.3791
13956TIP3    H163359   4.714   3.869   1.332  0.2386  0.5413 -0.4081
13956TIP3    H263360   4.759   3.763   1.431 -2.2572 -0.3100 -0.1183
13957TIP3   OH263361   5.194   5.349  17.213 -0.0214 -0.5718 -0.0279
13957TIP3    H163362   5.255   5.295  17.164  5.2023  0.8626  3.9813
13957TIP3    H263363   5.193   5.312  17.301 -4.1003  0.4018  0.5706
13958TIP3   OH263364   3.317   5.037   1.720 -0.7489  0.0494 -0.2200
13958TIP3    H163365   3.349   4.960   1.767 -1.7034  0.9214  2.0256
13958TIP3    H263366   3.394   5.091   1.706 -0.3534 -0.5054 -0.2103
13959TIP3   OH263367   0.947   3.913  11.756 -0.9028 -0.4435 -0.2820
13959TIP3    H163368   0.898   3.832  11.741 -0.3981 -0.5782 -1.2640
13959TIP3    H263369   1.036   3.893  11.726 -0.7755  0.4772 -0.5442
13960TIP3   OH263370   3.557   4.278  14.837  0.9708  0.2518 -0.0612
13960TIP3    H163371   3.558   4.370  14.864 -0.0913  0.2471  0.0233
13960TIP3    H263372   3.480   4.270  14.781  2.0891 -0.1740 -1.6032
13961TIP3   OH263373   4.206   2.415  14.736 -0.1834  0.1081  0.2350
13961TIP3    H163374   4.218   2.376  14.649 -1.0764 -1.5648  0.8305
13961TIP3    H263375   4.114   2.441  14.738 -0.1306  0.2715  0.6456
13962TIP3   OH263376   2.548   5.289  15.005  0.3399 -0.3549 -0.1179
13962TIP3    H163377   2.555   5.376  15.045 -1.6753 -0.3907  0.4174
13962TIP3    H263378   2.531   5.231  15.079 -0.9951 -0.7901 -0.7338
13963TIP3   OH263379   4.621   1.372  16.789 -0.1989 -0.2371 -0.0563
13963TIP3    H163380   4.708   1.341  16.817 -0.1531 -0.4355 -0.4075
13963TIP3    H263381   4.636   1.461  16.758  0.0702 -0.5987 -1.0257
13964TIP3   OH263382   0.464   4.327  12.911 -0.3434  0.8464  0.4151
13964TIP3    H163383   0.377   4.353  12.880  0.0663  1.4506 -0.2466
13964TIP3    H263384   0.515   4.314  12.831 -0.3367 -1.3798  0.7170
13965TIP3   OH263385   6.413   5.748   2.509 -0.4079  0.1825 -0.6653
13965TIP3    H163386   6.447   5.693   2.580  0.2470  1.2268 -0.1515
13965TIP3    H263387   6.358   5.812   2.553 -0.9509  0.1152 -1.2340
13966TIP3   OH263388   5.016   4.300  15.507  0.4416  0.3742  0.2692
13966TIP3    H163389   5.089   4.282  15.447 -0.0583  0.6871 -0.4589
13966TIP3    H263390   5.042   4.261  15.590  0.4099 -1.6368 -0.6064
13967TIP3   OH263391   0.049   2.061   0.288 -0.2720 -0.4633 -0.6252
13967TIP3    H163392   0.014   2.149   0.301  1.7925  0.0140  3.1510
13967TIP3    H263393   0.142   2.074   0.271  0.0295 -1.8997 -0.2165
13968TIP3   OH263394   6.291   2.830   1.518  0.3827 -0.0006  0.2980
13968TIP3    H163395   6.337   2.911   1.501  1.5507 -0.9235 -1.2201
13968TIP3    H263396   6.238   2.815   1.440 -0.6030 -0.2016  0.9860
13969TIP3   OH263397   3.956   4.528   4.102  0.1889 -0.4866 -0.3740
13969TIP3    H163398   3.987   4.618   4.115 -0.8024 -0.1822 -0.0288
13969TIP3    H263399   3.944   4.520   4.008  1.3210 -0.6259 -0.5232
13970TIP3   OH263400   0.218   0.687   0.749  0.4618  0.6447  0.5550
13970TIP3    H163401   0.136   0.667   0.704  0.3850 -0.2530  1.0796
13970TIP3    H263402   0.278   0.713   0.678  0.1520 -0.1077  0.0080
13971TIP3   OH263403   3.561   3.801   4.424 -0.4727 -0.2869  0.0140
13971TIP3    H163404   3.477   3.835   4.394  0.3221  1.3428 -0.4463
13971TIP3    H263405   3.607   3.876   4.461  0.8318 -1.1145  0.1721
13972TIP3   OH263406   3.309   2.742  13.106 -0.5054 -1.0109 -0.6637
13972TIP3    H163407   3.365   2.748  13.029 -0.7517 -0.3953 -0.8035
13972TIP3    H263408   3.364   2.769  13.179 -1.0298  1.1184 -1.0105
13973TIP3   OH263409   1.304   5.117  16.942  0.2972 -0.3833 -0.3563
13973TIP3    H163410   1.221   5.145  16.903  0.3289 -1.2688 -1.1031
13973TIP3    H263411   1.287   5.027  16.971  0.2083  0.3256  1.9293
13974TIP3   OH263412   1.389   4.338   4.576  0.1415  0.2295 -0.8361
13974TIP3    H163413   1.325   4.318   4.508 -2.3033 -0.0302  1.3955
13974TIP3    H263414   1.343   4.322   4.659  2.7382  1.1624  0.9309
13975TIP3   OH263415   2.087   6.229  12.877  0.2352  0.3536  0.7697
13975TIP3    H163416   2.159   6.290  12.890  0.2726  0.0448  2.2557
13975TIP3    H263417   2.063   6.237  12.785 -0.4650  3.3632  1.1231
13976TIP3   OH263418   5.939   5.193   3.150 -0.1079  0.4970 -0.0617
13976TIP3    H163419   5.857   5.232   3.121 -0.1326  0.8983  0.5360
13976TIP3    H263420   6.003   5.264   3.145 -0.3231  0.8851  1.8064
13977TIP3   OH263421   3.067   1.780  12.189 -0.3362 -0.4351 -0.3472
13977TIP3    H163422   3.132   1.849  12.171 -1.6955  1.5222  1.6949
13977TIP3    H263423   2.983   1.824  12.182 -1.2261 -1.5823  1.9716
13978TIP3   OH263424   0.513   0.532   5.388 -0.0359  0.5696 -0.4608
13978TIP3    H163425   0.499   0.593   5.461 -0.6645  0.2811 -0.3429
13978TIP3    H263426   0.435   0.540   5.334 -0.0635 -0.0331 -0.5174
13979TIP3   OH263427   1.978   1.146  15.326  0.1634 -0.4476 -0.1971
13979TIP3    H163428   2.040   1.155  15.254  0.1251  1.0094 -0.0857
13979TIP3    H263429   1.928   1.067  15.305 -0.5101  0.4390 -2.3090
13980TIP3   OH263430   6.715   0.239   1.483  0.2105 -0.2328  0.3530
13980TIP3    H163431   6.736   0.173   1.549 -0.0817  0.5908  1.3039
13980TIP3    H263432   6.783   0.305   1.493 -0.1516  0.1661  0.2169
13981TIP3   OH263433   1.378   3.443   6.199 -0.0766 -0.2424  0.0752
13981TIP3    H163434   1.378   3.418   6.291  0.7030  0.4593  0.2797
13981TIP3    H263435   1.303   3.502   6.190 -1.2973 -1.7719 -0.1829
13982TIP3   OH263436   0.474   6.499  13.480  0.1971 -0.0827  0.2985
13982TIP3    H163437   0.563   6.486  13.448  0.8253 -0.4002  2.0470
13982TIP3    H263438   0.463   6.594  13.482  1.1227  0.0292  1.5717
13983TIP3   OH263439   5.035   4.444   2.231 -0.0184 -0.5263 -0.1105
13983TIP3    H163440   5.107   4.500   2.200  0.3078 -1.5321 -1.2144
13983TIP3    H263441   4.970   4.448   2.161 -1.8515  1.6918  1.5738
13984TIP3   OH263442   0.993   0.075   3.443  0.0037  0.6529 -0.4276
13984TIP3    H163443   0.998   0.170   3.457  0.9062  0.4850  0.4902
13984TIP3    H263444   1.054   0.058   3.372  3.5667  0.2286  2.4561
13985TIP3   OH263445   0.542   1.695  16.191 -0.0845 -0.2240 -0.7412
13985TIP3    H163446   0.566   1.690  16.098  0.1609  0.2296 -0.7018
13985TIP3    H263447   0.618   1.660  16.237 -0.6295 -1.4990 -0.7513
13986TIP3   OH263448   0.761   3.725  13.367  0.2540 -0.6023 -0.1671
13986TIP3    H163449   0.826   3.795  13.375 -1.2124  0.8557 -0.4924
13986TIP3    H263450   0.693   3.748  13.429 -0.4302 -1.5666 -0.5280
13987TIP3   OH263451   1.770   3.530   0.001  0.6289  0.5960  0.0935
13987TIP3    H163452   1.739   3.506  -0.086  1.1951  0.5173 -0.0888
13987TIP3    H263453   1.786   3.446   0.044 -0.4374  0.6188  0.5669
13988TIP3   OH263454   6.247   6.208   3.433  0.1521 -0.3324 -0.0152
13988TIP3    H163455   6.261   6.254   3.516  0.5949  1.7265 -1.1534
13988TIP3    H263456   6.320   6.236   3.378  3.2229 -5.9715  0.4732
13989TIP3   OH263457   1.664   5.884  13.740  0.0409 -0.3937 -0.0283
13989TIP3    H163458   1.660   5.871  13.645 -1.2533  2.3027 -0.4235
13989TIP3    H263459   1.575   5.905  13.766  0.6540  0.4280  1.5372
13990TIP3   OH263460   4.246   6.644   1.954  0.1036 -0.3115  0.2583
13990TIP3    H163461   4.226   6.726   1.999 -3.3942 -0.6521 -0.3714
13990TIP3    H263462   4.254   6.580   2.024  3.1281  0.5055  0.7743
13991TIP3   OH263463   2.728   6.168  12.245  0.1938  0.2575 -0.5010
13991TIP3    H163464   2.711   6.169  12.340 -0.1341  0.1944 -0.5596
13991TIP3    H263465   2.675   6.239  12.210 -2.9459 -2.2231 -1.1801
13992TIP3   OH263466   6.712   4.545  14.991  0.1820 -0.6672 -0.0209
13992TIP3    H163467   6.752   4.537  14.905 -0.2687 -2.0336 -0.1168
13992TIP3    H263468   6.724   4.460  15.032 -0.9152 -0.5034  0.6911
13993TIP3   OH263469   4.076   6.633   3.569  0.6605 -0.1517  0.1560
13993TIP3    H163470   4.114   6.721   3.560  1.5690 -0.5941 -0.4670
13993TIP3    H263471   4.151   6.574   3.559  0.1779 -0.9902  1.2849
13994TIP3   OH263472   6.007   6.272   3.218 -0.0464  0.3385 -0.4414
13994TIP3    H163473   6.088   6.222   3.232 -0.2056 -0.0542 -0.8828
13994TIP3    H263474   6.011   6.296   3.125 -0.5918  0.0325 -0.5462
13995TIP3   OH263475   6.630   3.109  12.230  0.0573 -0.0366 -0.2906
13995TIP3    H163476   6.595   3.056  12.302 -0.1191  0.0443 -0.3162
13995TIP3    H263477   6.724   3.089  12.230  0.2284  0.7101  0.5992
13996TIP3   OH263478   6.727   6.655  16.670  0.1720  0.2173  0.6820
13996TIP3    H163479   6.808   6.700  16.646  2.5857 -3.1399  1.8681
13996TIP3    H263480   6.680   6.646  16.588  2.6246 -0.6609 -0.7272
13997TIP3   OH263481   5.861   4.166   5.551  0.6971  0.8186  0.1757
13997TIP3    H163482   5.884   4.073   5.564  1.8380  1.3005  2.0538
13997TIP3    H263483   5.767   4.170   5.566  0.4705 -0.1682 -0.8596
13998TIP3   OH263484   3.054   2.452   2.687  0.6949  0.2571 -0.3561
13998TIP3    H163485   2.999   2.488   2.756  0.1762 -1.0012 -0.0869
13998TIP3    H263486   2.992   2.415   2.623  1.1341  1.9951 -1.8595
13999TIP3   OH263487   3.524   0.515  12.712 -0.4501  0.0286 -0.1043
13999TIP3    H163488   3.594   0.481  12.767 -0.6452  0.2130  0.2666
13999TIP3    H263489   3.501   0.443  12.654 -2.0504 -1.1064  1.8255
14000TIP3   OH263490   1.366   3.648   3.258 -0.3715  0.3430  0.0287
14000TIP3    H163491   1.448   3.689   3.231  0.3614 -0.4008  1.0325
14000TIP3    H263492   1.345   3.587   3.187  1.0924 -0.9959  0.6717
14001TIP3   OH263493   0.600   2.731   5.067 -0.7437 -0.4936 -0.3846
14001TIP3    H163494   0.570   2.822   5.073  3.1947  1.1830 -2.3215
14001TIP3    H263495   0.651   2.717   5.146 -0.7653 -0.7767 -0.4184
14002TIP3   OH263496   1.357   1.362   0.038 -0.1159  0.1705 -0.3821
14002TIP3    H163497   1.402   1.279   0.053 -0.2217  0.2390  0.3345
14002TIP3    H263498   1.424   1.429   0.051 -0.0788  0.2087 -0.7608
14003TIP3   OH263499   6.289   5.420  13.974  0.1325  0.1443 -0.2306
14003TIP3    H163500   6.253   5.487  13.915  0.4835 -0.1264 -0.7559
14003TIP3    H263501   6.218   5.357  13.984  0.3205 -0.2006 -0.9780
14004TIP3   OH263502   0.077   1.836   5.091  0.1715  0.2752  0.3750
14004TIP3    H163503   0.076   1.866   5.182  0.4530 -0.3055  0.5720
14004TIP3    H263504   0.102   1.744   5.096 -0.8525 -0.0457 -0.2108
14005TIP3   OH263505   2.572   3.536   0.330  0.3046 -0.4000 -0.8218
14005TIP3    H163506   2.513   3.597   0.376 -1.0982 -1.4800 -1.0936
14005TIP3    H263507   2.524   3.512   0.251  0.2758 -2.6694 -0.2060
14006TIP3   OH263508   2.328   0.474  11.205  0.7753  0.2297  0.3570
14006TIP3    H163509   2.363   0.399  11.157  0.3727 -0.7596  1.5604
14006TIP3    H263510   2.242   0.489  11.166 -0.0135 -1.2595  1.4160
14007TIP3   OH263511   4.924   2.693   6.016 -0.7066 -0.1591 -0.2994
14007TIP3    H163512   4.900   2.711   6.107 -1.3464 -0.9589 -0.2893
14007TIP3    H263513   4.906   2.774   5.969 -0.4219  0.2412  0.2796
14008TIP3   OH263514   1.548   2.039   3.194 -0.7290  0.1313  0.5138
14008TIP3    H163515   1.491   2.113   3.173 -2.4921 -1.2257  0.2166
14008TIP3    H263516   1.548   1.985   3.115  0.7493 -0.0767  0.6267
14009TIP3   OH263517   0.415   6.311   3.017  0.6162 -0.3129  0.4317
14009TIP3    H163518   0.426   6.219   2.995  0.9119 -0.6455  1.8734
14009TIP3    H263519   0.343   6.340   2.962  0.4487 -1.4308  0.0315
14010TIP3   OH263520   2.917   3.768  13.903  0.0765 -0.2022  0.7963
14010TIP3    H163521   2.964   3.788  13.985 -0.8163 -0.7104  1.4509
14010TIP3    H263522   2.919   3.850  13.854  0.2018  0.2551  1.5442
14011TIP3   OH263523   0.338   4.455   3.427  0.6011 -0.0201  0.1742
14011TIP3    H163524   0.287   4.508   3.366  2.5414  0.5815 -1.0008
14011TIP3    H263525   0.399   4.517   3.468  1.5655 -0.9883  0.2540
14012TIP3   OH263526   2.250   2.239   2.712 -0.0610 -0.0904  0.3228
14012TIP3    H163527   2.295   2.320   2.688 -0.5207  0.5063  1.3933
14012TIP3    H263528   2.168   2.242   2.662 -1.1475  1.2888  2.0254
14013TIP3   OH263529   0.284   3.856  11.652 -0.3006 -0.0509  0.0709
14013TIP3    H163530   0.318   3.787  11.708  1.4595 -0.5600 -1.5286
14013TIP3    H263531   0.196   3.874  11.685  0.5204 -0.5719  2.7180
14014TIP3   OH263532   5.692   0.140  15.785 -0.6901 -0.1581  0.9382
14014TIP3    H163533   5.763   0.076  15.781  0.0396  0.6454  0.5019
14014TIP3    H263534   5.703   0.193  15.706 -2.0057 -0.2378  0.6757
14015TIP3   OH263535   0.244   6.753  13.322 -0.4341 -0.0039  0.1769
14015TIP3    H163536   0.241   6.802  13.404 -0.6243 -0.2225  0.3045
14015TIP3    H263537   0.190   6.676  13.339 -0.4540 -0.0619 -0.1462
14016TIP3   OH263538   6.083   4.252  11.742 -0.2317 -0.5861 -0.0918
14016TIP3    H163539   6.102   4.167  11.782 -0.1335 -0.9160 -0.8304
14016TIP3    H263540   6.169   4.288  11.720 -0.3236 -1.0652 -1.3338
14017TIP3   OH263541   1.828   3.132  15.844  0.6937  0.4541  0.2481
14017TIP3    H163542   1.855   3.073  15.914  0.5776  0.6593  0.4657
14017TIP3    H263543   1.878   3.212  15.859  1.4343  0.1476 -0.5013
14018TIP3   OH263544   6.619   0.671  14.303  0.3436 -0.5614 -0.3888
14018TIP3    H163545   6.540   0.634  14.265 -0.2845 -0.4704  0.7737
14018TIP3    H263546   6.675   0.596  14.320 -0.6118 -0.9603  1.2478
14019TIP3   OH263547   0.350   4.310   5.280  0.0092  0.1562  0.0474
14019TIP3    H163548   0.414   4.366   5.236  0.0902 -1.0545 -1.4416
14019TIP3    H263549   0.297   4.274   5.209 -0.8424 -0.6786  1.0786
14020TIP3   OH263550   2.225   0.406   1.872  0.4049 -0.0411 -0.4276
14020TIP3    H163551   2.219   0.374   1.962 -1.2021 -1.6276 -1.0308
14020TIP3    H263552   2.206   0.500   1.879 -2.1186 -0.5409  0.6916
14021TIP3   OH263553   2.689   1.338  17.400 -0.3229  0.6405  0.6079
14021TIP3    H163554   2.740   1.417  17.383  1.9860 -0.4209  1.9873
14021TIP3    H263555   2.688   1.291  17.316  1.1368  0.6512  0.5581
14022TIP3   OH263556   0.079   4.644  14.016 -0.1448 -0.2063  0.0967
14022TIP3    H163557   0.127   4.725  13.995  0.6080 -1.0529 -1.6275
14022TIP3    H263558   0.020   4.631  13.942 -0.2409 -1.2657  0.3424
14023TIP3   OH263559   0.184   0.640   3.452 -0.3472  0.1333  0.0930
14023TIP3    H163560   0.183   0.684   3.538 -0.6019 -0.6447  0.4995
14023TIP3    H263561   0.242   0.565   3.465  0.4289  0.5829 -0.7193
14024TIP3   OH263562   5.867   0.515   0.909  0.2325  0.2466 -0.6975
14024TIP3    H163563   5.870   0.587   0.973  0.0991 -0.3513 -0.0058
14024TIP3    H263564   5.861   0.436   0.963 -0.6803 -0.2214 -1.4677
14025TIP3   OH263565   4.447   2.927  10.376 -0.2467 -0.3924 -0.1659
14025TIP3    H163566   4.408   2.840  10.378  1.7593 -1.3440  0.4631
14025TIP3    H263567   4.467   2.947  10.467  1.0220 -0.1195 -0.4789
14026TIP3   OH263568   6.681   4.481   2.910 -0.1414 -0.0352 -0.4195
14026TIP3    H163569   6.633   4.447   2.834 -2.1987 -0.3867  0.9499
14026TIP3    H263570   6.757   4.424   2.918 -0.2036 -0.3514 -1.8613
14027TIP3   OH263571   4.754   5.196  15.958 -0.1013  0.0541 -1.1887
14027TIP3    H163572   4.812   5.129  15.922  0.6191 -0.0348  0.0953
14027TIP3    H263573   4.771   5.274  15.905 -0.0060 -0.4181 -1.8646
14028TIP3   OH263574   2.971   4.639   2.814 -0.0399  0.8882 -0.0345
14028TIP3    H163575   3.041   4.701   2.795 -0.2210  1.0645 -0.1302
14028TIP3    H263576   3.008   4.581   2.881  0.5316  0.3691 -0.7914
14029TIP3   OH263577   3.196   0.234   5.693  0.1487 -0.6345 -0.2674
14029TIP3    H163578   3.209   0.160   5.752 -2.2517 -2.5810 -1.9959
14029TIP3    H263579   3.103   0.233   5.672  0.4621  1.4350 -2.2461
14030TIP3   OH263580   5.246   5.593   0.663 -0.0930  0.0259 -0.3716
14030TIP3    H163581   5.154   5.571   0.648 -0.8662 -0.1197  3.5730
14030TIP3    H263582   5.247   5.689   0.665 -0.1931  0.0275 -0.3580
14031TIP3   OH263583   6.716   4.868   5.167 -0.0277 -0.1933 -0.5094
14031TIP3    H163584   6.750   4.778   5.169  0.2656 -0.0937 -1.0190
14031TIP3    H263585   6.791   4.921   5.141 -0.7575 -0.0716 -2.5060
14032TIP3   OH263586   1.960   6.696   5.835 -0.1370  0.1188 -0.9567
14032TIP3    H163587   1.973   6.725   5.926  0.0370  1.9280 -1.5120
14032TIP3    H263588   2.020   6.752   5.785 -2.1132  0.9946 -2.4477
14033TIP3   OH263589   1.278   5.069  10.841 -0.5062 -0.0922  0.4048
14033TIP3    H163590   1.301   5.157  10.871  2.0913 -0.2760 -0.8393
14033TIP3    H263591   1.206   5.084  10.779 -0.1040  1.1508  0.2106
14034TIP3   OH263592   6.395   5.391   0.101  0.4144  0.2540  0.1462
14034TIP3    H163593   6.405   5.465   0.161  0.9778  0.0893  0.2589
14034TIP3    H263594   6.483   5.357   0.089  0.3031  0.2607 -0.7556
14035TIP3   OH263595   6.469   2.419  14.522 -0.1171 -0.2446 -0.1215
14035TIP3    H163596   6.415   2.416  14.600 -0.6503  0.2324 -0.4656
14035TIP3    H263597   6.422   2.365  14.458 -1.1354  1.5838 -0.9946
14036TIP3   OH263598   4.748   1.396  12.503 -0.2147 -0.3467  0.8437
14036TIP3    H163599   4.829   1.412  12.454 -1.3951  0.9523 -0.8371
14036TIP3    H263600   4.757   1.450  12.582  0.3644  0.2022  0.4207
14037TIP3   OH263601   1.526   2.243  11.259  0.2593  0.4191 -0.0956
14037TIP3    H163602   1.580   2.299  11.315  0.1757 -1.1424  1.6185
14037TIP3    H263603   1.475   2.190  11.320 -0.5641 -0.6710 -1.6707
14038TIP3   OH263604   2.165   1.359  14.583  0.0223 -0.3770  0.3734
14038TIP3    H163605   2.148   1.443  14.625 -0.8717 -0.7143  0.7059
14038TIP3    H263606   2.078   1.326  14.559  0.4775 -0.2459 -1.6361
14039TIP3   OH263607   0.065   4.493   6.719 -0.2464 -0.2902 -0.2860
14039TIP3    H163608   0.146   4.456   6.755 -1.6114 -2.2364  0.9574
14039TIP3    H263609   0.094   4.542   6.641  2.0749 -1.1329 -0.0417
14040TIP3   OH263610   3.717   1.026   2.378 -0.0377  0.1934  0.5177
14040TIP3    H163611   3.792   0.975   2.347  0.5435  0.9767  0.6044
14040TIP3    H263612   3.713   1.008   2.472  2.7924  3.4443  1.4755
14041TIP3   OH263613   0.178   5.078   1.402  0.3395 -0.0199  0.2524
14041TIP3    H163614   0.138   5.138   1.339 -0.1855  0.4361  1.0030
14041TIP3    H263615   0.184   5.129   1.483  1.7346 -0.3478  0.3641
14042TIP3   OH263616   3.848   6.518  13.629 -0.2362  0.2436 -0.5595
14042TIP3    H163617   3.753   6.530  13.625 -0.0738  2.4848  0.8791
14042TIP3    H263618   3.863   6.476  13.714  0.1778  1.7597  0.1386
14043TIP3   OH263619   0.872   2.678   5.393 -0.4431 -0.1730  0.2617
14043TIP3    H163620   0.777   2.675   5.410 -0.1633 -1.3535  1.7612
14043TIP3    H263621   0.881   2.640   5.305 -1.2789 -0.9517  0.4932
14044TIP3   OH263622   2.941   2.632  16.442  0.2910  0.2050  0.6066
14044TIP3    H163623   2.967   2.561  16.501 -1.2897 -1.9309 -1.0826
14044TIP3    H263624   2.870   2.676  16.487 -0.2026 -0.7324  0.7762
14045TIP3   OH263625   1.431   6.684   5.674 -0.6529 -0.1299 -0.3886
14045TIP3    H163626   1.384   6.613   5.718 -0.5532  0.4618  0.6990
14045TIP3    H263627   1.520   6.679   5.710 -1.3073  2.2318  1.8211
14046TIP3   OH263628   2.366   6.243  13.821  0.1879 -0.3956  0.0700
14046TIP3    H163629   2.311   6.302  13.872 -0.4668 -1.6461  0.8756
14046TIP3    H263630   2.420   6.300  13.767  0.0896  0.9409  1.3373
14047TIP3   OH263631   2.687   6.225  16.417 -0.4727 -0.3234  0.1042
14047TIP3    H163632   2.763   6.275  16.446 -1.5488  1.0409  0.7084
14047TIP3    H263633   2.724   6.154  16.365  1.3421 -1.0529  2.2514
14048TIP3   OH263634   3.667   0.932  11.959  0.4544 -0.2794 -0.6428
14048TIP3    H163635   3.608   0.949  12.032 -0.3744 -0.3830 -1.2742
14048TIP3    H263636   3.662   1.011  11.905  0.2936 -0.5914 -1.0961
14049TIP3   OH263637   0.798   0.745  11.971  0.3682 -0.1423 -0.3846
14049TIP3    H163638   0.780   0.800  11.895  0.5030  1.0665  0.4249
14049TIP3    H263639   0.863   0.794  12.021 -1.0737  0.0191  1.4397
14050TIP3   OH263640   4.392   0.492  11.114 -0.0466 -0.2231 -0.1234
14050TIP3    H163641   4.339   0.421  11.150  1.8602 -1.3025  0.6992
14050TIP3    H263642   4.378   0.487  11.020 -1.3944 -0.4489  0.0684
14051TIP3   OH263643   5.491   5.121   0.943 -0.2450 -0.1558  0.2688
14051TIP3    H163644   5.573   5.077   0.962 -0.1386  0.4303  1.2176
14051TIP3    H263645   5.493   5.136   0.848  1.0660  0.4807  0.3708
14052TIP3   OH263646   6.386   0.441   0.897 -0.0986  0.6782  0.1382
14052TIP3    H163647   6.387   0.527   0.939  1.7506  0.1027  1.3986
14052TIP3    H263648   6.326   0.451   0.823  1.3894  3.5836 -0.8358
14053TIP3   OH263649   2.214   1.326   2.330 -0.6303  0.1188  0.9284
14053TIP3    H163650   2.151   1.364   2.391 -1.4554 -0.5283  0.5175
14053TIP3    H263651   2.292   1.310   2.382 -0.5006  1.6899  1.2701
14054TIP3   OH263652   2.313   3.210  17.151  0.4877  0.2584  0.2325
14054TIP3    H163653   2.373   3.285  17.147 -0.1872  0.8421  0.7983
14054TIP3    H263654   2.269   3.219  17.235  0.0217 -0.4920  0.0801
14055TIP3   OH263655   6.555   0.633   3.335  0.2229 -0.0428  0.2933
14055TIP3    H163656   6.571   0.579   3.412 -0.7788  1.7847  1.8462
14055TIP3    H263657   6.606   0.713   3.350  1.0621 -0.1735 -1.5865
14056TIP3   OH263658   4.615   5.614  16.149 -0.0490  0.0525  0.0414
14056TIP3    H163659   4.635   5.598  16.242  2.1421 -0.3289 -0.4265
14056TIP3    H263660   4.696   5.652  16.114 -1.2501  1.3347 -1.4663
14057TIP3   OH263661   3.915   3.366   4.365  0.0832 -0.3701  0.8457
14057TIP3    H163662   3.896   3.300   4.432 -2.3805 -0.3322  0.2899
14057TIP3    H263663   3.959   3.436   4.413  2.8775 -2.3666  1.4150
14058TIP3   OH263664   3.652   5.381  12.140 -0.2826 -0.3591  0.0305
14058TIP3    H163665   3.673   5.289  12.156  0.3361 -0.1775  0.2829
14058TIP3    H263666   3.623   5.414  12.225  2.5395  0.4787  0.7692
14059TIP3   OH263667   3.327   2.206  15.736  0.6928  0.0078 -0.3818
14059TIP3    H163668   3.342   2.288  15.783 -1.0679  0.2333 -0.1216
14059TIP3    H263669   3.355   2.138  15.798 -0.2326  0.3581  0.4657
14060TIP3   OH263670   3.185   6.182   4.080 -0.1949 -0.3511 -0.4836
14060TIP3    H163671   3.142   6.152   4.160 -0.5610 -0.4447 -0.7152
14060TIP3    H263672   3.127   6.249   4.045 -0.3189 -0.7074 -0.9689
14061TIP3   OH263673   0.629   1.276  11.718  0.5722  0.1413 -0.5576
14061TIP3    H163674   0.581   1.359  11.714 -0.3860 -0.3376  0.6573
14061TIP3    H263675   0.566   1.213  11.752  1.7363 -0.7552 -0.0124
14062TIP3   OH263676   6.260   1.492   5.248 -0.4758  0.0339  0.5874
14062TIP3    H163677   6.256   1.484   5.343 -1.0540 -0.9245  0.4878
14062TIP3    H263678   6.179   1.538   5.225  1.0281  3.0681  0.7944
14063TIP3   OH263679   6.343   4.704   1.924  0.1448 -0.5474  0.1358
14063TIP3    H163680   6.256   4.743   1.915  1.1028  1.5835 -0.6595
14063TIP3    H263681   6.330   4.610   1.911 -1.9554 -0.2141 -0.3984
14064TIP3   OH263682   3.971   6.441  16.365 -0.3890  0.0842 -0.2966
14064TIP3    H163683   3.946   6.355  16.331 -0.4143  0.0210 -0.1212
14064TIP3    H263684   4.060   6.427  16.399 -0.4739  0.0745 -0.0779
14065TIP3   OH263685   0.382   5.163   3.132 -0.2375 -0.4854  0.1790
14065TIP3    H163686   0.354   5.072   3.132  1.4870 -1.0489  0.4433
14065TIP3    H263687   0.477   5.159   3.131 -0.1094  1.3243 -1.5561
14066TIP3   OH263688   4.225   0.668  11.381  0.0299  0.1690  0.5683
14066TIP3    H163689   4.167   0.744  11.386  1.2871  1.2405 -0.4438
14066TIP3    H263690   4.275   0.681  11.301  0.2519 -1.7672  0.3486
14067TIP3   OH263691   5.522   3.050   5.873 -0.7058  0.0588  0.2696
14067TIP3    H163692   5.610   3.034   5.838 -1.2727  0.6850 -1.5783
14067TIP3    H263693   5.476   2.967   5.859 -0.5703 -0.0816  0.6742
14068TIP3   OH263694   5.364   1.249   3.703  0.2050  0.4262  0.5157
14068TIP3    H163695   5.271   1.226   3.700  0.6725 -1.5707 -0.2779
14068TIP3    H263696   5.365   1.341   3.727 -1.9235  0.1440  1.9612
14069TIP3   OH263697   6.575   4.572  12.463  0.2719  0.0957 -0.4710
14069TIP3    H163698   6.480   4.577  12.463  0.2850  0.3890 -0.6485
14069TIP3    H263699   6.598   4.554  12.554  0.1047  1.4556 -0.1294
14070TIP3   OH263700   1.968   2.217  16.860  0.0261  0.1964  0.2306
14070TIP3    H163701   1.951   2.150  16.926 -0.9788  0.6293  0.4433
14070TIP3    H263702   2.055   2.251  16.882 -0.2146  0.2077  1.2347
14071TIP3   OH263703   0.959   0.240   5.536 -0.2104 -0.0012 -0.2971
14071TIP3    H163704   0.898   0.258   5.608 -0.3251 -2.1399  0.2269
14071TIP3    H263705   1.032   0.299   5.551  0.8271 -1.8296  2.9916
14072TIP3   OH263706   5.548   2.415  13.462  0.1733 -0.3711  0.3425
14072TIP3    H163707   5.561   2.335  13.512 -0.1014 -0.3334  0.4728
14072TIP3    H263708   5.526   2.386  13.374  0.2821 -0.4363  0.3359
14073TIP3   OH263709   6.614   3.381  16.567  0.3923  0.4208  0.3269
14073TIP3    H163710   6.699   3.412  16.597  0.2901  0.3612  0.6750
14073TIP3    H263711   6.624   3.371  16.472  0.2742  2.0385  0.1131
14074TIP3   OH263712   5.197   6.022  16.146  0.4139 -0.7269  1.3478
14074TIP3    H163713   5.254   6.027  16.069 -2.6281 -0.9099 -1.1105
14074TIP3    H263714   5.252   5.983  16.214  3.8060  1.1276 -0.1030
14075TIP3   OH263715   6.095   6.301  14.239 -0.1682 -0.0554  0.5099
14075TIP3    H163716   6.061   6.297  14.150 -1.5388  0.6378  0.9820
14075TIP3    H263717   6.166   6.365  14.235 -0.4228  0.1953 -0.0240
14076TIP3   OH263718   5.560   2.676   4.844  0.1081 -0.2176  0.3587
14076TIP3    H163719   5.618   2.716   4.779  1.1866 -1.4927  0.4748
14076TIP3    H263720   5.507   2.748   4.877  0.4849  0.6954 -0.9586
14077TIP3   OH263721   1.823   1.113  12.835 -0.0651 -0.1828 -0.1773
14077TIP3    H163722   1.747   1.107  12.777  0.1844  1.5136 -0.7308
14077TIP3    H263723   1.815   1.200  12.875  0.9673 -0.4520  0.6454
14078TIP3   OH263724   5.426   5.204  12.183 -0.0145  0.6499  0.6111
14078TIP3    H163725   5.448   5.193  12.091 -1.8049 -0.7976  0.2962
14078TIP3    H263726   5.492   5.153  12.230  0.7367  1.1595  0.1281
14079TIP3   OH263727   5.187   1.755   1.273  0.0040  0.0753  0.2775
14079TIP3    H163728   5.208   1.833   1.323  1.8863 -0.8088  0.9351
14079TIP3    H263729   5.138   1.700   1.334  1.3097 -0.5185  0.8134
14080TIP3   OH263730   0.239   6.031   0.968 -0.3652 -0.4127 -0.7995
14080TIP3    H163731   0.185   5.952   0.969  1.9396 -2.1151  0.5950
14080TIP3    H263732   0.202   6.085   0.899 -2.6498 -2.2602 -1.1466
14081TIP3   OH263733   0.977   1.224   4.917 -0.1286 -0.0802  0.2681
14081TIP3    H163734   1.069   1.229   4.944 -0.3885 -3.1615  2.2462
14081TIP3    H263735   0.928   1.253   4.993 -0.8577  1.6223 -0.8083
14082TIP3   OH263736   2.887   6.175   6.194 -0.5253  0.1025  0.0484
14082TIP3    H163737   2.860   6.267   6.190  2.4217  1.1484  1.3786
14082TIP3    H263738   2.953   6.166   6.125  0.9438 -0.3090  1.4525
14083TIP3   OH263739   1.944   4.591   3.661 -0.0808  0.4783 -0.2470
14083TIP3    H163740   1.871   4.562   3.607  0.6588 -0.7180 -0.6354
14083TIP3    H263741   1.983   4.664   3.612 -0.0399  0.0714 -0.8243
14084TIP3   OH263742   2.963   4.870  11.599 -0.4622  0.3054 -0.0154
14084TIP3    H163743   2.901   4.799  11.616 -1.0229  0.9068  0.4674
14084TIP3    H263744   3.009   4.882  11.682  0.2968 -0.1156 -0.3615
14085TIP3   OH263745   2.629   5.793   0.822 -0.0311  0.2610 -0.5481
14085TIP3    H163746   2.607   5.701   0.806  1.3073 -0.0896 -0.5417
14085TIP3    H263747   2.595   5.811   0.910 -0.2294 -0.2521 -0.5168
14086TIP3   OH263748   0.164   3.958   3.935 -0.0292 -0.3013 -0.7954
14086TIP3    H163749   0.189   3.866   3.942  2.1252  0.3274  0.4126
14086TIP3    H263750   0.201   3.986   3.851 -1.4631 -0.7005 -1.6074
14087TIP3   OH263751   4.525   2.417   5.219  0.5366 -0.9324  0.1161
14087TIP3    H163752   4.584   2.405   5.144 -0.2246 -3.0470 -0.1986
14087TIP3    H263753   4.549   2.347   5.279 -0.4337 -0.6936  0.8009
14088TIP3   OH263754   1.167   3.207   4.103  0.3000  0.2934  0.1398
14088TIP3    H163755   1.106   3.135   4.085 -0.9005  1.4198 -0.4223
14088TIP3    H263756   1.180   3.204   4.198 -2.1262  1.1634  0.5551
14089TIP3   OH263757   6.246   4.160   5.419 -0.1988  0.0616 -0.2316
14089TIP3    H163758   6.270   4.251   5.432 -2.0330  0.5944 -0.2920
14089TIP3    H263759   6.306   4.128   5.351  0.5598  1.1508 -0.0926
14090TIP3   OH263760   6.580   2.025   3.352  0.1719 -0.0653  0.3684
14090TIP3    H163761   6.544   1.949   3.306  0.4158 -0.8985  1.5046
14090TIP3    H263762   6.590   2.092   3.284  1.0769 -1.4331 -0.9250
14091TIP3   OH263763   0.181   5.253   5.262  0.6592  0.1492 -0.4560
14091TIP3    H163764   0.194   5.348   5.264  0.9524  0.0947  0.3667
14091TIP3    H263765   0.087   5.242   5.274  0.6973  0.3205  0.0261
14092TIP3   OH263766   6.058   4.357  12.036  0.0949 -0.1289 -0.0473
14092TIP3    H163767   6.039   4.319  11.950 -0.4591  0.6771 -0.2949
14092TIP3    H263768   6.026   4.447  12.029  0.4206  0.0596  0.8715
14093TIP3   OH263769   4.510   5.180  15.240 -0.0579 -0.2119 -0.5033
14093TIP3    H163770   4.534   5.114  15.175  0.3322 -0.2844 -0.2904
14093TIP3    H263771   4.567   5.161  15.315 -0.9477 -0.5307  0.1003
14094TIP3   OH263772   4.005   2.741   0.805  0.4940  0.2260 -0.3517
14094TIP3    H163773   3.968   2.656   0.826  0.5424  0.5699  1.2850
14094TIP3    H263774   3.953   2.803   0.856 -0.0607  1.2778 -2.1357
14095TIP3   OH263775   2.687   2.367   0.739 -0.2825  0.1282  0.2247
14095TIP3    H163776   2.697   2.351   0.833  0.5337  1.0055  0.3050
14095TIP3    H263777   2.593   2.358   0.722 -0.4953  0.4149  1.2087
14096TIP3   OH263778   2.730   6.684   0.981 -0.1440  0.0916 -0.7846
14096TIP3    H163779   2.774   6.601   0.959  0.8971  0.0438  1.2949
14096TIP3    H263780   2.777   6.717   1.056 -2.5965  0.9373  0.4906
14097TIP3   OH263781   4.830   0.896   0.998 -0.4679 -0.3098 -0.1216
14097TIP3    H163782   4.919   0.874   0.972 -0.2974  1.2786 -1.0259
14097TIP3    H263783   4.817   0.851   1.081  1.9891  1.1770  1.1850
14098TIP3   OH263784   0.393   0.986  15.999  0.1992 -0.3106  0.1481
14098TIP3    H163785   0.388   0.890  15.995  0.5050 -0.4862  2.5344
14098TIP3    H263786   0.474   1.004  16.046 -1.4041  0.9437  2.6867
14099TIP3   OH263787   1.490   5.397  13.543 -0.2080 -0.2572  0.1321
14099TIP3    H163788   1.488   5.457  13.617 -0.2002 -1.5015  1.1842
14099TIP3    H263789   1.465   5.450  13.467  0.2635  1.1590  0.9373
14100TIP3   OH263790   0.074   0.286   4.384  0.4883  0.1915  0.0274
14100TIP3    H163791   0.130   0.339   4.327 -0.9218  0.6297 -1.0004
14100TIP3    H263792   0.135   0.242   4.443  1.8681  1.0810 -0.6813
14101TIP3   OH263793   0.116   6.311  15.429  0.3393 -0.5401  0.1360
14101TIP3    H163794   0.029   6.304  15.389  0.9057 -1.2045 -1.0518
14101TIP3    H263795   0.125   6.230  15.480 -0.3021  0.2122  1.4863
14102TIP3   OH263796   5.561   0.020   1.978 -0.5658  0.0060  0.4222
14102TIP3    H163797   5.549  -0.001   2.071 -1.3889  0.9588  0.5484
14102TIP3    H263798   5.477   0.000   1.938  0.0250 -1.1492 -0.2857
14103TIP3   OH263799   0.977   2.617   4.443  0.5179  0.1640  0.3166
14103TIP3    H163800   1.020   2.646   4.524  0.9802  0.5254 -0.0552
14103TIP3    H263801   1.049   2.589   4.386  0.1600 -0.5672  0.2128
14104TIP3   OH263802   2.999   4.012  13.296 -0.2432 -0.1413 -0.3790
14104TIP3    H163803   2.930   4.012  13.362  0.5784  1.3014  0.5218
14104TIP3    H263804   2.987   3.929  13.250 -1.1072 -1.0113  1.2953
14105TIP3   OH263805   6.501   5.855   0.596 -0.6276 -0.1359  0.2375
14105TIP3    H163806   6.540   5.768   0.607 -0.9627 -0.1463  1.4990
14105TIP3    H263807   6.517   5.877   0.504  1.6543 -0.4638  0.5103
14106TIP3   OH263808   3.542   1.864  13.636 -0.2579 -0.3022  0.6136
14106TIP3    H163809   3.599   1.844  13.710  2.0172 -1.1843 -1.2557
14106TIP3    H263810   3.545   1.960  13.629  1.7206 -0.3769  0.0649
14107TIP3   OH263811   5.234   4.419  13.522 -0.0332 -0.1748 -0.7621
14107TIP3    H163812   5.264   4.368  13.446 -0.9008 -0.7577 -0.7188
14107TIP3    H263813   5.141   4.431  13.507 -0.2030 -0.2765  0.2053
14108TIP3   OH263814   1.102   1.338   4.492  0.2866  0.6828 -0.0046
14108TIP3    H163815   1.107   1.433   4.499 -0.5658  0.8254 -1.0153
14108TIP3    H263816   1.082   1.322   4.399 -2.0894 -0.3420  0.5962
14109TIP3   OH263817   4.774   1.145  13.307  0.5459  0.2682 -1.0067
14109TIP3    H163818   4.869   1.155  13.299  0.8748 -3.1641 -3.9614
14109TIP3    H263819   4.762   1.096  13.388  1.1020  1.8422  0.0680
14110TIP3   OH263820   2.808   3.434  16.438  0.2625 -0.1367 -0.0311
14110TIP3    H163821   2.868   3.499  16.474 -0.8236  0.5907  0.5091
14110TIP3    H263822   2.770   3.391  16.515 -0.6332  0.0902 -0.3373
14111TIP3   OH263823   3.825   5.607  12.649 -0.2300 -0.0136  0.1678
14111TIP3    H163824   3.812   5.548  12.575  0.3941  1.9016 -1.5745
14111TIP3    H263825   3.892   5.564  12.703  1.4079 -0.2259 -1.9051
14112TIP3   OH263826   0.728   5.061   2.620  0.2803  0.4274 -0.3692
14112TIP3    H163827   0.724   5.090   2.529  1.5057 -0.5539 -0.7640
14112TIP3    H263828   0.822   5.061   2.640  0.0026  1.1231  1.0658
14113TIP3   OH263829   4.188   0.254  11.502 -0.4461  0.9700 -0.0892
14113TIP3    H163830   4.214   0.225  11.589 -0.0097  2.4900  0.3261
14113TIP3    H263831   4.136   0.333  11.518 -1.6213  0.4543 -1.1458
14114TIP3   OH263832   2.571   0.234   3.305 -0.0131  0.3774 -0.3607
14114TIP3    H163833   2.599   0.143   3.299  0.3258  0.3791  0.9117
14114TIP3    H263834   2.604   0.275   3.225  0.7192 -0.3802 -0.4600
14115TIP3   OH263835   4.032   0.059  13.455  0.2261  0.3041 -0.5572
14115TIP3    H163836   3.989  -0.024  13.433  1.8231 -0.4868 -0.8430
14115TIP3    H263837   4.104   0.034  13.513  0.3654  1.5771 -0.1543
14116TIP3   OH263838   0.917   6.003  14.441 -0.1037 -0.1231  0.0559
14116TIP3    H163839   0.883   6.092  14.426  1.0750  0.3077 -0.1902
14116TIP3    H263840   0.929   5.998  14.536 -0.3358 -0.0759  0.0873
14117TIP3   OH263841   1.887   5.132   1.700  0.2763 -0.1942 -0.6817
14117TIP3    H163842   1.832   5.056   1.720  1.0315 -1.0834 -1.8393
14117TIP3    H263843   1.976   5.097   1.700  0.7322  0.9305 -0.1967
14118TIP3   OH263844   2.557   1.610   4.022  0.5363 -0.2931 -0.0826
14118TIP3    H163845   2.645   1.639   4.044  0.3365 -0.1600  0.5544
14118TIP3    H263846   2.503   1.688   4.029  0.6625  0.0478 -2.3064
14119TIP3   OH263847   0.159   5.935   2.486  0.5106 -0.4308  0.8762
14119TIP3    H163848   0.080   5.984   2.510 -0.0126 -0.8627  0.0869
14119TIP3    H263849   0.126   5.858   2.439  1.4347 -0.3419  0.0561
14120TIP3   OH263850   5.589   5.973   2.583  0.1775 -0.3875  0.2463
14120TIP3    H163851   5.599   5.898   2.525 -2.1602 -1.5277  1.1760
14120TIP3    H263852   5.588   5.934   2.671  2.7018  1.1905  1.0809
14121TIP3   OH263853   3.410   4.859   0.813 -0.0064  0.9666  0.3019
14121TIP3    H163854   3.384   4.794   0.747  0.8302  0.5068  0.4109
14121TIP3    H263855   3.327   4.892   0.848 -0.4779 -0.9320  1.1090
14122TIP3   OH263856   3.440   3.192   2.914 -0.1694  0.0538 -0.6047
14122TIP3    H163857   3.361   3.139   2.913  0.0682 -0.3210 -0.2601
14122TIP3    H263858   3.466   3.195   3.006  0.3200  0.0012 -0.7326
14123TIP3   OH263859   2.229   1.185  12.197  0.1169  0.2941 -0.0870
14123TIP3    H163860   2.142   1.208  12.228 -0.2515 -1.1905  0.0542
14123TIP3    H263861   2.285   1.257  12.226 -0.5926  0.0136  2.1934
14124TIP3   OH263862   3.246   0.172   0.793  0.4372 -0.1222 -0.0387
14124TIP3    H163863   3.185   0.146   0.862  0.7723 -1.5589 -0.2718
14124TIP3    H263864   3.204   0.249   0.753 -2.1571 -2.0586 -1.3355
14125TIP3   OH263865   6.646   3.618  16.831 -0.0427 -0.5530 -0.0647
14125TIP3    H163866   6.569   3.644  16.881  0.3938  0.2921  0.1870
14125TIP3    H263867   6.647   3.522  16.837 -0.4105 -0.5091  0.9380
14126TIP3   OH263868   0.580   5.629  11.337  0.1843 -0.0352 -0.1727
14126TIP3    H163869   0.675   5.625  11.341  0.3579  2.0793 -0.6475
14126TIP3    H263870   0.553   5.542  11.309  2.0545 -0.3576 -1.1420
14127TIP3   OH263871   3.465   4.718   2.124 -0.0181  0.1482  0.3483
14127TIP3    H163872   3.446   4.692   2.033  1.9534  0.1668 -0.1162
14127TIP3    H263873   3.557   4.742   2.123  0.3085 -0.7747  2.5968
14128TIP3   OH263874   6.145   4.764   2.387 -0.1824 -0.2003 -0.1531
14128TIP3    H163875   6.212   4.729   2.446 -0.7665  1.8883  1.9120
14128TIP3    H263876   6.063   4.751   2.435 -0.6699  1.6665 -0.4268
14129TIP3   OH263877   0.805   4.609   5.753 -0.2807  0.1087  0.0360
14129TIP3    H163878   0.790   4.522   5.716  0.2926  0.7133 -1.7273
14129TIP3    H263879   0.835   4.662   5.679  1.6127  1.2430  1.5049
14130TIP3   OH263880   6.423   6.337   5.981 -0.1430 -0.5597  0.5644
14130TIP3    H163881   6.420   6.364   6.072 -0.2718  1.2087  0.0667
14130TIP3    H263882   6.351   6.274   5.972  0.9332 -2.0925  2.0398
14131TIP3   OH263883   6.389   4.154  12.442 -0.6039 -0.8011  0.2930
14131TIP3    H163884   6.365   4.205  12.520  1.3332  1.7296 -0.6038
14131TIP3    H263885   6.485   4.159  12.439 -0.5732  2.4629 -4.0430
14132TIP3   OH263886   3.372   2.006  10.930  0.3807  0.0493  0.3120
14132TIP3    H163887   3.320   2.073  10.886  0.2594  0.8023  1.5359
14132TIP3    H263888   3.330   1.924  10.908  0.5919  0.3480 -1.3097
14133TIP3   OH263889   2.281   5.217   4.711  0.6257 -0.5273  0.1123
14133TIP3    H163890   2.374   5.226   4.690  1.3286 -2.0498  2.2448
14133TIP3    H263891   2.247   5.158   4.643  0.8767  0.9452 -1.3697
14134TIP3   OH263892   5.755   3.069  13.064  0.0510 -0.1217 -0.2991
14134TIP3    H163893   5.793   3.131  13.001  0.8582 -0.1064  0.1972
14134TIP3    H263894   5.681   3.031  13.017  0.5027  0.0543 -1.1866
14135TIP3   OH263895   4.748   3.381  14.733 -0.2107 -0.4894  0.2154
14135TIP3    H163896   4.665   3.371  14.779 -0.1116 -0.0205  0.5005
14135TIP3    H263897   4.775   3.291  14.713 -0.7481 -0.6474  0.1853
14136TIP3   OH263898   2.198   0.352  12.036 -0.3670 -0.2013 -0.3395
14136TIP3    H163899   2.230   0.437  12.068 -0.6147 -0.1595 -0.2065
14136TIP3    H263900   2.171   0.369  11.946  1.0860 -0.4966 -0.8574
14137TIP3   OH263901   1.093   3.704  14.258 -0.7855 -0.2496 -0.2944
14137TIP3    H163902   1.009   3.677  14.294 -0.9076  0.8672  0.2938
14137TIP3    H263903   1.157   3.682  14.326 -0.8636  0.7145  0.1121
14138TIP3   OH263904   3.056   0.832   4.721 -0.0254 -0.4502 -0.3204
14138TIP3    H163905   2.994   0.775   4.767  0.8702 -0.5795  0.7701
14138TIP3    H263906   3.017   0.919   4.726 -0.8871 -0.7772 -1.0577
14139TIP3   OH263907   4.391   4.146  16.609  0.6828 -0.1942  0.0570
14139TIP3    H163908   4.468   4.110  16.566  0.3429 -1.0226  0.1251
14139TIP3    H263909   4.416   4.235  16.632  1.2863 -0.1437 -0.7653
14140TIP3   OH263910   1.293   0.959   5.395 -0.1732 -0.5090  0.1989
14140TIP3    H163911   1.312   1.024   5.463  1.4731 -0.2974 -0.4352
14140TIP3    H263912   1.286   0.876   5.443  1.4458 -0.4410  0.6065
14141TIP3   OH263913   4.074   0.749  15.142 -0.0730  0.1504  0.0091
14141TIP3    H163914   4.148   0.778  15.089 -0.1440 -1.7418 -1.2130
14141TIP3    H263915   4.110   0.678  15.195 -0.3205  1.1814  1.6305
14142TIP3   OH263916   1.133   3.974  16.279  0.5100 -0.3819 -0.2388
14142TIP3    H163917   1.083   4.040  16.327  0.1077 -0.4034 -0.6164
14142TIP3    H263918   1.119   3.997  16.187 -0.0506 -1.2866 -0.3891
14143TIP3   OH263919   1.903   1.152  12.184  0.1261  0.4784 -0.4844
14143TIP3    H163920   1.918   1.106  12.101 -0.7575 -0.3258 -0.2071
14143TIP3    H263921   1.811   1.176  12.182  0.3502  1.4056 -0.1898
14144TIP3   OH263922   4.731   5.621  11.661 -0.2789  0.1901 -0.3490
14144TIP3    H163923   4.741   5.684  11.590 -1.5936  0.1644 -0.5819
14144TIP3    H263924   4.671   5.664  11.722  0.5719  0.0774  0.5920
14145TIP3   OH263925   1.471   6.433  13.833  0.0935 -0.7723 -0.3537
14145TIP3    H163926   1.447   6.477  13.915 -0.4445 -1.4449 -0.1424
14145TIP3    H263927   1.565   6.421  13.839 -0.1941 -2.8053  1.1988
14146TIP3   OH263928   5.125   0.922   1.035  0.2985  0.4377 -0.8443
14146TIP3    H163929   5.168   0.963   0.960  0.2824  1.4128 -0.3260
14146TIP3    H263930   5.157   0.831   1.034  1.0478  0.6997 -1.4570
14147TIP3   OH263931   5.513   3.825   2.805  0.1438 -0.0336 -0.2090
14147TIP3    H163932   5.600   3.810   2.769  0.1008  1.7421 -1.1661
14147TIP3    H263933   5.507   3.920   2.815 -1.9216 -0.0525 -0.7900
14148TIP3   OH263934   5.790   6.232  12.970  0.1029 -0.2334  0.5350
14148TIP3    H163935   5.878   6.197  12.961  0.5347  0.6346  1.1547
14148TIP3    H263936   5.794   6.318  12.928 -0.4411 -0.1893  0.5697
14149TIP3   OH263937   4.230   2.983   3.428  0.0323  0.2710  0.6986
14149TIP3    H163938   4.254   2.921   3.359 -0.4412  0.8088  0.0446
14149TIP3    H263939   4.271   3.065   3.402 -2.1051  1.1014 -0.2194
14150TIP3   OH263940   4.505   2.032  11.101 -0.0488  0.1757  0.0407
14150TIP3    H163941   4.541   2.116  11.074  0.9202  0.5941  2.3450
14150TIP3    H263942   4.432   2.016  11.041 -0.4478  2.8004 -0.3041
14151TIP3   OH263943   5.479   1.479  16.484 -0.2278  0.3396  0.2365
14151TIP3    H163944   5.446   1.567  16.505  1.1968  0.7195  1.0497
14151TIP3    H263945   5.571   1.482  16.509  0.2752 -0.8778 -1.2886
14152TIP3   OH263946   2.193   3.770   1.658 -0.2800 -0.3374 -0.4337
14152TIP3    H163947   2.164   3.775   1.749  1.0002 -1.1873  0.0593
14152TIP3    H263948   2.256   3.698   1.658  2.1828  1.6690 -1.2997
14153TIP3   OH263949   3.314   5.879  15.324  0.0912 -0.0617 -0.0416
14153TIP3    H163950   3.237   5.929  15.351  0.6262  1.6529 -1.4278
14153TIP3    H263951   3.378   5.893  15.394  0.3199  1.5200 -0.5097
14154TIP3   OH263952   3.171   3.892   4.864 -0.2939 -0.3725  0.1219
14154TIP3    H163953   3.246   3.902   4.805 -0.7169 -0.3586 -0.4196
14154TIP3    H263954   3.146   3.981   4.886 -0.8888 -0.3422 -0.6472
14155TIP3   OH263955   1.036   6.468   6.206  0.3647  0.3013 -0.0076
14155TIP3    H163956   1.052   6.434   6.118 -2.1481  2.6967 -1.5448
14155TIP3    H263957   1.013   6.391   6.258 -1.3244 -0.8720 -2.3127
14156TIP3   OH263958   0.767   5.715   6.086  0.3193 -0.1839 -0.0325
14156TIP3    H163959   0.759   5.785   6.150  1.8624 -0.1539  0.1817
14156TIP3    H263960   0.725   5.749   6.007 -0.2415  0.3883  0.5056
14157TIP3   OH263961   3.198   1.753   5.568 -0.0751  0.6992  0.1199
14157TIP3    H163962   3.220   1.795   5.652 -2.1865  1.4046  0.3886
14157TIP3    H263963   3.183   1.826   5.508 -0.7096  0.2641 -0.2655
14158TIP3   OH263964   0.179   6.696   0.630 -0.2493 -0.3540  0.6619
14158TIP3    H163965   0.248   6.633   0.612 -0.1509  0.1898 -0.9825
14158TIP3    H263966   0.106   6.643   0.662  0.7396 -0.9767  1.9759
14159TIP3   OH263967   5.699   4.397   4.622 -0.6330 -0.0917 -0.5467
14159TIP3    H163968   5.786   4.386   4.660  0.4486  1.4921 -2.3824
14159TIP3    H263969   5.667   4.308   4.608 -0.2607 -0.7134  2.1128
14160TIP3   OH263970   0.123   2.691  15.060 -0.1155  0.3502 -0.1269
14160TIP3    H163971   0.148   2.782  15.076  0.0995  0.3079 -0.2171
14160TIP3    H263972   0.185   2.639  15.112 -0.7505  0.2793  0.5746
14161TIP3   OH263973   3.564   4.526  11.108  0.3150 -0.2427  0.5581
14161TIP3    H163974   3.508   4.594  11.071 -0.1117 -0.5047  0.7124
14161TIP3    H263975   3.652   4.564  11.107  0.2104 -0.0124 -0.1382
14162TIP3   OH263976   0.956   6.417   2.638  0.0066  0.0330  0.6438
14162TIP3    H163977   0.906   6.372   2.707  1.0992 -0.2903  1.2539
14162TIP3    H263978   0.988   6.346   2.582 -0.4917  0.2636  0.0606
14163TIP3   OH263979   2.267   4.388  16.147  0.0994 -0.0819 -0.6004
14163TIP3    H163980   2.234   4.372  16.236  0.7468 -0.2759 -0.3945
14163TIP3    H263981   2.198   4.439  16.106 -0.2672 -0.0983 -0.0260
14164TIP3   OH263982   1.897   0.463  11.749 -0.4363 -0.7249  0.2426
14164TIP3    H163983   1.982   0.486  11.787  0.2018 -4.6869  1.6523
14164TIP3    H263984   1.918   0.402  11.678 -2.0957 -1.9292  0.7475
14165TIP3   OH263985   5.424   4.140  13.442  0.2150  0.1804  0.0082
14165TIP3    H163986   5.473   4.198  13.384  0.5730  1.1325  1.2139
14165TIP3    H263987   5.474   4.139  13.523 -0.3691 -0.9767  0.3781
14166TIP3   OH263988   3.960   2.499  14.782 -0.0731  0.5899 -0.8058
14166TIP3    H163989   3.930   2.584  14.748 -1.9467 -0.0613 -0.8699
14166TIP3    H263990   3.888   2.439  14.764  0.6989 -0.7526  0.3993
14167TIP3   OH263991   0.022   6.721   2.874 -0.0406  0.4633  0.1335
14167TIP3    H163992   0.114   6.743   2.858 -0.2016  0.0080 -1.7061
14167TIP3    H263993  -0.009   6.790   2.933  1.6227  0.2434  1.3438
14168TIP3   OH263994   0.752   1.566   3.014 -0.2812 -0.0106  0.2204
14168TIP3    H163995   0.728   1.497   2.953  0.3524  0.5719 -0.7164
14168TIP3    H263996   0.734   1.647   2.967  0.4554  0.4479  0.7039
14169TIP3   OH263997   3.533   2.731  13.512  0.2518  0.0879  0.1376
14169TIP3    H163998   3.461   2.675  13.482  0.1269  0.7322 -0.8122
14169TIP3    H263999   3.490   2.799  13.564  0.0425  0.9780 -1.1520
14170TIP3   OH264000   3.508   0.835   2.565 -0.0318  0.7119  0.1303
14170TIP3    H164001   3.515   0.861   2.657  0.4320  2.1822 -0.2815
14170TIP3    H264002   3.437   0.890   2.530  0.7994  1.2669 -0.7249
14171TIP3   OH264003   0.871   5.448   0.289  0.2157  0.5950  0.1971
14171TIP3    H164004   0.788   5.462   0.243 -0.2526 -2.0955  0.0434
14171TIP3    H264005   0.860   5.495   0.372 -1.5948  0.1138  0.2765
14172TIP3   OH264006   6.271   1.030  12.133 -0.1608  0.1749  0.0515
14172TIP3    H164007   6.263   1.087  12.209 -0.9444  0.4841 -0.2529
14172TIP3    H264008   6.349   1.060  12.088  1.3423 -1.1322  1.6510
14173TIP3   OH264009   0.668   4.379   2.031 -0.5711 -0.7852 -0.2679
14173TIP3    H164010   0.676   4.437   2.107 -0.6818 -1.9657  0.6737
14173TIP3    H264011   0.754   4.338   2.023 -0.3222 -0.0987 -1.2750
14174TIP3   OH264012   0.117   3.012   3.501  0.4257 -0.1008 -0.1183
14174TIP3    H164013   0.049   3.045   3.442  1.1871 -0.9175 -1.5370
14174TIP3    H264014   0.096   2.919   3.511  1.2675 -0.3582 -0.5477
14175TIP3   OH264015   0.133   0.290  17.409  0.0408  0.2034 -0.1615
14175TIP3    H164016   0.076   0.362  17.436  0.8447  0.4008  1.0965
14175TIP3    H264017   0.216   0.307  17.454  0.5597 -0.9815 -0.6268
14176TIP3   OH264018   1.139   3.359   3.605 -0.4469  0.0294 -0.1159
14176TIP3    H164019   1.097   3.313   3.532  0.5678 -0.0357 -0.6779
14176TIP3    H264020   1.194   3.425   3.563 -2.3468  2.2614  0.6640
14177TIP3   OH264021   4.403   4.534  16.933  0.1522 -0.3553  0.1219
14177TIP3    H164022   4.402   4.489  16.849 -1.2595 -1.1340  0.5070
14177TIP3    H264023   4.317   4.514  16.971 -0.5713  2.7416  0.3233
14178TIP3   OH264024   1.274   4.666   1.460  0.4758 -0.6025 -0.0952
14178TIP3    H164025   1.339   4.597   1.471 -1.2442 -1.9445  2.4440
14178TIP3    H264026   1.244   4.686   1.549 -2.0427  0.4696 -1.0895
14179TIP3   OH264027   0.985   3.555  12.536  0.1373 -0.0685  0.0183
14179TIP3    H164028   0.903   3.571  12.490 -0.5633  0.3116  1.3588
14179TIP3    H264029   0.963   3.563  12.628  1.5131 -0.7834  0.4358
14180TIP3   OH264030   4.280   4.488   2.204 -0.2999 -0.2526 -0.4267
14180TIP3    H164031   4.327   4.455   2.280 -0.9734 -0.5760 -0.1448
14180TIP3    H264032   4.197   4.520   2.239 -0.0911  0.7907 -0.8454
14181TIP3   OH264033   3.898   5.518   2.315 -0.1315  0.3315 -0.3354
14181TIP3    H164034   3.892   5.493   2.407 -2.2972  0.1155 -0.4843
14181TIP3    H264035   3.963   5.589   2.313  0.5059 -0.1728  1.2205
14182TIP3   OH264036   2.537   2.547  15.467  0.0395  0.2295  0.4703
14182TIP3    H164037   2.588   2.628  15.468 -0.4840  0.5680  1.4702
14182TIP3    H264038   2.495   2.546  15.381  0.2344  0.9053  0.3619
14183TIP3   OH264039   4.923   6.308   5.159  0.2088  0.1232 -0.6104
14183TIP3    H164040   4.973   6.263   5.227  1.2897  1.3008 -0.5976
14183TIP3    H264041   4.962   6.278   5.077  0.2702  0.2854 -0.6398
14184TIP3   OH264042   4.049   5.826   3.775 -0.5722 -0.0899 -0.1394
14184TIP3    H164043   4.113   5.781   3.719  0.1443  0.1327  0.4832
14184TIP3    H264044   4.041   5.913   3.736  1.9299  1.0204  1.5166
14185TIP3   OH264045   0.188   1.757  12.766 -0.3164  0.0565  0.6901
14185TIP3    H164046   0.190   1.712  12.851  0.7507  0.2004  0.7501
14185TIP3    H264047   0.250   1.708  12.712  1.3415  1.7935  0.9358
14186TIP3   OH264048   1.675   0.334  11.832  0.3607  0.0899 -0.1037
14186TIP3    H164049   1.747   0.389  11.803  0.4813 -0.0225 -0.0143
14186TIP3    H264050   1.655   0.278  11.757  0.9052 -0.4468  0.1446
14187TIP3   OH264051   3.629   2.219  13.369  1.0921 -0.4024  0.6935
14187TIP3    H164052   3.584   2.134  13.369  0.0626  0.1204  0.5398
14187TIP3    H264053   3.566   2.279  13.409  1.3417  0.5135 -0.2371
14188TIP3   OH264054   5.644   0.705  11.606  0.1039 -0.0623 -0.5557
14188TIP3    H164055   5.677   0.617  11.588  2.0847  0.1162  1.6097
14188TIP3    H264056   5.577   0.693  11.673  0.7195  0.0808  0.0991
14189TIP3   OH264057   1.646   2.479  15.144  0.2259 -0.1201  0.0359
14189TIP3    H164058   1.677   2.515  15.228 -1.1560 -1.2416  1.0733
14189TIP3    H264059   1.603   2.552  15.101  1.1321  0.5262  0.1861
14190TIP3   OH264060   0.577   5.512  11.761  0.4273  0.0726 -0.0377
14190TIP3    H164061   0.540   5.591  11.721 -0.5850  1.2038  2.8860
14190TIP3    H264062   0.661   5.541  11.797  0.6232 -0.5158 -0.0164
14191TIP3   OH264063   6.079   2.495   2.005  0.1911  0.1702 -0.3976
14191TIP3    H164064   6.010   2.557   1.983  0.2172 -0.6067 -3.0139
14191TIP3    H264065   6.156   2.527   1.958 -0.1646 -2.4819 -3.1458
14192TIP3   OH264066   5.995   0.066  16.248 -0.5390  0.4252  0.0690
14192TIP3    H164067   6.010  -0.018  16.291 -2.6122 -0.0858 -0.1133
14192TIP3    H264068   5.951   0.119  16.314 -0.2220  0.9974 -0.1719
14193TIP3   OH264069   1.983   5.733   0.522 -0.9510 -0.6465 -0.0795
14193TIP3    H164070   2.026   5.765   0.443 -0.4394 -0.2990  0.3306
14193TIP3    H264071   1.908   5.683   0.491  0.9363 -3.1920 -0.9527
14194TIP3   OH264072   1.060   1.132  15.051 -0.1326  0.0755  0.2128
14194TIP3    H164073   1.134   1.089  15.095 -0.8814 -3.4177 -1.5653
14194TIP3    H264074   1.097   1.211  15.013  2.5812 -1.1996 -0.0424
14195TIP3   OH264075   4.228   3.373  12.507 -0.7270  0.0962  0.2781
14195TIP3    H164076   4.166   3.301  12.513 -1.6417  0.8844  0.4667
14195TIP3    H264077   4.214   3.411  12.421 -1.5142  1.1482  0.8435
14196TIP3   OH264078   6.394   4.952   3.975 -0.2329  0.1342 -0.6466
14196TIP3    H164079   6.314   4.996   3.946  0.8526  1.6156 -1.6014
14196TIP3    H264080   6.437   4.925   3.894  1.0873  1.0044 -0.2705
14197TIP3   OH264081   3.120   3.963   0.464 -0.0543 -0.0746  0.5259
14197TIP3    H164082   3.037   3.969   0.418 -0.8036 -0.5266  1.7733
14197TIP3    H264083   3.133   4.049   0.503  0.4706  0.2389 -0.3072
14198TIP3   OH264084   2.671   6.490   2.503 -0.0741 -0.2162 -0.0977
14198TIP3    H164085   2.724   6.459   2.429 -0.1621  0.6327 -0.5307
14198TIP3    H264086   2.638   6.410   2.544  1.1590 -0.7475 -0.1005
14199TIP3   OH264087   3.226   0.051  17.057 -0.5147  0.4990  0.3741
14199TIP3    H164088   3.162  -0.008  17.097 -0.8989 -0.1005 -1.0541
14199TIP3    H264089   3.214   0.039  16.963  2.2048 -0.1648  0.0369
14200TIP3   OH264090   2.318   2.761  13.018 -0.5620  0.2908 -0.2863
14200TIP3    H164091   2.410   2.756  13.041 -0.5410 -0.0111 -0.4208
14200TIP3    H264092   2.272   2.757  13.102 -0.5250 -1.9479 -0.3156
14201TIP3   OH264093   2.588   6.761  16.808  0.5944 -0.4176  0.6085
14201TIP3    H164094   2.611   6.818  16.734  1.0792  0.0089  1.0831
14201TIP3    H264095   2.527   6.698  16.770  0.5730 -0.0004 -0.0835
14202TIP3   OH264096   3.896   4.253   4.517  0.6992 -0.8144  0.2017
14202TIP3    H164097   3.805   4.229   4.498  0.4616 -0.0873  0.3917
14202TIP3    H264098   3.948   4.183   4.476  0.0816 -0.9236 -0.4269
14203TIP3   OH264099   6.191   0.428  10.574  0.1983 -0.4097 -0.7359
14203TIP3    H164100   6.115   0.447  10.520 -0.5834 -1.2838  0.0240
14203TIP3    H264101   6.236   0.512  10.583 -0.9029  0.2012 -0.8348
14204TIP3   OH264102   4.085   0.981  11.669 -0.4542  0.0881  0.1097
14204TIP3    H164103   4.141   0.925  11.723  1.6324 -2.3300 -4.0411
14204TIP3    H264104   3.998   0.944  11.676  0.2827 -1.7511 -0.0576
14205TIP3   OH264105   5.717   1.575   3.389  0.0547 -0.1690 -0.2428
14205TIP3    H164106   5.766   1.610   3.463  2.2137  0.9437 -2.0614
14205TIP3    H264107   5.761   1.493   3.368 -0.2117 -0.2189 -0.6177
14206TIP3   OH264108   0.346   2.547  12.062 -0.2011  0.4321  0.1639
14206TIP3    H164109   0.418   2.581  12.008 -0.0280  0.4687  0.4183
14206TIP3    H264110   0.389   2.504  12.135 -0.4346  2.6070  1.6612
14207TIP3   OH264111   2.687   2.398   2.368  0.4438  0.3333 -0.0324
14207TIP3    H164112   2.724   2.312   2.387  0.1032 -0.1209 -1.3429
14207TIP3    H264113   2.732   2.457   2.429 -0.4343 -0.9739  1.9856
14208TIP3   OH264114   1.139   0.934   4.969  0.1582  0.0973  0.0895
14208TIP3    H164115   1.054   0.891   4.978 -0.6121  1.4331 -0.4789
14208TIP3    H264116   1.158   0.930   4.875  0.7490 -0.2285  0.2192
14209TIP3   OH264117   5.240   1.554   2.067 -0.0542 -0.0745  0.1162
14209TIP3    H164118   5.167   1.511   2.110  0.6241 -1.1337  0.2414
14209TIP3    H264119   5.285   1.601   2.138 -0.1889 -0.0315  0.1725
14210TIP3   OH264120   3.667   1.034  12.948  0.0799  0.6727  0.2510
14210TIP3    H164121   3.743   0.983  12.923 -0.5735  1.0858 -3.0346
14210TIP3    H264122   3.593   0.989  12.906 -0.9942  2.1760  0.4464
14211TIP3   OH264123   2.526   6.573  13.227  0.2118 -0.3892  0.3334
14211TIP3    H164124   2.502   6.497  13.281  0.4518 -0.6729  0.0451
14211TIP3    H264125   2.533   6.646  13.289  0.8508 -0.7907  0.7500
14212TIP3   OH264126   0.095   5.058  15.096 -0.5884 -0.3269 -0.0405
14212TIP3    H164127   0.028   4.994  15.121 -0.8783 -0.0745 -0.1603
14212TIP3    H264128   0.109   5.043  15.003 -0.5904 -0.2717 -0.0492
14213TIP3   OH264129   2.461   5.693  13.868  0.5532 -0.5939  0.1359
14213TIP3    H164130   2.412   5.663  13.792  1.0211 -1.5123  0.1774
14213TIP3    H264131   2.393   5.723  13.929  0.1543 -0.2021 -0.4813
14214TIP3   OH264132   4.703   0.416   4.271 -0.4511 -0.1907  0.0198
14214TIP3    H164133   4.653   0.344   4.309 -0.9674  0.1076 -0.0775
14214TIP3    H264134   4.637   0.469   4.225  0.2929 -1.1894 -2.3343
14215TIP3   OH264135   1.279   2.731  17.357  0.0595 -0.0480  0.3850
14215TIP3    H164136   1.301   2.824  17.349  0.9624 -0.0642  2.0856
14215TIP3    H264137   1.196   2.721  17.310 -0.0914  1.6296  0.2444
14216TIP3   OH264138   2.494   2.020  14.260 -0.1194 -0.0750  0.9739
14216TIP3    H164139   2.438   2.036  14.336 -0.9470  0.7040  0.2283
14216TIP3    H264140   2.489   2.100  14.209  1.4905 -0.0977  0.7413
14217TIP3   OH264141   0.290   5.813   3.076 -0.2223 -0.5078  0.0957
14217TIP3    H164142   0.351   5.881   3.047 -1.2013 -0.5298 -2.3067
14217TIP3    H264143   0.341   5.732   3.073  0.1499 -0.2735  0.0238
14218TIP3   OH264144   1.823   2.597  12.590 -0.0667 -0.1361  0.6866
14218TIP3    H164145   1.906   2.570  12.629  0.2901  0.3557  0.2684
14218TIP3    H264146   1.833   2.690  12.574 -0.3362 -0.2622 -0.2728
14219TIP3   OH264147   6.613   2.569  13.650 -0.0084  0.2519  0.5044
14219TIP3    H164148   6.624   2.628  13.575 -1.2839 -0.7510 -0.5205
14219TIP3    H264149   6.606   2.628  13.725  1.7452  1.2628 -0.0650
14220TIP3   OH264150   0.161   2.002   6.484 -0.2243 -0.3886 -0.0363
14220TIP3    H164151   0.138   2.080   6.534  1.0638 -0.0301  0.0239
14220TIP3    H264152   0.235   2.029   6.429 -0.6369 -1.1926 -1.0333
14221TIP3   OH264153   0.531   4.629   4.702  0.1042 -0.4461  0.3233
14221TIP3    H164154   0.460   4.649   4.763  0.9572  0.3530  1.0881
14221TIP3    H264155   0.490   4.576   4.634 -1.3166  0.3421  0.5283
14222TIP3   OH264156   5.158   1.256   1.829  0.0387  0.4611 -0.8257
14222TIP3    H164157   5.074   1.259   1.783 -0.1978 -0.7003 -0.4923
14222TIP3    H264158   5.158   1.335   1.884 -0.7055  0.6194 -1.0408
14223TIP3   OH264159   2.843   2.496  12.427 -0.2812 -0.0330  0.4110
14223TIP3    H164160   2.764   2.463  12.384 -0.9158 -0.4096  1.8091
14223TIP3    H264161   2.914   2.442  12.391 -0.8199 -0.4732 -0.0106
14224TIP3   OH264162   1.300   3.791   4.820 -0.2003  0.5151 -0.1143
14224TIP3    H164163   1.390   3.806   4.790 -0.0950  1.1867  0.4976
14224TIP3    H264164   1.262   3.734   4.754  1.5626 -2.2622  1.0792
14225TIP3   OH264165   1.900   0.247   3.212 -0.3757 -0.3946 -0.7376
14225TIP3    H164166   1.909   0.224   3.120  0.4099  0.0096 -0.7634
14225TIP3    H264167   1.843   0.324   3.212  1.0147  0.6760 -1.0365
14226TIP3   OH264168   0.364   1.639   3.069  0.4031  0.0893 -0.0618
14226TIP3    H164169   0.435   1.653   3.132  0.3220  0.0119  0.0478
14226TIP3    H264170   0.321   1.559   3.100 -0.7226  1.0009  0.8013
14227TIP3   OH264171   6.692   4.895   3.039 -0.6979 -0.0754  0.7238
14227TIP3    H164172   6.770   4.885   3.094  1.1392 -1.6458 -1.9570
14227TIP3    H264173   6.643   4.814   3.054 -0.4889 -0.2452  0.5053
14228TIP3   OH264174   4.350   2.992   1.274 -0.4601  0.4043  0.2293
14228TIP3    H164175   4.344   3.033   1.188  1.8887  2.8522  1.1025
14228TIP3    H264176   4.413   2.921   1.262 -2.8546 -1.7162 -0.7722
14229TIP3   OH264177   2.434   0.716  14.779  0.0351  0.0090 -0.5191
14229TIP3    H164178   2.475   0.717  14.865 -1.3291 -0.8910  0.1812
14229TIP3    H264179   2.476   0.643  14.733 -0.8238 -0.9791  0.2313
14230TIP3   OH264180   5.963   3.419  17.170  0.6530  0.3944  0.3885
14230TIP3    H164181   6.033   3.408  17.106 -0.8357 -0.0735 -1.2487
14230TIP3    H264182   5.999   3.479  17.235  1.5939  2.5538 -1.9572
14231TIP3   OH264183   5.308   0.789  11.618 -0.2298 -0.3187  0.1068
14231TIP3    H164184   5.353   0.744  11.690 -0.4117  1.2392  1.2518
14231TIP3    H264185   5.341   0.747  11.539 -0.0483 -2.1175  1.0761
14232TIP3   OH264186   2.386   3.719   5.641 -0.0296 -0.3146 -0.6683
14232TIP3    H164187   2.446   3.672   5.700 -0.6521 -0.9701 -0.5490
14232TIP3    H264188   2.355   3.652   5.580  1.2886  0.5114 -2.3353
14233TIP3   OH264189   5.372   1.146  11.370 -0.0082 -0.2994  0.0921
14233TIP3    H164190   5.442   1.082  11.381  2.3183  2.0388  0.0475
14233TIP3    H264191   5.319   1.139  11.450 -2.3348 -4.8149 -1.5123
14234TIP3   OH264192   3.849   6.642   6.070 -0.2900  0.2228  0.9845
14234TIP3    H164193   3.917   6.707   6.049 -1.7391  1.5103  0.0690
14234TIP3    H264194   3.832   6.655   6.163  0.4387  0.1635  1.1311
14235TIP3   OH264195   4.775   3.036  12.279  0.0350 -0.1833 -0.5315
14235TIP3    H164196   4.686   3.054  12.308  0.8787 -0.7778  2.8362
14235TIP3    H264197   4.824   3.115  12.301  0.6402 -0.4115 -1.0148
14236TIP3   OH264198   5.774   3.554   1.335  0.2990 -0.1799 -0.0719
14236TIP3    H164199   5.750   3.641   1.304  2.4638  1.1957  1.7450
14236TIP3    H264200   5.860   3.538   1.296  0.0167 -1.4680 -0.2227
14237TIP3   OH264201   0.247   1.085  16.927 -0.1935 -0.1229  0.0909
14237TIP3    H164202   0.169   1.057  16.879 -0.3444 -0.4197  0.5066
14237TIP3    H264203   0.227   1.174  16.955 -0.8768 -0.6167  1.2239
14238TIP3   OH264204   1.913   4.403   5.241 -0.3137 -0.0849  0.0868
14238TIP3    H164205   1.884   4.346   5.312 -2.0610 -2.2838 -2.2095
14238TIP3    H264206   1.877   4.489   5.263  0.0861 -0.4332  2.3211
14239TIP3   OH264207   6.370   5.768  11.830  0.3461  0.0877  0.0227
14239TIP3    H164208   6.350   5.706  11.759  0.9060 -0.7934  0.6101
14239TIP3    H264209   6.441   5.822  11.796  0.2101  0.0648 -0.3017
14240TIP3   OH264210   2.778   3.121   0.422 -1.5448  0.6499 -0.3033
14240TIP3    H164211   2.734   3.057   0.366 -1.2661  0.5773 -0.4420
14240TIP3    H264212   2.800   3.073   0.502  2.2816 -0.6600 -1.8990
14241TIP3   OH264213   5.776   0.336   2.212 -0.4654  0.0440 -0.2445
14241TIP3    H164214   5.786   0.256   2.264 -0.4785  1.1841  1.5953
14241TIP3    H264215   5.683   0.355   2.215 -0.9244 -1.2429 -2.9446
14242TIP3   OH264216   0.357   2.487   6.064 -0.0902  0.4273 -0.2556
14242TIP3    H164217   0.297   2.488   6.138 -2.3219  0.5785 -1.9474
14242TIP3    H264218   0.343   2.572   6.021  0.2606 -0.1152 -1.4912
14243TIP3   OH264219   5.793   0.041   1.378 -0.0031 -0.2176 -0.6109
14243TIP3    H164220   5.725  -0.022   1.353  0.3545 -0.8770  0.0419
14243TIP3    H264221   5.863   0.027   1.315 -0.5932  0.6860 -1.4829
14244TIP3   OH264222   6.551   3.158   5.323  0.0773  0.2596  0.4101
14244TIP3    H164223   6.646   3.175   5.324  0.1867 -0.3359  0.2768
14244TIP3    H264224   6.522   3.178   5.412 -0.0506  2.5176 -0.0766
14245TIP3   OH264225   2.005   5.783   2.155 -0.0945 -0.0223  0.2833
14245TIP3    H164226   2.080   5.740   2.197 -0.9814 -2.4671 -0.4818
14245TIP3    H264227   2.042   5.823   2.076  0.4900 -0.8494  0.1219
14246TIP3   OH264228   6.409   3.472   2.295 -0.1401 -0.3228  0.1399
14246TIP3    H164229   6.422   3.402   2.231  0.3411 -0.0390 -0.0819
14246TIP3    H264230   6.489   3.472   2.348  0.4817  0.9457 -0.7380
14247TIP3   OH264231   4.888   0.529   2.742  0.4557 -0.4477  0.0855
14247TIP3    H164232   4.970   0.488   2.713  0.7642  0.0783  0.2098
14247TIP3    H264233   4.852   0.570   2.663  0.4943 -0.3729  0.1064
14248TIP3   OH264234   5.534   4.930  15.138  0.0443 -1.4498 -0.5763
14248TIP3    H164235   5.622   4.958  15.115  0.2238  0.2545  1.8434
14248TIP3    H264236   5.528   4.840  15.105  1.8959 -0.8957 -2.6213
14249TIP3   OH264237   1.412   1.643   0.256 -0.1177  0.0429 -0.4267
14249TIP3    H164238   1.486   1.672   0.309 -1.2931  1.5352  0.4832
14249TIP3    H264239   1.451   1.590   0.186  1.7471  0.5094  0.2150
14250TIP3   OH264240   3.342   2.965  16.967 -0.1043 -0.5211  0.5119
14250TIP3    H164241   3.386   2.972  16.882  0.2201  0.5332  0.7497
14250TIP3    H264242   3.333   2.871  16.981  2.2265 -0.8148  0.5155
14251TIP3   OH264243   2.417   1.074   0.323  0.0651 -0.2723 -0.0599
14251TIP3    H164244   2.508   1.100   0.308 -0.2098  0.6723 -0.1557
14251TIP3    H264245   2.415   0.981   0.301  0.8084 -0.0902 -0.9665
14252TIP3   OH264246   6.208   1.270   2.661 -0.1482  0.3266 -0.1841
14252TIP3    H164247   6.229   1.191   2.612 -1.1570 -0.1340  0.1197
14252TIP3    H264248   6.289   1.290   2.709  1.1723  1.2750 -2.6010
14253TIP3   OH264249   3.932   1.622   2.648 -0.0362  0.0360 -0.0818
14253TIP3    H164250   3.974   1.585   2.571  0.9436  0.6298  0.1478
14253TIP3    H264251   3.933   1.717   2.633 -3.4589  0.0432 -1.1696
14254TIP3   OH264252   3.981   1.123  11.218 -0.1287  0.0430 -0.1279
14254TIP3    H164253   3.990   1.211  11.181  0.1715  0.4913  0.9776
14254TIP3    H264254   3.999   1.064  11.145  3.4569  0.8754 -0.0914
14255TIP3   OH264255   2.651   3.828   5.851  0.5040  0.4116 -0.3424
14255TIP3    H164256   2.603   3.901   5.813 -1.1024 -0.0050  0.8116
14255TIP3    H264257   2.614   3.750   5.808  0.3757  0.1074  0.3114
14256TIP3   OH264258   1.792   2.129   4.279  0.0153 -0.0312 -0.4270
14256TIP3    H164259   1.721   2.166   4.227  0.1226  1.1495  0.2199
14256TIP3    H264260   1.872   2.163   4.238  0.2371 -1.4455 -1.2211
14257TIP3   OH264261   6.709   2.175  16.454  0.2536  0.2464 -0.0659
14257TIP3    H164262   6.755   2.101  16.492  1.8499  0.6613 -1.0843
14257TIP3    H264263   6.777   2.225  16.408 -1.1665  1.0511 -1.4015
14258TIP3   OH264264   0.122   6.596  14.075 -0.1956 -0.1134  0.0610
14258TIP3    H164265   0.105   6.620  14.166  0.3459 -1.5133  0.5599
14258TIP3    H264266   0.118   6.679  14.027  1.2625  0.9317  1.6238
14259TIP3   OH264267   2.846   3.752   3.866  0.0670 -0.4190  0.3418
14259TIP3    H164268   2.767   3.751   3.812  0.5491  0.5307 -0.4215
14259TIP3    H264269   2.819   3.795   3.947 -0.2620 -0.3368  0.1911
14260TIP3   OH264270   2.526   2.519   1.740  0.0859  0.7644  0.0064
14260TIP3    H164271   2.560   2.603   1.773 -0.5010  0.2854  2.0147
14260TIP3    H264272   2.437   2.514   1.776 -0.9086  0.4680 -2.3318
14261TIP3   OH264273   0.727   2.598  15.127 -0.4820  0.1790 -0.2103
14261TIP3    H164274   0.809   2.557  15.153 -0.3326 -0.0400 -1.0168
14261TIP3    H264275   0.664   2.526  15.124 -0.9301  0.4754  1.2692
14262TIP3   OH264276   0.887   0.877   5.249 -0.3032  0.2295 -0.4530
14262TIP3    H164277   0.928   0.791   5.249 -0.0821  0.3275  0.6220
14262TIP3    H264278   0.859   0.891   5.339 -2.4113  0.3093 -1.0543
14263TIP3   OH264279   4.060   4.938   3.472 -0.1385  0.1266  0.1197
14263TIP3    H164280   3.988   5.000   3.460  0.8093  1.6507  1.8043
14263TIP3    H264281   4.051   4.906   3.562 -1.0688 -2.9051 -0.9335
14264TIP3   OH264282   5.292   0.377   1.568 -0.1072  0.2897  0.4718
14264TIP3    H164283   5.224   0.353   1.631  1.3960 -0.9540  1.6910
14264TIP3    H264284   5.369   0.395   1.622  1.9302 -3.0652 -1.0061
14265TIP3   OH264285   5.791   5.709   5.805 -0.1169 -0.2631  0.0246
14265TIP3    H164286   5.769   5.695   5.897  1.7361  0.5650  0.6388
14265TIP3    H264287   5.718   5.762   5.771  0.0617  1.0265  1.5162
14266TIP3   OH264288   4.024   5.936   3.032 -0.5818  1.0189 -0.3889
14266TIP3    H164289   4.076   5.857   3.045 -2.2135 -0.0381  0.0727
14266TIP3    H264290   4.038   5.987   3.112  0.2571  1.0724 -0.5650
14267TIP3   OH264291   0.659   3.867  17.185  0.1451  0.2637  0.7015
14267TIP3    H164292   0.621   3.825  17.108  0.2114  1.2506  0.1064
14267TIP3    H264293   0.606   3.946  17.196 -0.0548 -0.0252  1.8588
14268TIP3   OH264294   2.090   4.605  12.551  0.1431 -0.4807 -0.1149
14268TIP3    H164295   2.056   4.612  12.462 -0.1514 -0.5817 -0.0138
14268TIP3    H264296   2.185   4.604  12.541  0.1042 -1.0761 -0.4749
14269TIP3   OH264297   2.949   1.675  11.631  0.2691 -0.6396 -0.0879
14269TIP3    H164298   2.983   1.762  11.612  0.9178 -1.1077 -1.1881
14269TIP3    H264299   3.027   1.621  11.643 -0.0945 -0.7376  2.4233
14270TIP3   OH264300   6.137   1.459  12.158 -0.4515  0.1465  0.0962
14270TIP3    H164301   6.210   1.408  12.192  1.2902  2.2012 -0.3480
14270TIP3    H264302   6.096   1.496  12.236 -1.2947 -1.2787  0.3701
14271TIP3   OH264303   2.701   5.185   1.379  0.2559  0.1953  0.2557
14271TIP3    H164304   2.759   5.190   1.303 -0.4875  2.3770 -0.2432
14271TIP3    H264305   2.625   5.137   1.347  0.0746  0.8405 -0.3109
14272TIP3   OH264306   0.060   3.402  16.685  0.0610 -0.1954  0.3111
14272TIP3    H164307   0.102   3.316  16.678  1.1139  0.4127 -1.2724
14272TIP3    H264308   0.130   3.464  16.666 -0.0210  1.2225  3.8275
14273TIP3   OH264309   1.520   2.739  15.128  0.0936  0.5927  0.5029
14273TIP3    H164310   1.606   2.777  15.140  0.4767  0.0906 -0.5325
14273TIP3    H264311   1.460   2.813  15.130  0.6459  1.0476  0.2999
14274TIP3   OH264312   1.583   3.416   4.553  0.9128 -0.0165 -0.1794
14274TIP3    H164313   1.491   3.420   4.528  1.6057  4.1756 -3.0032
14274TIP3    H264314   1.586   3.454   4.641  0.1053  3.0015 -1.3323
14275TIP3   OH264315   4.048   5.797  12.216  0.2799 -0.1490  0.6221
14275TIP3    H164316   4.018   5.885  12.239  0.1368 -0.3312  1.1412
14275TIP3    H264317   3.984   5.738  12.256 -0.3193 -0.4733 -0.7544
14276TIP3   OH264318   4.719   3.948   5.226 -0.4444  0.0387 -0.1419
14276TIP3    H164319   4.680   3.928   5.140  1.3476  0.4638 -1.1084
14276TIP3    H264320   4.676   3.887   5.286 -2.2957  0.2352 -1.1753
14277TIP3   OH264321   4.613   2.039  11.348  0.1646 -0.4797 -0.4234
14277TIP3    H164322   4.668   1.963  11.366  0.8916  0.2808  0.6677
14277TIP3    H264323   4.583   2.025  11.258  2.0333 -0.9930 -1.0170
14278TIP3   OH264324   1.573   5.122   1.078 -0.5129 -0.1855  0.2312
14278TIP3    H164325   1.645   5.185   1.074 -0.5823 -0.1547 -0.8647
14278TIP3    H264326   1.551   5.106   0.986 -1.2714 -0.9200  0.5354
14279TIP3   OH264327   4.796   4.134   1.135 -0.8463 -0.6211  0.9104
14279TIP3    H164328   4.721   4.189   1.110 -0.4443 -1.2792 -2.1320
14279TIP3    H264329   4.836   4.110   1.052  1.9493 -1.4574  2.3927
14280TIP3   OH264330   6.315   0.487   4.807  0.2370 -0.3956  0.2451
14280TIP3    H164331   6.272   0.417   4.856 -0.9055 -3.3211 -4.3277
14280TIP3    H264332   6.246   0.551   4.789 -0.0054 -0.6990  0.1096
14281TIP3   OH264333   1.462   4.615   2.433 -0.1946 -0.7565 -0.6241
14281TIP3    H164334   1.418   4.591   2.514  2.5710 -0.8466  0.9651
14281TIP3    H264335   1.394   4.658   2.380 -1.5885  1.5491  2.6994
14282TIP3   OH264336   3.795   4.572  13.118 -0.8408 -0.7149  0.0057
14282TIP3    H164337   3.734   4.634  13.158 -0.9594 -0.3331 -0.7418
14282TIP3    H264338   3.764   4.563  13.028 -2.3574 -3.8232  0.7294
14283TIP3   OH264339   4.395   3.078   5.196 -0.7259 -0.0605 -0.2132
14283TIP3    H164340   4.308   3.050   5.166 -0.5339  2.1221 -3.2775
14283TIP3    H264341   4.454   3.051   5.125  0.6689  0.8748  0.5420
14284TIP3   OH264342   4.727   1.351   1.404 -0.3167  0.3421 -0.3890
14284TIP3    H164343   4.745   1.278   1.345  0.2008  0.4236 -0.3282
14284TIP3    H264344   4.668   1.314   1.470  0.0622 -0.0625 -0.2742
14285TIP3   OH264345   0.424   0.792   5.861 -0.1045  0.1994 -0.5389
14285TIP3    H164346   0.445   0.701   5.882 -1.2116 -0.0109 -0.3071
14285TIP3    H264347   0.370   0.822   5.934 -2.5340  0.0046 -2.1535
14286TIP3   OH264348   2.356   4.589   5.114  0.0447  0.0190  0.2141
14286TIP3    H164349   2.390   4.640   5.041  1.0629 -2.3818 -1.1218
14286TIP3    H264350   2.434   4.547   5.152 -0.6473  0.0466  1.7600
14287TIP3   OH264351   0.276   5.888  14.211 -0.3994  0.2479 -0.1322
14287TIP3    H164352   0.248   5.809  14.165  0.4835  1.5046 -3.0737
14287TIP3    H264353   0.372   5.880  14.216 -0.3780  0.7386  0.3091
14288TIP3   OH264354   3.382   1.912  15.733  0.0380 -0.0635  0.2270
14288TIP3    H164355   3.384   1.949  15.822  1.4069 -2.0757  1.1126
14288TIP3    H264356   3.312   1.847  15.736  0.4987 -0.5730  0.0307
14289TIP3   OH264357   2.299   5.593  17.059  0.4059  0.1694  0.4463
14289TIP3    H164358   2.288   5.521  16.996  0.1186 -0.6319  1.3813
14289TIP3    H264359   2.210   5.620  17.080  0.4963  0.3227  0.6307
14290TIP3   OH264360   0.444   2.732  15.390  0.0106  0.4735 -0.3850
14290TIP3    H164361   0.501   2.677  15.443  0.6789 -0.8270 -2.3100
14290TIP3    H264362   0.504   2.792  15.345 -0.4779  1.1866 -0.0973
14291TIP3   OH264363   2.267   1.066   1.500  0.1648  0.7288 -0.2161
14291TIP3    H164364   2.277   1.141   1.441  0.7539  0.6323 -0.2484
14291TIP3    H264365   2.257   0.990   1.442  1.6693  0.5079 -0.2262
14292TIP3   OH264366   2.480   2.333  15.134  0.4809 -0.2825  0.0789
14292TIP3    H164367   2.453   2.273  15.065  1.0156 -2.7208  1.8403
14292TIP3    H264368   2.401   2.342  15.189  0.7968 -0.5330  0.5827
14293TIP3   OH264369   2.694   0.824   4.012 -0.1758 -0.3703 -0.3098
14293TIP3    H164370   2.652   0.909   4.022 -1.0585 -0.5552 -2.0067
14293TIP3    H264371   2.677   0.799   3.921  1.3065 -1.7128 -0.2703
14294TIP3   OH264372   0.020   4.585   0.053 -0.1369  0.0009  0.1324
14294TIP3    H164373   0.038   4.645   0.125 -3.2534  1.2217  0.0424
14294TIP3    H264374  -0.017   4.507   0.094  0.6190 -0.4468 -0.0068
14295TIP3   OH264375   2.341   1.205  14.684 -0.0279  0.1761 -0.3081
14295TIP3    H164376   2.344   1.150  14.606  2.1341  0.0118 -0.1647
14295TIP3    H264377   2.290   1.282  14.657  1.2108  0.4258 -2.1161
14296TIP3   OH264378   1.470   3.080  11.396  0.3687  0.0846 -0.1174
14296TIP3    H164379   1.377   3.075  11.375  0.1006 -2.1100  1.2979
14296TIP3    H264380   1.487   3.004  11.451  2.9118  0.6990  0.0968
14297TIP3   OH264381   6.772   5.802  11.990  0.6131  0.0262 -0.0574
14297TIP3    H164382   6.686   5.841  12.009  0.1306 -0.6831 -0.7746
14297TIP3    H264383   6.797   5.760  12.073  0.6905  0.9808  0.4274
14298TIP3   OH264384   2.361   1.348   1.195  0.0379  0.3116 -0.0509
14298TIP3    H164385   2.327   1.260   1.180 -0.4003  0.6291 -1.0016
14298TIP3    H264386   2.293   1.392   1.245  1.0056 -0.3952  2.0010
14299TIP3   OH264387   5.938   6.735   5.027 -0.1568 -0.6057  0.1119
14299TIP3    H164388   5.991   6.696   5.097  2.6272 -1.0907 -2.0903
14299TIP3    H264389   5.952   6.830   5.038  1.8653 -0.7390 -0.8239
14300TIP3   OH264390   0.122   5.622  12.937 -0.5411  0.6252  0.6049
14300TIP3    H164391   0.184   5.598  12.868 -2.0744  0.9684 -0.9919
14300TIP3    H264392   0.168   5.689  12.989  0.6068  0.4779 -0.1773
14301TIP3   OH264393   6.225   6.265  12.609  0.0718 -0.2471  0.1685
14301TIP3    H164394   6.177   6.341  12.576  1.2386 -0.0431 -1.1443
14301TIP3    H264395   6.253   6.291  12.697  0.2050  0.7353 -0.1512
14302TIP3   OH264396   4.755   0.523  13.993 -0.9086  0.1983  0.2600
14302TIP3    H164397   4.842   0.564  13.997 -0.2557 -0.9980 -0.6680
14302TIP3    H264398   4.710   0.570  13.923  0.4029 -1.5728 -1.8988
14303TIP3   OH264399   1.926   4.765   3.885 -0.4074  0.4440  0.5410
14303TIP3    H164400   1.982   4.702   3.932 -0.0847 -0.7215 -1.3150
14303TIP3    H264401   1.907   4.722   3.802  1.5204  3.5777 -1.7519
14304TIP3   OH264402   2.341   3.570   3.437 -0.0561 -0.3100 -0.2478
14304TIP3    H164403   2.306   3.620   3.364 -1.8865 -1.8240 -0.5094
14304TIP3    H264404   2.294   3.487   3.433  0.0468 -0.5871  2.4179
14305TIP3   OH264405   4.147   2.214  16.792 -0.2011  0.6156 -0.4334
14305TIP3    H164406   4.133   2.157  16.867  1.8474  0.2506 -0.2552
14305TIP3    H264407   4.094   2.176  16.722  1.2179 -1.6988 -0.3712
14306TIP3   OH264408   1.507   4.295   1.498 -0.2572 -0.2818 -0.0688
14306TIP3    H164409   1.424   4.277   1.542  0.9687 -0.2686  2.4529
14306TIP3    H264410   1.563   4.222   1.523  0.7560  0.1431 -1.0226
14307TIP3   OH264411   5.166   5.030  14.281 -0.1846 -0.3142  0.6455
14307TIP3    H164412   5.189   5.101  14.341 -1.3916 -1.1422  2.1423
14307TIP3    H264413   5.096   5.066  14.227  1.2263  0.5958 -0.6847
14308TIP3   OH264414   0.759   0.372  11.248 -0.0020  0.3207 -0.4005
14308TIP3    H164415   0.841   0.360  11.200  0.3772  1.6763 -0.1267
14308TIP3    H264416   0.693   0.330  11.194  0.7740 -0.2247 -0.9400
14309TIP3   OH264417   4.463   6.564   5.480  0.2268 -0.9461  0.0666
14309TIP3    H164418   4.437   6.473   5.472  1.4590 -1.3067 -0.0314
14309TIP3    H264419   4.536   6.563   5.541 -0.1960  0.0751  0.6282
14310TIP3   OH264420   6.078   0.049   4.552  0.1345  0.3625  0.4316
14310TIP3    H164421   6.023  -0.027   4.571  0.5835  0.2091  1.1632
14310TIP3    H264422   6.083   0.052   4.457  0.6984 -0.9657  0.3983
14311TIP3   OH264423   6.162   0.337   5.242  0.3428  0.3098 -0.2994
14311TIP3    H164424   6.246   0.290   5.250  0.0510 -0.1949 -0.1428
14311TIP3    H264425   6.134   0.321   5.152  0.0344 -0.1919 -0.1229
14312TIP3   OH264426   2.461   4.789  13.439  0.4022  0.2627  0.4169
14312TIP3    H164427   2.541   4.737  13.435  0.2595  0.0565  0.1979
14312TIP3    H264428   2.420   4.776  13.353 -0.6735 -0.9212  1.0802
14313TIP3   OH264429   0.184   4.868   3.571  0.5088  0.0175 -0.3967
14313TIP3    H164430   0.139   4.908   3.497  0.7933  0.0514 -0.5544
14313TIP3    H264431   0.276   4.864   3.544  0.5128 -0.5738 -0.3092
14314TIP3   OH264432   5.793   4.197  15.063  0.2490  0.5664  0.2372
14314TIP3    H164433   5.809   4.288  15.090  0.3451  0.7885 -0.5550
14314TIP3    H264434   5.713   4.201  15.011  1.8880  0.7361 -2.4684
14315TIP3   OH264435   3.063   2.714  12.204  0.7521 -0.1693  0.0025
14315TIP3    H164436   3.038   2.630  12.165  2.1076 -1.3404  1.4820
14315TIP3    H264437   3.158   2.719  12.192  0.8965  0.4359  1.1951
14316TIP3   OH264438   4.360   4.688   2.661 -0.4785  0.4133  0.4932
14316TIP3    H164439   4.442   4.683   2.710 -1.2192 -1.6732  1.6217
14316TIP3    H264440   4.298   4.728   2.722 -0.9823 -0.5951  0.6460
14317TIP3   OH264441   4.630   0.450  10.802  0.1708 -0.5672  0.4591
14317TIP3    H164442   4.656   0.416  10.888 -0.7191  1.7163  1.6930
14317TIP3    H264443   4.703   0.426  10.745  0.8176 -2.0821  1.8317
14318TIP3   OH264444   5.711   3.947   6.286 -0.1116 -0.2409  0.7538
14318TIP3    H164445   5.623   3.978   6.309 -1.0625 -3.2264  1.5668
14318TIP3    H264446   5.750   3.921   6.370  1.0264 -0.2588  0.2420
14319TIP3   OH264447   2.710   6.047   3.178  0.6736 -0.0208  0.4870
14319TIP3    H164448   2.762   6.103   3.236 -1.8216  2.2910  0.7264
14319TIP3    H264449   2.630   6.098   3.162 -1.2304 -3.0449 -0.3694
14320TIP3   OH264450   2.857   4.517   3.995 -0.2409 -1.1864  0.5466
14320TIP3    H164451   2.890   4.445   3.941  0.1875  0.6958 -1.9027
14320TIP3    H264452   2.920   4.588   3.980 -3.1023  1.2515 -1.0731
14321TIP3   OH264453   4.186   3.175  14.133 -0.6578  0.5415 -0.2338
14321TIP3    H164454   4.100   3.133  14.127 -0.8498  0.7561  0.8524
14321TIP3    H264455   4.242   3.111  14.176 -0.7301  1.0525  0.6446
14322TIP3   OH264456   1.262   1.340  14.910  0.0288  0.2307 -0.3397
14322TIP3    H164457   1.352   1.350  14.943 -0.0797 -1.5589  0.6144
14322TIP3    H264458   1.222   1.426  14.925  1.5156  1.0143 -0.6449
14323TIP3   OH264459   3.647   4.536   0.729  0.3244  0.1883 -0.3879
14323TIP3    H164460   3.601   4.513   0.648 -1.7373  1.1997  0.4133
14323TIP3    H264461   3.699   4.612   0.706  0.2654  0.0710 -0.9280
14324TIP3   OH264462   6.781   1.115  14.644 -0.2357  0.3217  0.9136
14324TIP3    H164463   6.697   1.141  14.604  0.4793 -0.7573 -1.4901
14324TIP3    H264464   6.812   1.043  14.588  2.2960  0.6942  1.7488
14325TIP3   OH264465   6.695   4.349   1.615 -0.3245  0.2601 -0.5260
14325TIP3    H164466   6.693   4.318   1.524  2.1931 -1.4064 -0.1337
14325TIP3    H264467   6.733   4.436   1.610 -1.2549  0.6456 -1.1398
14326TIP3   OH264468   2.377   3.751   5.153  0.2447 -0.0257  0.4357
14326TIP3    H164469   2.309   3.808   5.188 -0.0657  0.4727 -0.9030
14326TIP3    H264470   2.339   3.663   5.156  0.8284 -0.2692  2.7721
14327TIP3   OH264471   4.884   1.291  16.868 -0.1593  0.1346  0.1723
14327TIP3    H164472   4.914   1.238  16.942 -1.6294 -0.0714  0.6346
14327TIP3    H264473   4.909   1.239  16.791  1.1880  0.2537  0.5057
14328TIP3   OH264474   3.565   0.048   0.412  0.3729  0.0735 -0.3618
14328TIP3    H164475   3.640   0.024   0.466  0.8230  1.0481 -0.5406
14328TIP3    H264476   3.528   0.125   0.455 -0.4520 -0.3218 -0.3485
14329TIP3   OH264477   0.831   2.209  15.897 -0.4077  0.1250  0.4274
14329TIP3    H164478   0.754   2.159  15.923 -2.2442  2.0972 -0.8348
14329TIP3    H264479   0.874   2.232  15.980 -1.2604 -0.8805  1.1731
14330TIP3   OH264480   0.004   6.197  10.524  0.1337 -0.2145 -0.5859
14330TIP3    H164481   0.049   6.150  10.595 -0.7925 -0.0238  0.1530
14330TIP3    H264482  -0.088   6.177  10.538 -0.3877  2.3142  0.1564
14331TIP3   OH264483   1.022   5.325  11.699  0.3385 -0.1860  0.2028
14331TIP3    H164484   1.040   5.415  11.670 -0.3531  0.4418  1.6248
14331TIP3    H264485   0.951   5.334  11.763 -1.5526 -2.0214 -1.4758
14332TIP3   OH264486   6.404   0.412   4.289 -0.0240 -0.9028 -0.3260
14332TIP3    H164487   6.455   0.440   4.364 -0.0359 -1.0131 -0.2752
14332TIP3    H264488   6.470   0.388   4.223 -0.0067 -1.2403 -0.1879
14333TIP3   OH264489   5.342   1.274   0.040  0.3709 -0.0283 -0.2417
14333TIP3    H164490   5.254   1.308   0.058 -0.6085 -2.6618  0.3994
14333TIP3    H264491   5.400   1.327   0.094 -0.7949  1.7559 -0.6594
14334TIP3   OH264492   2.978   3.382   4.811  0.5850  0.0342  0.1703
14334TIP3    H164493   2.883   3.369   4.805  0.6429 -0.2204 -0.2385
14334TIP3    H264494   2.989   3.454   4.874  0.2081 -1.3255  1.8579
14335TIP3   OH264495   6.573   1.306   3.305 -0.2526  0.1947 -0.0201
14335TIP3    H164496   6.497   1.363   3.318 -0.8627 -0.0825 -1.9777
14335TIP3    H264497   6.563   1.273   3.216  1.6720 -0.6292  0.0156
14336TIP3   OH264498   3.519   3.832  11.790  0.0367  0.3191  0.2937
14336TIP3    H164499   3.555   3.753  11.830  1.0301  0.6727  0.1105
14336TIP3    H264500   3.432   3.841  11.831 -0.1366 -0.9061  0.2455
14337TIP3   OH264501   3.563   2.728   1.991  0.1402 -0.1404  0.2259
14337TIP3    H164502   3.628   2.732   2.060  1.6315  0.1943 -1.1359
14337TIP3    H264503   3.533   2.637   1.990  0.3028 -0.2044  1.1083
14338TIP3   OH264504   1.684   6.182  14.809  0.5843  0.3853 -0.1386
14338TIP3    H164505   1.652   6.115  14.748  0.2092  0.4638 -0.0320
14338TIP3    H264506   1.700   6.134  14.891 -0.1504  0.5082  0.0827
14339TIP3   OH264507   6.261   3.624  12.065 -0.2127 -0.1236 -0.1120
14339TIP3    H164508   6.174   3.587  12.049 -0.7754  1.6144 -1.4030
14339TIP3    H264509   6.259   3.709  12.021  0.9845  1.4717  2.6522
14340TIP3   OH264510   3.978   0.600  16.526 -0.0391  0.5854  0.0575
14340TIP3    H164511   3.973   0.509  16.555  1.4475  0.3775 -0.2415
14340TIP3    H264512   4.016   0.647  16.600 -2.3224  1.3223  0.8416
14341TIP3   OH264513   0.372   1.494  16.632 -0.1896 -0.4785 -0.3972
14341TIP3    H164514   0.312   1.493  16.707 -1.3319 -2.9207 -1.2367
14341TIP3    H264515   0.317   1.474  16.557  1.1052  0.9158 -1.8026
14342TIP3   OH264516   3.969   2.838  15.495  0.0631 -0.1640 -0.2952
14342TIP3    H164517   3.948   2.906  15.558  0.0008 -0.1698 -0.3097
14342TIP3    H264518   3.904   2.849  15.425  0.4816  0.1997 -0.6308
14343TIP3   OH264519   4.067   1.379  16.372 -0.2552 -0.2257  0.3550
14343TIP3    H164520   4.097   1.291  16.351  0.4897  0.4488 -1.7032
14343TIP3    H264521   4.143   1.435  16.354 -1.0880  0.9565  0.3917
14344TIP3   OH264522   1.920   5.377  12.809 -0.2766 -0.9843  0.0998
14344TIP3    H164523   1.961   5.296  12.778  1.2955  0.0957 -0.7731
14344TIP3    H264524   1.929   5.438  12.736 -0.0854  0.4394  1.2725
14345TIP3   OH264525   0.128   1.340  14.412 -0.1804 -0.0092 -0.1301
14345TIP3    H164526   0.064   1.314  14.345  0.8046  3.1792 -2.5928
14345TIP3    H264527   0.088   1.415  14.456 -0.6162 -1.7813  2.7358
14346TIP3   OH264528   1.671   4.141  11.319 -0.0072 -0.2420  0.3515
14346TIP3    H164529   1.598   4.152  11.258  0.8653 -0.0382 -0.6888
14346TIP3    H264530   1.630   4.137  11.405 -1.2157  0.2843 -0.1750
14347TIP3   OH264531   4.209   1.915   2.648 -0.2820 -0.4710 -0.6525
14347TIP3    H164532   4.117   1.944   2.640 -0.6206 -1.4600 -0.4343
14347TIP3    H264533   4.217   1.844   2.584  0.2960 -0.4911 -0.5605
14348TIP3   OH264534   2.069   0.551  13.925  0.1255  0.0163 -0.1334
14348TIP3    H164535   2.057   0.646  13.928 -1.3666 -0.1675  0.0581
14348TIP3    H264536   2.057   0.528  13.833  1.5615  0.1218 -0.3732
14349TIP3   OH264537   4.459   2.201   0.595  0.6771  0.1372 -0.5325
14349TIP3    H164538   4.538   2.235   0.637 -0.2359  1.4877  0.1494
14349TIP3    H264539   4.416   2.149   0.664  1.5386 -1.6081 -1.2580
14350TIP3   OH264540   5.209   5.734  11.047 -0.0491 -0.4231 -0.1166
14350TIP3    H164541   5.117   5.713  11.062 -0.4305  1.0016 -0.3251
14350TIP3    H264542   5.209   5.786  10.966  0.7041  1.0904  0.8161
14351TIP3   OH264543   4.408   4.397  14.154  0.9197 -0.3754 -0.3117
14351TIP3    H164544   4.450   4.403  14.068 -0.3314  0.0949 -0.9163
14351TIP3    H264545   4.459   4.456  14.209  1.7654 -0.7176 -0.7097
14352TIP3   OH264546   3.335   5.431   1.441  0.6748 -0.3360 -0.5084
14352TIP3    H164547   3.416   5.382   1.426  0.6608 -1.4265  2.3459
14352TIP3    H264548   3.363   5.509   1.488  0.3173  0.8048 -2.1016
14353TIP3   OH264549   1.223   5.333  16.274 -0.9855 -0.1926 -0.1279
14353TIP3    H164550   1.155   5.376  16.221 -0.8380 -0.3097 -0.4121
14353TIP3    H264551   1.301   5.336  16.219 -0.1090  2.1137  1.1371
14354TIP3   OH264552   5.882   2.479  16.773 -0.3620  0.2350  0.2859
14354TIP3    H164553   5.960   2.468  16.828  0.7843 -2.3696 -1.6009
14354TIP3    H264554   5.904   2.553  16.716  0.9163 -0.5942 -0.3691
14355TIP3   OH264555   0.299   6.629   4.641 -0.2472 -0.4858 -0.3099
14355TIP3    H164556   0.269   6.559   4.699  0.1326 -0.0359  0.4334
14355TIP3    H264557   0.254   6.611   4.558 -1.7342 -0.4505  0.4476
14356TIP3   OH264558   3.646   3.604   2.824 -0.0577 -0.1982 -0.1574
14356TIP3    H164559   3.697   3.684   2.808  1.1492 -1.0117 -0.5819
14356TIP3    H264560   3.555   3.630   2.813  0.4051  0.5265 -3.3042
14357TIP3   OH264561   2.841   0.080  15.180 -0.7271 -0.2437  0.1591
14357TIP3    H164562   2.821   0.084  15.273  1.2445  0.2846  0.6156
14357TIP3    H264563   2.864   0.170  15.157 -0.7238 -0.4606 -0.7226
14358TIP3   OH264564   4.694   6.433  16.723 -0.3135 -0.3823  0.3522
14358TIP3    H164565   4.731   6.520  16.736 -0.2500  0.0327 -2.0827
14358TIP3    H264566   4.724   6.382  16.799  0.0049  1.5655  1.6023
14359TIP3   OH264567   4.680   6.672   3.070 -0.1136  0.1846  0.3907
14359TIP3    H164568   4.605   6.715   3.112  0.7564  0.8360  1.3112
14359TIP3    H264569   4.654   6.663   2.979 -1.0343  1.0446  0.5505
14360TIP3   OH264570   4.039   4.782  14.229 -0.0599  0.2599 -0.0057
14360TIP3    H164571   4.057   4.692  14.258 -0.6791  0.1917  0.1845
14360TIP3    H264572   4.092   4.793  14.151 -0.0833 -0.3243 -0.1098
14361TIP3   OH264573   5.454   1.498  10.978 -0.2389 -0.6009 -0.1914
14361TIP3    H164574   5.448   1.516  11.072 -1.8909  2.4477 -0.7469
14361TIP3    H264575   5.449   1.402  10.972 -0.0762 -0.8974  2.7926
14362TIP3   OH264576   2.133   0.019  17.360  0.6363 -0.4177  0.0073
14362TIP3    H164577   2.175   0.104  17.342  0.4277 -0.1243  0.8708
14362TIP3    H264578   2.150  -0.033  17.281  1.0094  0.3298 -0.4177
14363TIP3   OH264579   6.229   4.318  12.638  0.4044  0.5206  0.1647
14363TIP3    H164580   6.273   4.290  12.718  1.2904 -1.4265 -0.9327
14363TIP3    H264581   6.136   4.303  12.655  0.4408  1.2966  1.2186
14364TIP3   OH264582   5.187   4.453  14.601  0.9174 -0.2372 -0.2495
14364TIP3    H164583   5.279   4.426  14.593  1.0070  0.2733 -1.1290
14364TIP3    H264584   5.137   4.372  14.588  1.2467 -0.5347  0.3291
14365TIP3   OH264585   4.039   4.059  13.812 -0.2836  0.5271 -0.0359
14365TIP3    H164586   3.977   4.087  13.744 -1.6668 -1.7427  0.1729
14365TIP3    H264587   3.993   4.077  13.894  0.0148  0.3021  0.1818
14366TIP3   OH264588   0.127   3.901  14.166  0.3654  0.4901  0.5105
14366TIP3    H164589   0.212   3.863  14.142 -0.7386 -0.9027 -1.4129
14366TIP3    H264590   0.063   3.835  14.141 -1.4271  2.2477  0.2339
14367TIP3   OH264591   3.239   3.053   1.937  0.1395 -0.0377  0.3224
14367TIP3    H164592   3.317   2.998   1.945 -0.8999 -1.7742 -0.8351
14367TIP3    H264593   3.212   3.070   2.028  0.8711 -0.8696  0.7088
14368TIP3   OH264594   6.360   2.356  16.235  0.4364  0.5135 -0.3113
14368TIP3    H164595   6.337   2.448  16.250 -0.8029 -0.0490  1.4573
14368TIP3    H264596   6.451   2.349  16.266 -0.3280  0.5971  2.1350
14369TIP3   OH264597   2.809   6.660   2.653 -0.1051 -0.1836  0.6146
14369TIP3    H164598   2.763   6.600   2.594  0.7024 -1.4070  1.1919
14369TIP3    H264599   2.790   6.747   2.618  0.5717 -0.8731 -1.6369
14370TIP3   OH264600   1.690   0.680   1.046  0.3643 -0.0760 -0.0890
14370TIP3    H164601   1.779   0.662   1.014  0.9598  1.7420  0.4270
14370TIP3    H264602   1.658   0.750   0.990 -0.1925  0.2562  0.6263
14371TIP3   OH264603   6.273   6.355  10.860  0.2153 -0.3121 -0.0061
14371TIP3    H164604   6.359   6.388  10.886  0.0266  0.7982 -0.7178
14371TIP3    H264605   6.235   6.425  10.807 -1.2717 -0.6282  0.5699
14372TIP3   OH264606   0.670   1.828  14.968  0.7018 -0.0665 -0.0774
14372TIP3    H164607   0.658   1.914  15.007 -3.5427 -0.3933 -0.1836
14372TIP3    H264608   0.687   1.845  14.875  4.5930  0.5878  0.6160
14373TIP3   OH264609   2.522   4.266  13.775  0.8912  0.5200 -0.1066
14373TIP3    H164610   2.450   4.210  13.803  0.7132  1.1882  0.8148
14373TIP3    H264611   2.558   4.302  13.857  0.4129  2.4865 -0.7098
14374TIP3   OH264612   6.119   6.434   5.295 -0.3040  0.8935  0.3517
14374TIP3    H164613   6.125   6.371   5.366  0.8277  0.8674  0.2439
14374TIP3    H264614   6.137   6.519   5.336 -2.6840  1.3268  0.6751
14375TIP3   OH264615   3.534   3.429   3.727 -0.1363  0.0809 -0.0465
14375TIP3    H164616   3.585   3.439   3.807 -1.1902 -0.6534  0.7492
14375TIP3    H264617   3.459   3.487   3.739 -0.5952 -0.4588 -0.2418
14376TIP3   OH264618   2.303   5.456   3.647  0.2346  0.2352 -0.0844
14376TIP3    H164619   2.344   5.519   3.589  1.2030  0.5668  0.9071
14376TIP3    H264620   2.234   5.415   3.595  0.0460  1.6166 -0.9456
14377TIP3   OH264621   5.016   5.212  11.515 -0.4962  0.0853 -0.2263
14377TIP3    H164622   5.089   5.263  11.550 -0.8209 -0.3224  1.1232
14377TIP3    H264623   5.036   5.122  11.540 -0.4318 -0.3384 -1.6897
14378TIP3   OH264624   5.224   5.009   0.543 -1.1798 -0.6656 -0.3032
14378TIP3    H164625   5.314   5.000   0.511 -1.1510 -0.3367 -0.3232
14378TIP3    H264626   5.213   4.937   0.605 -0.6877 -0.3255  0.1842
14379TIP3   OH264627   6.206   5.098  16.815  0.3879  0.4702 -0.2107
14379TIP3    H164628   6.271   5.033  16.787  1.3194  0.8465  0.9712
14379TIP3    H264629   6.187   5.074  16.905 -4.0331 -1.9332 -1.4859
14380TIP3   OH264630   4.186   6.539  13.885 -0.5540 -0.7199 -0.0628
14380TIP3    H164631   4.161   6.583  13.803 -0.9827  1.0397  0.9490
14380TIP3    H264632   4.162   6.448  13.872 -1.8602 -0.2204 -1.4237
14381TIP3   OH264633   1.431   5.519  15.872 -0.6037  0.0176  0.4242
14381TIP3    H164634   1.391   5.439  15.905 -1.0862 -0.2608 -0.7759
14381TIP3    H264635   1.511   5.489  15.828  1.5340  0.6356  3.5174
14382TIP3   OH264636   1.182   6.772  16.296 -0.0843 -0.1922 -0.2827
14382TIP3    H164637   1.272   6.770  16.326  0.3661  3.3552 -0.9898
14382TIP3    H264638   1.134   6.820  16.364 -0.9263  0.0143 -0.9955
14383TIP3   OH264639   5.679   3.082   4.675  0.2493  0.0122  0.3196
14383TIP3    H164640   5.766   3.122   4.672  0.6636 -0.6278  2.3939
14383TIP3    H264641   5.625   3.138   4.619  1.8618  0.6832 -0.6459
14384TIP3   OH264642   6.702   1.512  16.610  0.0069 -0.3777  0.1489
14384TIP3    H164643   6.692   1.579  16.677  0.2663 -2.0568  1.9663
14384TIP3    H264644   6.619   1.515  16.561 -0.7601  0.0132  1.4070
14385TIP3   OH264645   2.336   2.626   3.290  0.4254 -0.3688  0.5012
14385TIP3    H164646   2.389   2.704   3.278 -0.9916  0.5048 -0.4107
14385TIP3    H264647   2.286   2.643   3.370  1.5778 -1.2471  1.4370
14386TIP3   OH264648   2.461   2.286   0.597  0.0806 -0.2904  0.2685
14386TIP3    H164649   2.537   2.281   0.537 -0.5050 -2.3343 -0.3934
14386TIP3    H264650   2.387   2.260   0.542 -0.8262  0.0157  1.3411
14387TIP3   OH264651   6.108   2.895  16.854 -0.4036  0.3683 -0.4912
14387TIP3    H164652   6.026   2.943  16.840  0.2453  1.5054 -0.4972
14387TIP3    H264653   6.087   2.805  16.829 -1.7173  0.5834 -0.2508
14388TIP3   OH264654   1.403   4.816  11.312  0.1985  0.4929 -0.1092
14388TIP3    H164655   1.331   4.772  11.267 -0.0653 -1.2807  1.8994
14388TIP3    H264656   1.462   4.845  11.241 -1.2427 -0.2069 -1.6607
14389TIP3   OH264657   3.378   6.044  14.525 -0.2726  0.2600 -0.3718
14389TIP3    H164658   3.310   6.092  14.573  0.3130 -0.0074  0.7580
14389TIP3    H264659   3.429   6.000  14.593  1.0299  0.4381 -1.1960
14390TIP3   OH264660   0.428   0.224   2.523  0.5762 -0.3621 -0.2155
14390TIP3    H164661   0.474   0.281   2.585  1.0196 -1.0944  0.1446
14390TIP3    H264662   0.486   0.149   2.512  0.5037 -0.2567 -1.5268
14391TIP3   OH264663   1.321   3.795  13.780 -0.3966  0.1296 -0.3500
14391TIP3    H164664   1.300   3.782  13.872 -0.4308 -0.8629 -0.4789
14391TIP3    H264665   1.383   3.867  13.779 -0.3359  0.0986  0.4605
14392TIP3   OH264666   6.274   3.515   5.935  0.4789 -0.0666 -0.3826
14392TIP3    H164667   6.356   3.494   5.981 -0.1493 -0.3018  0.6534
14392TIP3    H264668   6.212   3.536   6.004 -0.0713  1.1172 -1.2047
14393TIP3   OH264669   0.570   2.812  15.876 -0.2583  0.4404  0.3389
14393TIP3    H164670   0.480   2.827  15.903 -0.7984 -0.4248 -0.8957
14393TIP3    H264671   0.623   2.840  15.951 -1.5267  1.2184  0.9706
14394TIP3   OH264672   6.138   0.104   2.250 -0.2160 -0.4268 -0.1825
14394TIP3    H164673   6.170   0.179   2.300 -0.9190 -0.7294  0.7624
14394TIP3    H264674   6.217   0.056   2.224  0.1764 -0.1662  0.5005
14395TIP3   OH264675   6.540   1.676  15.716  0.5641  0.0782  0.3930
14395TIP3    H164676   6.573   1.700  15.803  0.0926 -0.0711  0.6162
14395TIP3    H264677   6.451   1.646  15.732  0.4261  0.1855 -0.1634
14396TIP3   OH264678   5.061   3.571  12.346 -0.5894  0.1616 -0.1163
14396TIP3    H164679   5.015   3.654  12.332  0.7598  0.9292 -0.1723
14396TIP3    H264680   5.041   3.518  12.269  2.3491  2.2754 -2.6002
14397TIP3   OH264681   0.780   1.181   1.335 -0.3038 -0.1755  0.4518
14397TIP3    H164682   0.746   1.201   1.248  2.2251  0.7121 -0.4183
14397TIP3    H264683   0.727   1.107   1.365 -2.4769  0.6880 -1.0162
14398TIP3   OH264684   3.577   5.735  16.210  0.2661 -0.2721  0.2388
14398TIP3    H164685   3.653   5.752  16.266 -0.2222 -0.4067  0.9696
14398TIP3    H264686   3.568   5.815  16.158  0.1467  0.2846  1.0731
14399TIP3   OH264687   3.432   2.928  13.277 -0.1176 -0.0681  0.4175
14399TIP3    H164688   3.358   2.938  13.337 -0.3537 -0.0621  0.1309
14399TIP3    H264689   3.509   2.924  13.334 -0.3600 -0.3161  0.7361
14400TIP3   OH264690   6.719   4.951  14.753  0.4945  0.2542 -0.0685
14400TIP3    H164691   6.784   4.926  14.818 -0.9571  1.0395  1.7717
14400TIP3    H264692   6.762   5.018  14.700  2.2394 -1.5154 -1.0091
14401TIP3   OH264693   2.393   2.722  12.522 -0.3676 -0.1348  0.0324
14401TIP3    H164694   2.457   2.655  12.545 -0.7877 -0.2953  0.7926
14401TIP3    H264695   2.407   2.791  12.587 -0.0286  0.4587 -0.6633
14402TIP3   OH264696   5.151   2.065   2.939 -0.1868  0.7294 -0.4608
14402TIP3    H164697   5.105   1.999   2.992 -1.1723  1.6721 -0.0890
14402TIP3    H264698   5.214   2.015   2.887  0.1474 -0.3391  0.9051
14403TIP3   OH264699   3.937   1.125   3.174 -0.5492  0.2584 -0.4719
14403TIP3    H164700   3.908   1.034   3.175 -0.7192  0.3131 -0.4026
14403TIP3    H264701   3.906   1.161   3.257  0.6347  0.0278  0.0925
14404TIP3   OH264702   0.047   0.977  16.706  0.2825 -0.1134 -0.2619
14404TIP3    H164703  -0.045   0.950  16.699 -0.1429  0.6076  1.7450
14404TIP3    H264704   0.094   0.915  16.650 -1.2475 -1.5636 -0.0538
14405TIP3   OH264705   0.437   3.736  12.417  0.4919 -0.3291 -0.8194
14405TIP3    H164706   0.491   3.786  12.355 -0.1819  2.3336  0.5925
14405TIP3    H264707   0.485   3.742  12.500 -1.8092  2.0045  0.4468
14406TIP3   OH264708   6.288   0.178   2.696 -0.0235  0.3106  0.0707
14406TIP3    H164709   6.359   0.135   2.745  0.8036 -1.5333 -2.5386
14406TIP3    H264710   6.326   0.261   2.668  0.7733 -0.2125 -0.4447
14407TIP3   OH264711   3.115   0.193   1.021  0.2699 -0.0740 -0.2816
14407TIP3    H164712   3.178   0.213   1.090 -0.7899 -0.5914  0.8827
14407TIP3    H264713   3.048   0.262   1.030 -1.2714 -1.6379  1.0450
14408TIP3   OH264714   3.578   1.793   2.381 -0.4206  0.6571 -0.4912
14408TIP3    H164715   3.558   1.850   2.307 -1.3580  0.1832 -0.6211
14408TIP3    H264716   3.548   1.706   2.353  1.9709 -0.1470 -0.7203
14409TIP3   OH264717   1.355   5.988   0.047  0.8247 -0.7487 -0.1750
14409TIP3    H164718   1.398   5.925  -0.012 -1.7060 -1.6152 -1.2113
14409TIP3    H264719   1.320   5.935   0.118  0.0972 -0.2825 -0.1801
14410TIP3   OH264720   4.709   3.364  13.960  0.1739 -0.1552  0.3583
14410TIP3    H164721   4.656   3.361  14.039  0.9901 -1.2722  0.8857
14410TIP3    H264722   4.741   3.454  13.956 -1.1156  0.3250  0.4414
14411TIP3   OH264723   2.532   4.687   5.790  0.2971  0.7317  0.1870
14411TIP3    H164724   2.586   4.637   5.851  1.6505  0.2211 -1.3461
14411TIP3    H264725   2.494   4.757   5.844 -1.5954 -1.7566  2.3811
14412TIP3   OH264726   5.107   3.805  13.501  0.4357 -0.2834 -0.4848
14412TIP3    H164727   5.112   3.805  13.406  1.7793  0.0775 -0.4455
14412TIP3    H264728   5.198   3.789  13.529 -0.2836 -2.6789  0.7360
14413TIP3   OH264729   3.380   3.564   1.811 -0.3232  0.5095 -0.1762
14413TIP3    H164730   3.462   3.585   1.856 -2.0329  2.1901  2.4358
14413TIP3    H264731   3.345   3.490   1.861  0.2845 -1.2975 -2.2925
14414TIP3   OH264732   5.890   5.116  13.042 -0.0762 -0.0929  0.3191
14414TIP3    H164733   5.854   5.100  12.955 -1.0795  0.5893  0.5868
14414TIP3    H264734   5.902   5.211  13.045 -0.2055 -0.0957  0.9800
14415TIP3   OH264735   2.764   5.972   6.024 -0.6559 -0.1536  0.2970
14415TIP3    H164736   2.804   5.907   6.081  0.4877  0.7750  0.6039
14415TIP3    H264737   2.782   6.056   6.067  1.4003  0.7275 -1.9763
14416TIP3   OH264738   3.573   3.291   0.489  0.2730 -0.2111 -0.1947
14416TIP3    H164739   3.525   3.346   0.551  0.6015 -0.8166  0.6179
14416TIP3    H264740   3.507   3.261   0.427  0.1289  1.2693 -0.7841
14417TIP3   OH264741   2.622   2.951   0.880  0.0415  0.3264 -0.1540
14417TIP3    H164742   2.691   2.894   0.914  1.6716  1.1071 -1.9412
14417TIP3    H264743   2.561   2.960   0.952  1.5451 -0.8326  1.3530
14418TIP3   OH264744   3.323   2.684  16.989  0.1402 -0.4551 -0.5273
14418TIP3    H164745   3.409   2.694  16.949  1.1531 -0.7653  1.4546
14418TIP3    H264746   3.289   2.602  16.952  0.3429  0.0263 -1.8603
14419TIP3   OH264747   5.722   6.250   4.434  0.0106  0.2533 -0.5952
14419TIP3    H164748   5.701   6.272   4.525 -0.8116  1.8939 -1.1430
14419TIP3    H264749   5.699   6.158   4.426 -3.0991  0.8546  0.0414
14420TIP3   OH264750   2.561   4.023   0.117 -0.0598 -0.1608 -0.2884
14420TIP3    H164751   2.654   4.034   0.133  0.1126 -0.4178 -1.0679
14420TIP3    H264752   2.525   4.112   0.117  0.2407 -0.0406 -0.3265
14421TIP3   OH264753   5.491   2.527   3.874 -0.7567  0.0403 -0.1475
14421TIP3    H164754   5.440   2.453   3.906  0.0250 -1.0135 -1.2558
14421TIP3    H264755   5.428   2.599   3.870 -1.6242 -0.6513  0.5862
14422TIP3   OH264756   1.960   5.073   0.660 -0.3431 -0.1477  0.5603
14422TIP3    H164757   1.991   5.089   0.749  0.9237 -0.7670  0.2549
14422TIP3    H264758   1.866   5.093   0.663 -0.9372 -2.7125  2.7225
14423TIP3   OH264759   1.082   4.570  16.276 -0.3035  0.2774 -0.1277
14423TIP3    H164760   1.099   4.597  16.366 -0.4391 -0.8924  0.2669
14423TIP3    H264761   0.987   4.570  16.268 -0.3023  0.0114 -0.1509
14424TIP3   OH264762   5.969   5.941   2.857  0.0036  0.1259  0.6876
14424TIP3    H164763   5.953   5.863   2.803  1.4892  0.4978 -0.3792
14424TIP3    H264764   5.890   5.994   2.847 -0.4040 -0.5520  0.1845
14425TIP3   OH264765   0.321   1.665  15.968 -0.0034  0.0142 -0.0524
14425TIP3    H164766   0.362   1.620  15.894 -1.4118 -0.2761 -0.7096
14425TIP3    H264767   0.318   1.600  16.038 -0.3759 -0.3455 -0.3922
14426TIP3   OH264768   0.821   3.777  12.850  0.1981  0.3439 -0.2244
14426TIP3    H164769   0.790   3.805  12.936 -0.1720 -2.0430  0.4953
14426TIP3    H264770   0.891   3.839  12.829  0.2500  1.0409  1.7586
14427TIP3   OH264771   0.798   2.256  13.616 -0.1770  0.0694 -0.0765
14427TIP3    H164772   0.861   2.298  13.559  0.2219  1.1329  1.0854
14427TIP3    H264773   0.792   2.166  13.585  0.7454  0.3666 -1.1502
14428TIP3   OH264774   3.012   4.306   3.411  0.6989  0.0021 -0.1954
14428TIP3    H164775   3.063   4.364   3.468  1.6751  1.7443 -2.6525
14428TIP3    H264776   2.987   4.362   3.337 -1.2644 -1.9021 -1.0737
14429TIP3   OH264777   1.021   2.045   4.900 -0.0134 -0.5290  0.0176
14429TIP3    H164778   1.103   2.048   4.851  0.2809  0.4436  0.5268
14429TIP3    H264779   1.010   2.135   4.933 -1.1393 -0.7193  0.1849
14430TIP3   OH264780   0.620   2.222   0.133  0.3078  0.8341  0.1176
14430TIP3    H164781   0.612   2.152   0.197  1.0073  1.7966  1.2962
14430TIP3    H264782   0.613   2.303   0.184  0.5223  1.6327 -1.0704
14431TIP3   OH264783   0.168   3.993   0.066 -0.4296  0.1207 -0.9414
14431TIP3    H164784   0.140   3.967   0.154  1.7072  1.5165  0.2517
14431TIP3    H264785   0.195   4.085   0.076  1.1402 -0.0815 -2.7074
14432TIP3   OH264786   5.881   2.965  11.295 -0.0336 -0.4724  0.0509
14432TIP3    H164787   5.957   2.906  11.291 -0.0410 -0.5098  0.4700
14432TIP3    H264788   5.917   3.052  11.278  0.3155 -0.3063  1.5642
14433TIP3   OH264789   6.172   3.232  11.319 -0.1686  0.2398 -0.5193
14433TIP3    H164790   6.108   3.184  11.266  0.2539 -1.0131  0.0461
14433TIP3    H264791   6.244   3.251  11.259 -1.7742  3.3049 -1.6517
14434TIP3   OH264792   4.697   5.412   3.404 -0.2220  0.1029 -0.2415
14434TIP3    H164793   4.611   5.378   3.428  0.5118 -1.0217  0.9601
14434TIP3    H264794   4.681   5.465   3.326 -1.9630 -0.2281 -0.1572
14435TIP3   OH264795   0.914   0.185   6.635  0.5500  0.3169 -0.1837
14435TIP3    H164796   0.983   0.248   6.657  0.9148  0.3672 -1.3861
14435TIP3    H264797   0.948   0.140   6.557 -0.7532  0.3225 -0.7735
14436TIP3   OH264798   2.319   0.491  12.870  0.7237  0.6850  0.8601
14436TIP3    H164799   2.249   0.516  12.811  1.4823  0.6858 -0.0586
14436TIP3    H264800   2.398   0.530  12.833  1.4781 -0.6420  0.9706
14437TIP3   OH264801   5.263   5.472  15.790 -0.4680 -0.1043  0.3948
14437TIP3    H164802   5.175   5.439  15.808 -0.1750 -0.6680  0.8044
14437TIP3    H264803   5.295   5.419  15.717 -0.7708  0.6450 -0.3003
14438TIP3   OH264804   0.390   2.175  17.279  0.3156  0.0228  0.3490
14438TIP3    H164805   0.325   2.170  17.209  0.7513  0.5647 -0.0915
14438TIP3    H264806   0.346   2.135  17.355 -0.1498 -0.5808 -0.2262
14439TIP3   OH264807   6.767   5.862   2.082  0.5299 -0.0043  0.3836
14439TIP3    H164808   6.687   5.830   2.124  2.1628  0.0147  3.8974
14439TIP3    H264809   6.758   5.957   2.082  1.1146  0.0929  2.2543
14440TIP3   OH264810   1.515   0.623  14.993 -0.0902 -0.2107 -0.2694
14440TIP3    H164811   1.471   0.539  15.006  0.5301 -0.2792  1.8178
14440TIP3    H264812   1.456   0.673  14.937 -2.0179 -0.9157  1.0250
14441TIP3   OH264813   2.068   4.393   0.298 -0.3050 -0.4892  0.5867
14441TIP3    H164814   2.162   4.385   0.313 -0.1401 -0.1899 -0.2470
14441TIP3    H264815   2.040   4.463   0.357 -0.4626 -2.1251  2.6040
14442TIP3   OH264816   5.119   4.222   2.357  0.3747 -0.0984  0.1628
14442TIP3    H164817   5.116   4.142   2.304  1.8309  0.1125 -0.2825
14442TIP3    H264818   5.105   4.293   2.294  0.4681  0.0611  0.3214
14443TIP3   OH264819   0.510   0.064   2.153 -0.5077 -0.1204  0.2447
14443TIP3    H164820   0.495   0.001   2.082  1.0605 -0.7540  0.4435
14443TIP3    H264821   0.478   0.147   2.117 -0.3825 -0.5624 -0.9383
14444TIP3   OH264822   6.473   3.036   3.978  0.5688 -0.7788  0.1408
14444TIP3    H164823   6.494   3.077   4.062  0.4923 -0.2069 -0.1093
14444TIP3    H264824   6.385   3.001   3.990  0.4176 -0.3907  0.1929
14445TIP3   OH264825   1.523   4.464   3.847  0.4323 -0.5399  0.8148
14445TIP3    H164826   1.568   4.387   3.883  0.1866 -0.4815  1.2619
14445TIP3    H264827   1.440   4.429   3.813  0.6605 -0.5929  0.3097
14446TIP3   OH264828   5.855   5.248   1.185 -0.3226 -0.6740  0.4556
14446TIP3    H164829   5.917   5.176   1.197  0.1806 -0.2778  0.2714
14446TIP3    H264830   5.883   5.290   1.104  1.4858  1.7866  2.2034
14447TIP3   OH264831   5.796   3.450   4.748 -0.3478  0.5948  0.7508
14447TIP3    H164832   5.862   3.427   4.813 -0.5725  0.4018  0.9121
14447TIP3    H264833   5.811   3.390   4.675 -1.2472 -0.4215  1.3725
14448TIP3   OH264834   4.144   3.682   4.931 -0.2556 -0.2140  0.0265
14448TIP3    H164835   4.112   3.617   4.869  0.7987 -0.9398  0.2138
14448TIP3    H264836   4.105   3.657   5.015  1.0194 -1.2852  0.3179
14449TIP3   OH264837   5.071   0.894   0.246  0.9458 -0.0197  0.3673
14449TIP3    H164838   5.047   0.810   0.284  0.3384  0.2007  0.4798
14449TIP3    H264839   5.062   0.882   0.152 -0.9202  0.4342  0.4485
14450TIP3   OH264840   0.410   5.353  11.865  0.3586  0.5520 -0.0100
14450TIP3    H164841   0.349   5.374  11.794 -0.0686  0.8295  0.4316
14450TIP3    H264842   0.486   5.407  11.848 -0.2744  1.6258  0.4745
14451TIP3   OH264843   2.214   2.659  12.214 -1.1320  0.6786  0.2369
14451TIP3    H164844   2.284   2.661  12.280  0.6158  1.0580 -1.5256
14451TIP3    H264845   2.138   2.623  12.260 -0.3225  1.9240  2.7351
14452TIP3   OH264846   5.102   3.351   5.351  0.5086 -0.3921 -0.3091
14452TIP3    H164847   5.063   3.264   5.336  1.4101 -0.8676  0.0573
14452TIP3    H264848   5.096   3.363   5.446  0.6262 -0.1577 -0.3325
14453TIP3   OH264849   0.584   1.487  10.713 -0.4114 -0.0356  0.3614
14453TIP3    H164850   0.492   1.489  10.740  0.1553  0.0445  2.4882
14453TIP3    H264851   0.629   1.446  10.787  1.3487  0.5370 -0.3592
14454TIP3   OH264852   3.229   6.432  11.251  0.7363 -0.1906 -0.2314
14454TIP3    H164853   3.280   6.426  11.170  2.4876  0.5435  0.7658
14454TIP3    H264854   3.156   6.490  11.228  1.3783  0.2593 -1.2027
14455TIP3   OH264855   2.006   2.566  13.588 -0.4937 -0.0267  0.2383
14455TIP3    H164856   2.045   2.577  13.674 -0.4493  1.0937  0.0910
14455TIP3    H264857   1.919   2.605  13.596 -0.0073  1.2902 -0.5612
14456TIP3   OH264858   0.137   4.721   0.284 -0.5530  0.3312 -0.3580
14456TIP3    H164859   0.059   4.753   0.330 -0.5248  0.0168 -0.0832
14456TIP3    H264860   0.187   4.799   0.262  0.2260  0.4188  1.5495
14457TIP3   OH264861   3.706   0.433  12.226  0.4001 -0.0466 -0.0445
14457TIP3    H164862   3.651   0.355  12.225 -1.2916  1.0833  0.4611
14457TIP3    H264863   3.749   0.434  12.141 -0.5318 -0.8615 -0.5405
14458TIP3   OH264864   1.319   1.909  17.287  0.0962 -0.3962  0.5191
14458TIP3    H164865   1.256   1.981  17.287  0.2851 -0.2141  1.4794
14458TIP3    H264866   1.268   1.831  17.264 -0.5125 -0.2735  1.4124
14459TIP3   OH264867   2.944   0.422   1.615 -0.6499  0.0599  0.6106
14459TIP3    H164868   3.011   0.380   1.561  0.6405 -0.5356  2.5642
14459TIP3    H264869   2.865   0.422   1.560  0.6893 -0.0218 -1.4334
14460TIP3   OH264870   4.981   2.445   5.541 -0.2170  0.1679  0.3224
14460TIP3    H164871   4.967   2.515   5.478  0.4249  0.5599  0.6062
14460TIP3    H264872   4.957   2.484   5.625  1.2805  0.4361  0.6394
14461TIP3   OH264873   0.449   0.994  16.511  0.1494 -0.4689  0.2746
14461TIP3    H164874   0.489   1.002  16.598 -2.7984  2.0718  1.6179
14461TIP3    H264875   0.469   1.077  16.468  0.3729 -1.1302 -0.9124
14462TIP3   OH264876   0.741   4.839   2.931  0.0741  0.0623  0.3646
14462TIP3    H164877   0.810   4.861   2.868  0.5901 -2.5547 -0.0834
14462TIP3    H264878   0.732   4.918   2.984  1.7429  1.3046 -1.0564
14463TIP3   OH264879   2.975   0.082  12.772  0.1354  0.0396  0.1601
14463TIP3    H164880   2.922   0.159  12.754 -1.8152 -1.2818 -0.0834
14463TIP3    H264881   2.962   0.025  12.696  2.2999 -0.1812 -0.1141
14464TIP3   OH264882   2.192   6.068   5.107  0.1621  1.1808  0.0911
14464TIP3    H164883   2.267   6.125   5.121  1.7005 -1.0117  1.4655
14464TIP3    H264884   2.228   5.979   5.109 -2.6001 -0.0737  2.2502
14465TIP3   OH264885   2.208   5.759   2.997 -0.2467 -0.1469 -0.5327
14465TIP3    H164886   2.220   5.672   3.035 -0.7302 -0.4010 -0.9509
14465TIP3    H264887   2.234   5.750   2.906 -1.3952 -0.1515 -0.8762
14466TIP3   OH264888   5.400   3.610  13.038  0.2450  0.5328  0.3976
14466TIP3    H164889   5.438   3.619  12.951 -0.9248  0.3375 -0.1469
14466TIP3    H264890   5.448   3.537  13.077  0.9538  0.7865  0.0225
14467TIP3   OH264891   2.764   1.964  14.642 -0.1842  0.1482 -0.2344
14467TIP3    H164892   2.677   2.003  14.647 -0.0473  0.4135  0.1717
14467TIP3    H264893   2.777   1.946  14.549 -1.2774 -1.3064 -0.1267
14468TIP3   OH264894   0.785   3.091  12.750 -0.5399  0.3613  0.1126
14468TIP3    H164895   0.769   3.185  12.758 -3.1849 -0.0687  1.0882
14468TIP3    H264896   0.799   3.078  12.656 -1.5233  1.5795 -0.2399
14469TIP3   OH264897   0.595   6.500  16.608  0.1464 -0.0426  0.3231
14469TIP3    H164898   0.646   6.426  16.640 -1.6625 -0.8243  1.6020
14469TIP3    H264899   0.561   6.471  16.523  0.2134 -0.3199  0.3895
14470TIP3   OH264900   3.427   3.230  15.485  0.1547 -0.3116  0.1270
14470TIP3    H164901   3.347   3.231  15.432  0.6279  0.4753 -0.6062
14470TIP3    H264902   3.415   3.158  15.546 -0.6341 -0.9192 -0.7270
14471TIP3   OH264903   6.152   6.728   3.663 -0.3638 -0.1606 -0.2482
14471TIP3    H164904   6.216   6.795   3.639 -0.1545 -0.2494  0.0465
14471TIP3    H264905   6.071   6.754   3.620 -0.1710  0.0499 -0.4795
14472TIP3   OH264906   1.017   2.513   5.563 -0.4304 -0.0475  0.2636
14472TIP3    H164907   1.084   2.569   5.604  1.4063 -0.5525 -1.8481
14472TIP3    H264908   0.985   2.565   5.489 -1.5390 -0.2939  0.5601
14473TIP3   OH264909   0.921   4.659  12.343 -0.2388  0.4440 -0.5221
14473TIP3    H164910   0.864   4.677  12.269  1.2550  1.3198 -1.5155
14473TIP3    H264911   1.004   4.701  12.320  0.9676 -1.1888  0.6242
14474TIP3   OH264912   0.711   6.192   1.014  0.0864  0.0961 -0.0380
14474TIP3    H164913   0.715   6.269   1.071  0.4162  1.0997 -1.3612
14474TIP3    H264914   0.695   6.228   0.927  2.1717 -1.1550 -1.0149
14475TIP3   OH264915   4.935   5.298  14.863  0.1666  0.0908  0.1624
14475TIP3    H164916   4.909   5.211  14.893  0.1409 -1.7916 -4.5205
14475TIP3    H264917   5.030   5.293  14.852  0.2802  0.9933  0.6250
14476TIP3   OH264918   5.843   0.479  15.667 -0.0154 -0.1156  0.2472
14476TIP3    H164919   5.760   0.520  15.641 -0.0929  0.2697  1.0734
14476TIP3    H264920   5.889   0.464  15.585 -0.1436  1.2959 -0.1101
14477TIP3   OH264921   1.417   3.325   0.320 -0.0903  0.2254 -0.5619
14477TIP3    H164922   1.393   3.391   0.254  0.3264  1.5864  0.6046
14477TIP3    H264923   1.420   3.374   0.402 -0.4548 -1.4163  0.4573
14478TIP3   OH264924   5.685   0.748  14.209  0.5913  0.1097  0.0057
14478TIP3    H164925   5.753   0.795  14.160 -0.5761  0.6436 -1.1538
14478TIP3    H264926   5.607   0.756  14.155 -0.0401 -1.8253  0.5565
14479TIP3   OH264927   2.103   1.317   0.741 -0.1637  0.2360 -0.2611
14479TIP3    H164928   2.183   1.354   0.778  0.7262 -0.2972 -1.5920
14479TIP3    H264929   2.118   1.315   0.647 -0.7067 -2.2024 -0.3712
14480TIP3   OH264930   1.201   3.490   1.713 -0.2425  0.4145 -0.0190
14480TIP3    H164931   1.230   3.554   1.779 -0.4894  1.3747 -0.8112
14480TIP3    H264932   1.125   3.448   1.752 -0.1212  0.6533  0.4887
14481TIP3   OH264933   3.302   1.941  12.181 -0.2451 -0.0595  0.3517
14481TIP3    H164934   3.394   1.920  12.165 -0.3363 -0.2154  0.0272
14481TIP3    H264935   3.300   2.037  12.183  0.0999 -0.0690  1.4405
14482TIP3   OH264936   3.307   0.083  13.890  0.1541 -0.0026 -0.0793
14482TIP3    H164937   3.322   0.178  13.884  1.1911 -0.1351  0.3591
14482TIP3    H264938   3.229   0.075  13.946  0.1272  0.5832 -0.0236
14483TIP3   OH264939   1.117   2.192  15.410  0.4235 -0.3270 -0.1102
14483TIP3    H164940   1.089   2.274  15.449  0.6872 -0.3119  0.0451
14483TIP3    H264941   1.178   2.154  15.473 -0.0889 -0.8872  0.0530
14484TIP3   OH264942   0.268   6.622   3.912 -0.2125 -0.4283  0.0751
14484TIP3    H164943   0.183   6.621   3.955  0.1894 -3.4102  1.0123
14484TIP3    H264944   0.322   6.678   3.968 -0.7641 -0.9845  1.1993
14485TIP3   OH264945   0.659   0.575   0.644 -0.1112  0.0602 -0.0786
14485TIP3    H164946   0.632   0.532   0.725  0.9515 -1.9074 -0.6962
14485TIP3    H264947   0.584   0.627   0.618 -1.5396 -1.5134  0.7051
14486TIP3   OH264948   5.246   3.578   5.295 -0.0075  0.0387  0.2956
14486TIP3    H164949   5.185   3.505   5.285 -1.1443  1.1628 -1.4906
14486TIP3    H264950   5.208   3.631   5.365 -1.2901  0.8657 -0.9778
14487TIP3   OH264951   3.442   1.490  13.405 -0.0798 -0.1680  0.7364
14487TIP3    H164952   3.384   1.419  13.434 -0.0313 -0.3522  0.3829
14487TIP3    H264953   3.527   1.469  13.443  1.4977 -3.3564 -3.6435
14488TIP3   OH264954   4.493   1.643   2.718  0.1540 -0.2011 -0.2313
14488TIP3    H164955   4.418   1.623   2.773  1.1683 -0.0579  1.2583
14488TIP3    H264956   4.536   1.559   2.704 -0.7107 -0.4266 -1.8098
14489TIP3   OH264957   3.788   2.845   3.011  0.3124 -1.0187  0.4447
14489TIP3    H164958   3.708   2.887   3.043  0.2044 -1.5401  0.8687
14489TIP3    H264959   3.762   2.803   2.929  0.7856  1.0263 -0.8413
14490TIP3   OH264960   2.088   0.084  16.262 -0.3605 -0.6014 -0.3229
14490TIP3    H164961   2.053   0.037  16.338 -0.3571  0.0410  0.0801
14490TIP3    H264962   2.160   0.029  16.231  0.4447 -0.2665  0.8851
14491TIP3   OH264963   3.852   3.699  11.807  0.0758 -0.4227 -0.1425
14491TIP3    H164964   3.867   3.744  11.891 -1.6994  0.0083 -0.0116
14491TIP3    H264965   3.846   3.770  11.743 -1.7176 -0.4762 -0.0954
14492TIP3   OH264966   1.317   2.751  16.494 -1.4046 -0.0659 -0.0132
14492TIP3    H164967   1.382   2.821  16.491 -0.5969 -0.8157 -0.7336
14492TIP3    H264968   1.367   2.673  16.518 -2.2382 -0.4608  0.4908
14493TIP3   OH264969   1.922   6.581  14.920  0.0177 -0.0081  0.0930
14493TIP3    H164970   1.903   6.672  14.897 -0.9121  0.1054  1.2196
14493TIP3    H264971   2.016   6.571  14.902 -0.0218  0.9453 -0.7352
14494TIP3   OH264972   1.648   5.347  14.044  0.4729 -0.2441 -0.9573
14494TIP3    H164973   1.617   5.409  13.978  1.0015  2.1712  0.9247
14494TIP3    H264974   1.602   5.372  14.124  1.5767 -1.5683  0.1395
14495TIP3   OH264975   3.759   2.642  13.397  0.0231  0.2725  0.1674
14495TIP3    H164976   3.830   2.632  13.460  0.4033  1.5006 -0.0369
14495TIP3    H264977   3.700   2.706  13.437 -0.0095  0.6526 -0.4709
14496TIP3   OH264978   3.336   2.617   3.617 -0.0837 -0.6990  0.5064
14496TIP3    H164979   3.429   2.633   3.635 -0.3909  2.8027 -0.2733
14496TIP3    H264980   3.290   2.681   3.672 -1.7559  0.3555 -1.9397
14497TIP3   OH264981   1.159   4.808   0.121 -0.1049 -0.1603  0.7115
14497TIP3    H164982   1.120   4.833   0.205 -1.1456 -1.3745  0.6165
14497TIP3    H264983   1.154   4.888   0.068 -0.9882  0.1535  1.2404
14498TIP3   OH264984   0.774   4.769  11.395 -0.1204  0.8167 -0.2954
14498TIP3    H164985   0.788   4.852  11.349  0.6521  0.3925 -0.8625
14498TIP3    H264986   0.736   4.712  11.330  1.5186  0.0318 -0.6177
14499TIP3   OH264987   0.194   0.598   3.172 -0.1411  0.2715  0.2248
14499TIP3    H164988   0.163   0.613   3.261  0.4044 -0.3755  0.5330
14499TIP3    H264989   0.221   0.506   3.171  0.2667  0.3927 -0.4805
14500TIP3   OH264990   2.949   6.090  16.122  0.3850  0.0464  0.0259
14500TIP3    H164991   2.972   6.039  16.044 -1.7684 -0.3183 -0.4281
14500TIP3    H264992   2.940   6.179  16.090  0.0874 -0.0008 -0.0222
14501TIP3   OH264993   2.258   2.460   1.004  0.1415 -0.4746 -0.1445
14501TIP3    H164994   2.166   2.434   1.010 -0.3539  1.0036 -0.7484
14501TIP3    H264995   2.296   2.401   0.939 -0.4745 -0.8585 -0.1630
14502TIP3   OH264996   2.051   2.532  15.889  0.1113  0.7363 -0.0173
14502TIP3    H164997   2.119   2.494  15.834 -0.8193 -1.2089  0.0884
14502TIP3    H264998   2.093   2.544  15.975  0.9809  1.8364 -0.5838
14503TIP3   OH264999   5.983   4.156   4.044 -0.2753 -0.0453 -0.0370
14503TIP3    H165000   5.913   4.202   3.997 -0.3806 -0.6465 -0.4879
14503TIP3    H265001   6.018   4.221   4.105  0.8894  1.2797 -1.9787
14504TIP3   OH265002   2.259   2.827  11.996 -0.2699  0.5749  0.2603
14504TIP3    H165003   2.334   2.771  11.976 -0.4451  0.3352  0.2738
14504TIP3    H265004   2.240   2.809  12.088 -0.2826  0.7077  0.2832
14505TIP3   OH265005   6.195   5.482   3.404  0.1460  0.5276  0.2526
14505TIP3    H165006   6.216   5.509   3.493 -1.2203  1.7450  0.2321
14505TIP3    H265007   6.277   5.491   3.356  0.4855  1.5321  0.9934
14506TIP3   OH265008   5.709   1.222   5.069  0.3956  0.2662 -0.0066
14506TIP3    H165009   5.798   1.255   5.058  0.2624  0.9444  0.8115
14506TIP3    H265010   5.693   1.229   5.163 -1.8180  3.7665 -0.4407
14507TIP3   OH265011   2.547   6.248  14.346 -0.0527  0.4894  0.5282
14507TIP3    H165012   2.537   6.339  14.376 -2.3481  0.1613  0.9402
14507TIP3    H265013   2.486   6.240  14.274  2.0386 -0.0600 -1.2917
14508TIP3   OH265014   5.830   2.768  14.829 -0.1318  0.1347  0.0056
14508TIP3    H165015   5.839   2.674  14.843  0.0918 -0.1388 -1.7669
14508TIP3    H265016   5.741   2.779  14.796  0.8208  0.0870 -2.8141
14509TIP3   OH265017   1.802   2.184  16.337  0.1106  0.5262 -0.1704
14509TIP3    H165018   1.817   2.161  16.428  2.1940  1.8803 -0.1130
14509TIP3    H265019   1.809   2.101  16.290 -0.4997 -0.1108  0.8126
14510TIP3   OH265020   5.525   0.937  14.396 -0.1116  0.1331  0.2412
14510TIP3    H165021   5.536   0.991  14.474 -2.0194  0.5431  0.2805
14510TIP3    H265022   5.549   0.848  14.424  0.3466  0.4749  0.9486
14511TIP3   OH265023   5.285   0.058  14.153  0.1668 -0.1128 -0.6760
14511TIP3    H165024   5.289   0.139  14.102  0.0637  1.3286  1.5164
14511TIP3    H265025   5.368   0.014  14.134  0.4576  0.7451 -1.4814
14512TIP3   OH265026   2.054   3.330  11.396  0.3792  0.9449 -0.2798
14512TIP3    H165027   2.045   3.295  11.484 -0.9016  0.7440 -0.4598
14512TIP3    H265028   1.982   3.394  11.388  1.0698  1.6798 -0.8497
14513TIP3   OH265029   0.824   3.924  14.936  0.5682 -0.5859 -0.7590
14513TIP3    H165030   0.820   3.887  15.024 -0.7013  1.3002  0.0543
14513TIP3    H265031   0.746   3.980  14.930  1.1858  0.1572 -2.6918
14514TIP3   OH265032   2.506   0.531   2.648  0.1653  0.0230 -0.0694
14514TIP3    H165033   2.412   0.546   2.640  0.2616  0.6101 -0.0850
14514TIP3    H265034   2.547   0.611   2.616  0.6506  0.5649  1.7638
14515TIP3   OH265035   3.117   3.020  13.159  0.5216 -0.6260 -0.1688
14515TIP3    H165036   3.058   3.079  13.207  1.6139  0.1417  0.2720
14515TIP3    H265037   3.177   2.987  13.225  2.7687  1.3083 -1.0945
14516TIP3   OH265038   2.321   2.229   3.227  0.0465  0.8936  0.5682
14516TIP3    H165039   2.279   2.281   3.296 -2.6985  0.2709 -0.5107
14516TIP3    H265040   2.259   2.157   3.210  1.1398  0.4081 -1.7761
14517TIP3   OH265041   5.107   2.179   1.399  0.4084  0.8840  0.2188
14517TIP3    H165042   5.098   2.256   1.343 -3.7141 -0.0019 -0.6952
14517TIP3    H265043   5.057   2.201   1.478  2.0182  0.2798  1.4768
14518TIP3   OH265044   2.283   3.845  16.773 -0.0854  0.0271  0.4117
14518TIP3    H165045   2.222   3.820  16.704  0.6385 -0.2105 -0.1580
14518TIP3    H265046   2.247   3.926  16.809  0.2714  0.9410 -1.2089
14519TIP3   OH265047   4.224   5.895  14.543 -0.5877 -0.8411  0.5604
14519TIP3    H165048   4.259   5.923  14.458 -0.5717  0.4964  0.9893
14519TIP3    H265049   4.131   5.878  14.526 -0.7059 -0.0439  0.3893
14520TIP3   OH265050   4.619   1.795   2.504 -0.0543  0.1875 -0.1845
14520TIP3    H165051   4.571   1.849   2.441 -0.0777  0.4455  0.0537
14520TIP3    H265052   4.551   1.749   2.553 -0.0908  0.9135  0.4773
14521TIP3   OH265053   0.590   2.287   5.734 -0.4784  0.3819  0.1734
14521TIP3    H165054   0.682   2.273   5.756  0.0993  0.6034 -1.9036
14521TIP3    H265055   0.550   2.200   5.740 -0.1846  0.3037  1.1933
14522TIP3   OH265056   4.441   1.844   1.054  0.4881 -0.5861  0.3763
14522TIP3    H165057   4.490   1.782   1.108 -0.2200 -1.1018  0.4397
14522TIP3    H265058   4.435   1.802   0.968  2.1275  0.4943 -0.3026
14523TIP3   OH265059   5.467   0.655  16.737  0.0346  0.3489  0.2728
14523TIP3    H165060   5.429   0.639  16.823  0.2972  2.4527  0.8387
14523TIP3    H265061   5.392   0.664  16.678 -0.3926  2.6378  1.0431
14524TIP3   OH265062   4.017   3.221  13.778 -0.2567  0.1848  0.7442
14524TIP3    H165063   4.047   3.133  13.757  2.9183  1.1279  0.7526
14524TIP3    H265064   3.996   3.218  13.872 -0.5250 -0.6179  0.6607
14525TIP3   OH265065   5.039   3.576   2.262 -0.3873 -0.2910  0.2879
14525TIP3    H165066   5.058   3.542   2.175 -1.2586 -2.5569  0.9014
14525TIP3    H265067   5.123   3.573   2.308 -0.3000 -0.9815  0.0933
14526TIP3   OH265068   6.218   2.154   3.133 -0.8019  0.3513  0.1370
14526TIP3    H165069   6.155   2.093   3.170 -2.1194  0.5754 -1.6253
14526TIP3    H265070   6.253   2.201   3.209 -0.8754 -1.4722  1.3868
14527TIP3   OH265071   0.526   3.063  11.178  0.0049  0.4136 -0.1293
14527TIP3    H165072   0.608   3.017  11.159  0.4263  0.9607  0.3375
14527TIP3    H265073   0.506   3.040  11.269 -0.9326 -0.5699 -0.5573
14528TIP3   OH265074   0.672   4.052   5.732 -0.2329  0.0030  0.2690
14528TIP3    H165075   0.604   4.021   5.672  0.3961 -1.6247  0.3507
14528TIP3    H265076   0.672   3.989   5.804 -0.1590  1.2592  1.4044
14529TIP3   OH265077   6.288   3.812   0.305 -0.5322  0.0451 -0.8053
14529TIP3    H165078   6.373   3.840   0.270 -0.5233 -0.1065 -0.9075
14529TIP3    H265079   6.229   3.884   0.283 -0.6532 -0.2945 -1.6528
14530TIP3   OH265080   4.675   1.426   5.572 -0.6685 -0.1546 -0.0696
14530TIP3    H165081   4.694   1.332   5.576 -2.0660 -0.5343 -1.1753
14530TIP3    H265082   4.599   1.437   5.629  0.6121  0.6717  1.5256
14531TIP3   OH265083   2.758   2.992  11.523  0.3835 -0.4871 -0.1652
14531TIP3    H165084   2.729   3.062  11.464  0.3911 -1.1577 -0.9935
14531TIP3    H265085   2.794   3.037  11.599 -0.5337  0.3936 -0.2333
14532TIP3   OH265086   6.203   4.926   1.738  0.1855 -0.5581 -0.0203
14532TIP3    H165087   6.134   4.975   1.692  0.3104 -0.7823 -0.4506
14532TIP3    H265088   6.197   4.838   1.701  0.6189 -0.6105  0.0368
14533TIP3   OH265089   2.629   6.622   1.684 -0.5294 -0.1914 -0.0830
14533TIP3    H165090   2.548   6.575   1.664 -0.7791  0.0114  0.4375
14533TIP3    H265091   2.603   6.714   1.689 -0.1853 -0.0765 -0.3422
14534TIP3   OH265092   0.689   0.723  11.521 -0.1819  0.3578 -0.2156
14534TIP3    H165093   0.659   0.810  11.548  0.4356  0.2349  0.9001
14534TIP3    H265094   0.682   0.669  11.599 -0.5496 -0.6145 -0.8925
14535TIP3   OH265095   6.432   5.981   1.355 -0.3862 -0.6403 -0.1319
14535TIP3    H165096   6.434   6.058   1.298  0.5506 -0.5482  0.0140
14535TIP3    H265097   6.458   5.909   1.298 -0.7111 -0.7589 -0.1314
14536TIP3   OH265098   0.895   2.599  13.034  0.2542  0.3858 -0.1040
14536TIP3    H165099   0.904   2.680  12.984  0.5278  1.2983  1.3410
14536TIP3    H265100   0.806   2.602  13.069 -0.1599 -0.5611 -1.0214
14537TIP3   OH265101   4.274   3.546   5.329 -0.1298  0.0654 -0.0930
14537TIP3    H165102   4.243   3.493   5.255  0.6274  0.7464 -0.9125
14537TIP3    H265103   4.200   3.546   5.390 -0.6660 -0.7421 -0.7137
14538TIP3   OH265104   2.150   2.575   2.000  0.2868 -0.3939  0.1447
14538TIP3    H165105   2.152   2.525   1.918  2.1972  1.2367 -0.8813
14538TIP3    H265106   2.073   2.631   1.992 -0.1475 -0.9928 -0.0209
14539TIP3   OH265107   1.228   5.499   2.484 -0.0060 -0.0596 -0.3411
14539TIP3    H165108   1.150   5.523   2.433 -0.6525 -0.5548  0.3794
14539TIP3    H265109   1.301   5.508   2.423 -0.6020  0.6534 -0.9646
14540TIP3   OH265110   1.392   5.751  13.528  0.2849 -0.0800 -0.4525
14540TIP3    H165111   1.378   5.678  13.467  1.3522 -1.5837  1.0117
14540TIP3    H265112   1.484   5.775  13.514  0.5687 -0.5049  0.5967
14541TIP3   OH265113   1.537   1.247  16.808  0.2959 -0.1357 -0.4041
14541TIP3    H165114   1.459   1.193  16.793 -0.8180  1.6092 -1.1510
14541TIP3    H265115   1.580   1.205  16.882 -1.1277 -1.3905 -0.2239
14542TIP3   OH265116   1.259   3.678  17.105 -0.3055 -0.0726 -0.2275
14542TIP3    H165117   1.319   3.642  17.170 -2.6235  0.6470  2.5140
14542TIP3    H265118   1.261   3.772  17.119 -1.8952 -0.0129 -0.1510
14543TIP3   OH265119   5.622   1.330  13.062  0.5148  0.3642 -0.1457
14543TIP3    H165120   5.544   1.285  13.094  1.0795 -1.3567 -1.0777
14543TIP3    H265121   5.590   1.414  13.030 -0.7931  0.1045  0.4444
14544TIP3   OH265122   5.456   1.457  11.651  0.3804 -0.3461 -0.0269
14544TIP3    H165123   5.522   1.502  11.598  0.8645  0.2015  1.0231
14544TIP3    H265124   5.377   1.458  11.596  0.5246  1.3103 -0.2440
14545TIP3   OH265125   3.777   1.868  13.109 -0.4714 -0.2063  0.4656
14545TIP3    H165126   3.804   1.948  13.064  0.6030 -0.7168  0.1701
14545TIP3    H265127   3.690   1.850  13.075 -0.1175  0.0201 -0.6003
14546TIP3   OH265128   4.987   1.011  16.108  0.1127  0.0936 -0.3102
14546TIP3    H165129   4.974   1.085  16.049 -0.2587  0.6099  0.4200
14546TIP3    H265130   5.060   0.962  16.068  0.4572  0.9192 -0.7212
14547TIP3   OH265131   2.691   2.011   1.005  0.2378 -0.1111 -0.4276
14547TIP3    H165132   2.657   2.008   0.916 -1.4446  2.4859  0.0130
14547TIP3    H265133   2.615   2.002   1.061  1.1625 -0.8587  0.7597
14548TIP3   OH265134   2.836   1.513  12.790  0.3408 -0.0428  0.1600
14548TIP3    H165135   2.747   1.500  12.757 -0.3439  0.4803  1.6890
14548TIP3    H265136   2.877   1.427  12.783  0.3392  0.0917 -2.2148
14549TIP3   OH265137   1.415   3.732   1.589  0.9659  0.0887  0.5825
14549TIP3    H165138   1.357   3.736   1.513  0.8788  1.7877  0.7016
14549TIP3    H265139   1.499   3.765   1.557  0.8138  1.2250  1.2880
14550TIP3   OH265140   6.081   3.392   4.536  0.6570  0.5081 -0.0150
14550TIP3    H165141   6.139   3.398   4.459  0.6837  0.5668  0.0095
14550TIP3    H265142   6.105   3.468   4.589  0.3102  0.7360 -0.1783
14551TIP3   OH265143   0.449   3.314  14.681 -0.0897 -0.0808 -0.3721
14551TIP3    H165144   0.455   3.330  14.587  0.0336 -1.3336 -0.5899
14551TIP3    H265145   0.357   3.334  14.702 -0.5251 -1.2690 -1.0626
14552TIP3   OH265146   1.118   0.596  16.027  0.2029 -0.2270 -0.3068
14552TIP3    H165147   1.195   0.651  16.010  0.8715 -0.5253  1.4973
14552TIP3    H265148   1.135   0.558  16.113 -2.3116  0.2524  0.4828
14553TIP3   OH265149   0.657   5.243   5.272 -0.3337  0.0450 -0.2382
14553TIP3    H165150   0.682   5.265   5.183 -1.6520  0.8717 -0.4239
14553TIP3    H265151   0.599   5.314   5.300 -3.5912 -2.3485 -0.3518
14554TIP3   OH265152   2.756   3.842   3.372  0.6649 -0.3696 -0.3200
14554TIP3    H165153   2.766   3.925   3.325  0.8456  0.3626  0.9631
14554TIP3    H265154   2.843   3.826   3.408  0.8749 -1.6118 -1.2962
14555TIP3   OH265155   6.409   0.344  11.345 -0.1030  0.2815 -0.2634
14555TIP3    H165156   6.489   0.393  11.361 -0.2981  0.7120 -0.5831
14555TIP3    H265157   6.427   0.255  11.378  0.4841  0.3854 -0.3091
14556TIP3   OH265158   5.374   6.667   6.104 -0.1784  0.1385  0.2692
14556TIP3    H165159   5.320   6.702   6.033 -0.8626 -0.9747  0.2180
14556TIP3    H265160   5.416   6.744   6.143  1.3690  0.6702 -2.2372
14557TIP3   OH265161   3.378   1.488   2.411 -0.1229  0.4170  0.0950
14557TIP3    H165162   3.394   1.517   2.321 -1.0453 -2.7126 -1.2398
14557TIP3    H265163   3.448   1.426   2.430  0.8532  2.0314  2.1521
14558TIP3   OH265164   3.497   6.701  17.255 -0.2194  0.1637 -0.7936
14558TIP3    H165165   3.484   6.643  17.180 -0.3589  1.0308 -1.4558
14558TIP3    H265166   3.411   6.706  17.297  0.2925 -1.9063  0.6356
14559TIP3   OH265167   1.368   2.958   1.919  0.0010 -0.9073  0.3048
14559TIP3    H165168   1.379   2.865   1.941  1.9345 -1.0931 -1.2803
14559TIP3    H265169   1.368   2.961   1.824  0.8957  0.8274  0.3227
14560TIP3   OH265170   0.822   5.962  16.561  0.3915  0.3362 -0.3244
14560TIP3    H165171   0.816   5.880  16.611 -0.1397  0.6193  0.0835
14560TIP3    H265172   0.735   5.973  16.524  0.8436 -0.0004 -1.5466
14561TIP3   OH265173   3.074   4.146  14.282 -0.1082  0.2701 -0.2092
14561TIP3    H165174   3.142   4.214  14.292 -0.4743  0.5283  0.6520
14561TIP3    H265175   3.123   4.065  14.270  0.3435  0.6279 -0.8290
14562TIP3   OH265176   3.072   3.608   3.250 -0.4087 -0.2067  0.0115
14562TIP3    H165177   3.040   3.537   3.195  0.9765 -0.2739 -0.7509
14562TIP3    H265178   3.011   3.680   3.234 -0.2335 -0.3467 -1.3421
14563TIP3   OH265179   2.576   1.310  16.489 -0.0484 -0.4108  0.4821
14563TIP3    H165180   2.533   1.287  16.571 -0.8302  0.0125  0.1944
14563TIP3    H265181   2.510   1.296  16.422 -0.2361  1.6188  0.1737
14564TIP3   OH265182   3.232   5.620  11.411 -0.0363 -0.0101 -0.4751
14564TIP3    H165183   3.324   5.646  11.413 -0.6401  2.2599  0.9101
14564TIP3    H265184   3.231   5.531  11.444  1.5568  0.3842  0.7293
14565TIP3   OH265185   2.161   3.450   2.935  0.5135 -0.2456 -0.1073
14565TIP3    H165186   2.166   3.529   2.880 -1.0848  0.5691  0.8409
14565TIP3    H265187   2.252   3.423   2.945  1.2656  2.2646  0.6153
14566TIP3   OH265188   5.770   4.828   2.281 -0.0024 -0.0799  0.1186
14566TIP3    H165189   5.819   4.746   2.271 -0.7959 -0.3904 -1.4732
14566TIP3    H265190   5.745   4.852   2.192 -0.9549  1.1820  0.7012
14567TIP3   OH265191   3.493   4.886   5.834 -0.7046  0.0327 -0.0908
14567TIP3    H165192   3.488   4.791   5.837  1.1134 -0.1027 -0.2084
14567TIP3    H265193   3.463   4.910   5.746 -0.0740 -0.5466 -0.4755
14568TIP3   OH265194   6.568   3.331   1.506 -0.0035 -0.0804  0.1116
14568TIP3    H165195   6.639   3.269   1.523 -0.3366 -0.4841  0.0721
14568TIP3    H265196   6.564   3.385   1.584  1.0227  0.6322 -0.3041
14569TIP3   OH265197   2.811   0.111   5.100  0.1130  0.5240  0.2031
14569TIP3    H165198   2.847   0.031   5.060 -0.6824  0.4437 -0.3854
14569TIP3    H265199   2.847   0.112   5.188  0.6678 -0.1338 -0.0050
14570TIP3   OH265200   1.350   6.664  16.988 -0.3245 -0.5852  0.2087
14570TIP3    H165201   1.269   6.613  16.989 -0.2231 -0.7469  1.0141
14570TIP3    H265202   1.363   6.686  16.896 -0.0226 -2.5801 -0.2890
14571TIP3   OH265203   5.303   3.784  14.281 -0.2100 -0.0150  0.2397
14571TIP3    H165204   5.277   3.755  14.193  0.1570  0.8324 -0.1675
14571TIP3    H265205   5.396   3.766  14.286 -0.3361 -0.5686  0.6732
14572TIP3   OH265206   0.530   5.499   6.510  0.4231 -0.6931  0.2381
14572TIP3    H165207   0.483   5.567   6.557  1.1929  0.5286 -0.6744
14572TIP3    H265208   0.537   5.427   6.572 -1.3329 -0.3589  0.8796
14573TIP3   OH265209   5.500   3.138  12.203 -0.6764  0.0196  0.4130
14573TIP3    H165210   5.493   3.164  12.111  1.7446  0.1144  0.1802
14573TIP3    H265211   5.492   3.220  12.251 -1.4246  0.0448  0.2457
14574TIP3   OH265212   3.302   2.762  14.495 -0.4988  0.2175  0.3373
14574TIP3    H165213   3.391   2.793  14.474 -0.1583 -0.7288  0.3559
14574TIP3    H265214   3.296   2.676  14.453 -1.2456  0.0702  0.7315
14575TIP3   OH265215   0.203   1.637  15.149 -0.1042 -0.1147  0.0706
14575TIP3    H165216   0.240   1.710  15.100 -0.5691 -0.0098 -0.1314
14575TIP3    H265217   0.256   1.632  15.228  0.3725 -0.0066 -0.2409
14576TIP3   OH265218   3.360   0.105   2.391 -0.2829  0.1291 -0.0599
14576TIP3    H165219   3.447   0.069   2.411 -0.2394 -0.3803 -1.1263
14576TIP3    H265220   3.364   0.196   2.422  0.1738 -0.2729  1.1239
14577TIP3   OH265221   0.499   6.345   1.325  0.8602 -0.1207  0.3257
14577TIP3    H165222   0.432   6.336   1.257 -0.1007 -1.8681  1.4192
14577TIP3    H265223   0.550   6.422   1.298 -0.8227  0.5565 -1.1815
14578TIP3   OH265224   3.111   1.624  13.737  0.0218  0.3379 -0.2553
14578TIP3    H165225   3.041   1.576  13.693 -0.1368  0.6682 -0.3602
14578TIP3    H265226   3.173   1.646  13.668  0.8802 -1.0726  0.0267
14579TIP3   OH265227   3.654   3.703  13.265 -0.0022 -0.2529 -0.0368
14579TIP3    H165228   3.715   3.776  13.253 -0.0064 -0.2884 -0.2841
14579TIP3    H265229   3.617   3.716  13.352  0.9193 -0.6516  0.4344
14580TIP3   OH265230   3.728   4.869   3.099  0.5302 -0.2541  0.2669
14580TIP3    H165231   3.802   4.902   3.047  1.5521 -1.0100  1.1830
14580TIP3    H265232   3.751   4.777   3.117 -0.3053 -0.3018  1.1518
14581TIP3   OH265233   0.257   4.348  16.812  0.5054 -0.6355  0.8101
14581TIP3    H165234   0.318   4.388  16.750  1.0015 -0.4673  1.3951
14581TIP3    H265235   0.170   4.371  16.778  0.7409  1.7318  1.5721
14582TIP3   OH265236   6.000   1.301   4.677  0.0904  0.4702 -0.2240
14582TIP3    H165237   6.094   1.319   4.680 -0.1634  1.8083  0.6067
14582TIP3    H265238   5.976   1.309   4.585  0.6917  0.6406 -0.3677
14583TIP3   OH265239   0.309   4.458   0.610 -0.1465  0.0577  0.2086
14583TIP3    H165240   0.356   4.482   0.690 -0.9382  0.5908  0.5216
14583TIP3    H265241   0.337   4.523   0.545 -2.0323  1.7157  0.9641
14584TIP3   OH265242   4.350   1.546   4.515 -0.1971  0.1015  0.3510
14584TIP3    H165243   4.369   1.496   4.594  2.3957  2.0191  1.0613
14584TIP3    H265244   4.427   1.601   4.501 -0.2939 -0.4711 -3.8377
14585TIP3   OH265245   2.759   2.275  13.628 -0.5435  0.1482  0.2532
14585TIP3    H165246   2.790   2.207  13.568  0.9793  1.4638 -0.5464
14585TIP3    H265247   2.770   2.237  13.715  1.4758 -0.2329 -0.1059
14586TIP3   OH265248   0.193   0.152  16.184 -0.1077 -0.1523 -0.4943
14586TIP3    H165249   0.157   0.106  16.108  0.3142 -0.4779 -0.4954
14586TIP3    H265250   0.228   0.234  16.148 -1.0299  0.2685 -0.4636
14587TIP3   OH265251   4.723   1.086  13.948  0.4358  0.4181 -0.1850
14587TIP3    H165252   4.708   1.178  13.927 -0.6950  0.2246 -0.2798
14587TIP3    H265253   4.665   1.069  14.023  1.2007 -0.0264  0.3245
14588TIP3   OH265254   1.689   0.555   3.559 -0.4403  0.1688 -0.1477
14588TIP3    H165255   1.636   0.481   3.531  1.2480 -0.4520 -1.9730
14588TIP3    H265256   1.779   0.529   3.537  0.4866  1.7172  1.5375
14589TIP3   OH265257   6.601   6.254   4.828  0.3955 -1.1975 -0.3672
14589TIP3    H165258   6.644   6.337   4.848 -0.3068 -0.6215 -1.2222
14589TIP3    H265259   6.660   6.188   4.865 -0.0713 -0.2779  2.2414
14590TIP3   OH265260   6.700   5.221   5.388  0.0463  0.5821  0.0972
14590TIP3    H165261   6.634   5.285   5.362  0.7115  1.6041  0.8299
14590TIP3    H265262   6.693   5.218   5.484  2.2849  2.1502  0.3912
14591TIP3   OH265263   2.695   6.209  12.512  0.2435  0.7782 -0.1771
14591TIP3    H165264   2.697   6.149  12.586 -0.4966  1.7059  0.6384
14591TIP3    H265265   2.780   6.252  12.513  1.1485 -0.8973 -1.3569
14592TIP3   OH265266   3.954   3.478   4.885 -0.4397  1.0192  0.0328
14592TIP3    H165267   3.977   3.392   4.850 -1.1929  1.1728 -0.8897
14592TIP3    H265268   3.900   3.459   4.962  0.2093  0.6765  0.4126
14593TIP3   OH265269   2.782   6.388  11.872 -0.3389  0.2289  0.3836
14593TIP3    H165270   2.834   6.326  11.923 -0.2775  0.7300  0.9336
14593TIP3    H265271   2.827   6.471  11.881 -0.1048  0.2536 -0.8220
14594TIP3   OH265272   1.145   0.040  15.535 -0.0849  0.1050  0.1280
14594TIP3    H165273   1.145   0.122  15.585  0.9291 -0.3121  0.8548
14594TIP3    H265274   1.238   0.016  15.529 -0.4148 -1.3451  0.5158
14595TIP3   OH265275   2.466   6.459   6.434  0.5497  0.2730  0.1350
14595TIP3    H165276   2.390   6.427   6.385  0.3186 -0.2105  0.7744
14595TIP3    H265277   2.514   6.513   6.372 -0.1597  0.3444 -0.3743
14596TIP3   OH265278   3.738   0.919   4.671  0.1074  0.1304 -0.7943
14596TIP3    H165279   3.647   0.888   4.668  0.4104 -0.7990 -0.9678
14596TIP3    H265280   3.762   0.931   4.579  0.3953 -0.3882 -0.7922
14597TIP3   OH265281   2.387   2.864   3.097 -0.8593  0.1679  0.5512
14597TIP3    H165282   2.359   2.940   3.046  0.3488  0.4626  0.3045
14597TIP3    H265283   2.348   2.789   3.052 -1.6178  0.5827  0.4875
14598TIP3   OH265284   4.542   3.014  15.452  0.2099 -0.3938 -0.3833
14598TIP3    H165285   4.457   2.993  15.415 -0.3312 -2.0386  1.6001
14598TIP3    H265286   4.589   2.931  15.454  0.2255 -0.4211  2.3702
14599TIP3   OH265287   0.516   3.696  13.880 -0.1756  0.4381  0.3548
14599TIP3    H165288   0.521   3.607  13.916 -0.5896  0.3155  0.1083
14599TIP3    H265289   0.498   3.683  13.787 -1.2633  0.7944  0.5009
14600TIP3   OH265290   4.110   1.593   4.835 -0.5308 -0.3588 -0.1228
14600TIP3    H165291   4.182   1.642   4.875 -0.6739 -1.0630  1.0381
14600TIP3    H265292   4.101   1.632   4.748 -0.6679  1.7195  0.7428
14601TIP3   OH265293   3.260   4.210  13.882  0.3870 -0.1871 -0.3177
14601TIP3    H165294   3.249   4.116  13.898  0.0943 -0.3642 -1.4578
14601TIP3    H265295   3.173   4.247  13.894  0.0720 -0.3874 -1.8012
14602TIP3   OH265296   1.569   6.654  12.305 -0.1807  0.2002  0.5966
14602TIP3    H165297   1.570   6.595  12.380  2.3041  2.4384  2.4791
14602TIP3    H265298   1.661   6.664  12.281 -0.8443  0.1596 -2.3433
14603TIP3   OH265299   1.704   1.335   1.425 -0.4437 -0.3174 -0.4498
14603TIP3    H165300   1.764   1.408   1.406 -0.7113 -0.0849 -0.4099
14603TIP3    H265301   1.632   1.346   1.364 -0.5050 -0.5267 -0.4150
14604TIP3   OH265302   5.260   2.425   3.421 -0.5362  0.1591  0.1611
14604TIP3    H165303   5.333   2.380   3.464  1.2818  2.4796 -0.2729
14604TIP3    H265304   5.289   2.435   3.330 -1.1550  1.5866  0.1014
14605TIP3   OH265305   2.851   5.854   1.329  0.2495  0.3523  0.0568
14605TIP3    H165306   2.779   5.807   1.371 -0.1790 -0.1762 -1.2236
14605TIP3    H265307   2.854   5.938   1.374  0.2354 -0.4264  1.5701
14606TIP3   OH265308   0.374   4.532   3.859 -0.1931 -0.4439 -0.2380
14606TIP3    H165309   0.397   4.568   3.944 -1.4017  1.5803 -0.6975
14606TIP3    H265310   0.398   4.440   3.864  0.0442 -0.3009  2.1609
14607TIP3   OH265311   5.877   4.859  15.823  0.3952  0.4056 -0.1838
14607TIP3    H165312   5.870   4.930  15.887  2.5754 -1.1647  1.9786
14607TIP3    H265313   5.815   4.793  15.853  1.6527 -0.4708  0.6317
14608TIP3   OH265314   0.555   2.013  12.600 -0.0009  0.1923  0.2028
14608TIP3    H165315   0.595   2.099  12.590 -0.8932  1.0609  3.0854
14608TIP3    H265316   0.463   2.026  12.575 -0.8647  0.9618  3.3075
14609TIP3   OH265317   2.755   0.036  15.429 -0.4171  0.5683  0.6283
14609TIP3    H165318   2.764   0.052  15.523  0.7129 -1.2665  0.8970
14609TIP3    H265319   2.804  -0.045  15.415 -0.2566  1.0033 -1.6166
14610TIP3   OH265320   6.254   2.576  14.985  0.4630 -0.5297  0.1774
14610TIP3    H165321   6.165   2.576  15.021  0.3117  2.9426  0.1271
14610TIP3    H265322   6.310   2.576  15.063  0.3090  0.4916  0.2979
14611TIP3   OH265323   3.004   5.592  12.923  0.1133  0.2567  0.1215
14611TIP3    H165324   2.987   5.517  12.865  2.3269 -0.4377  0.2543
14611TIP3    H265325   2.979   5.561  13.010  0.9649 -0.3459  0.1664
14612TIP3   OH265326   0.102   2.566   2.764  0.1067 -0.3026 -0.0806
14612TIP3    H165327   0.114   2.503   2.693  1.2104 -2.3801  1.8390
14612TIP3    H265328   0.171   2.631   2.749 -0.5935  0.1148 -1.6930
14613TIP3   OH265329   0.209   1.814  17.216  0.7218 -0.2713 -0.0914
14613TIP3    H165330   0.162   1.897  17.222  2.0872  0.6554 -1.4725
14613TIP3    H265331   0.276   1.829  17.149  1.8555 -2.0756  0.5647
14614TIP3   OH265332   2.504   4.243  11.961 -0.0358  0.2509  0.2475
14614TIP3    H165333   2.587   4.230  11.916  0.8980 -0.4719  2.0862
14614TIP3    H265334   2.441   4.191  11.912  1.4010 -2.3654  1.0096
14615TIP3   OH265335   5.839   0.984  15.765 -0.3531  0.0717 -0.1354
14615TIP3    H165336   5.820   1.002  15.673 -0.2417 -0.4712 -0.2668
14615TIP3    H265337   5.925   0.942  15.764  0.8535  2.3419  0.4277
14616TIP3   OH265338   3.938   5.198  11.998  0.2755  0.0983  0.2632
14616TIP3    H165339   3.895   5.281  11.979 -1.1464 -0.5824  0.3891
14616TIP3    H265340   4.029   5.222  12.017 -0.3075  1.7314  1.2538
14617TIP3   OH265341   6.741   3.366  12.288  0.0573 -0.3093 -0.3327
14617TIP3    H165342   6.784   3.347  12.372 -2.0349 -2.2762  0.3967
14617TIP3    H265343   6.677   3.295  12.277 -2.3127  1.8803 -1.7903
14618TIP3   OH265344   4.335   2.283  13.700  0.1127  0.1041  0.1184
14618TIP3    H165345   4.348   2.190  13.687 -1.8650 -0.0943 -0.9703
14618TIP3    H265346   4.423   2.321  13.699  0.8450 -1.5278 -1.2422
14619TIP3   OH265347   5.821   1.578  13.852  0.3156  0.5225 -0.2682
14619TIP3    H165348   5.770   1.605  13.776 -1.2136 -0.2084  0.4464
14619TIP3    H265349   5.757   1.575  13.924  1.0221 -1.8284  0.3545
14620TIP3   OH265350   1.236   4.501  12.137 -0.4263  0.1607  0.4666
14620TIP3    H165351   1.191   4.420  12.111 -1.5908  0.5825  1.0995
14620TIP3    H265352   1.198   4.568  12.079  0.3641  0.3063  0.1049
14621TIP3   OH265353   5.967   3.796   1.547  0.1050 -0.4171 -0.3249
14621TIP3    H165354   5.969   3.770   1.640 -1.1599  1.1088  0.1751
14621TIP3    H265355   6.052   3.836   1.532  0.1644 -0.2887  0.3095
14622TIP3   OH265356   4.281   6.102  17.368  0.2931 -0.0586 -0.7452
14622TIP3    H165357   4.359   6.046  17.371  1.3832  1.3862  2.5893
14622TIP3    H265358   4.211   6.047  17.402  0.9923  0.0072  0.9065
14623TIP3   OH265359   6.565   0.841   5.179  0.0421  0.3818 -0.4772
14623TIP3    H165360   6.532   0.790   5.105  1.0434 -1.3381  0.1972
14623TIP3    H265361   6.643   0.794   5.208  0.0239  1.3378  1.2957
14624TIP3   OH265362   1.264   5.139  14.153 -0.9438 -0.3742  0.4200
14624TIP3    H165363   1.234   5.049  14.165 -2.7235 -0.2463 -2.2273
14624TIP3    H265364   1.354   5.131  14.124 -1.7265 -1.5210 -1.8956
14625TIP3   OH265365   0.003   1.286  16.739 -0.1146 -0.1408  0.0782
14625TIP3    H165366  -0.044   1.364  16.709  1.0969 -0.0664 -1.7692
14625TIP3    H265367  -0.065   1.230  16.777 -1.0266  1.7398  1.3880
14626TIP3   OH265368   1.178   1.186  13.503 -0.4607 -0.2778 -0.3008
14626TIP3    H165369   1.264   1.229  13.509  0.1237 -0.8400 -3.1139
14626TIP3    H265370   1.187   1.107  13.557 -0.7746  1.7997  3.0311
14627TIP3   OH265371   3.948   1.372   6.353 -0.8042  0.0381  0.3146
14627TIP3    H165372   3.861   1.337   6.371 -1.2085  0.7302 -0.2348
14627TIP3    H265373   3.938   1.467   6.362  0.1173  0.0726  1.1546
14628TIP3   OH265374   1.552   4.884   3.664 -0.3605 -0.5478  1.0391
14628TIP3    H165375   1.540   4.896   3.758 -1.2921  0.2983  0.8393
14628TIP3    H265376   1.551   4.790   3.651  0.2775 -0.6837  1.9351
14629TIP3   OH265377   0.577   1.209  14.478  0.3502 -0.1226  0.2842
14629TIP3    H165378   0.670   1.196  14.493  0.2644 -0.6687  0.3698
14629TIP3    H265379   0.534   1.155  14.544 -0.0262 -0.0893  0.0710
14630TIP3   OH265380   6.287   0.596   2.619 -0.3917 -0.6234  0.0349
14630TIP3    H165381   6.324   0.640   2.697 -0.7779 -1.8402  0.9270
14630TIP3    H265382   6.357   0.539   2.588 -0.1316  0.0851 -0.7127
14631TIP3   OH265383   2.918   5.810  17.049 -0.0421 -0.3176 -0.5660
14631TIP3    H165384   2.969   5.865  17.109 -0.7476 -0.1274 -0.1319
14631TIP3    H265385   2.868   5.871  16.996 -1.5440 -0.5165  0.5438
14632TIP3   OH265386   0.239   5.762   6.043 -0.5548 -0.6025 -0.1660
14632TIP3    H165387   0.318   5.742   6.094  0.1019 -1.8867 -1.5992
14632TIP3    H265388   0.210   5.677   6.010 -2.6426 -0.1788  0.4134
14633TIP3   OH265389   3.472   4.781   3.994 -0.1612 -0.6469 -0.2891
14633TIP3    H165390   3.384   4.790   4.030  0.0549 -1.6611  0.5371
14633TIP3    H265391   3.508   4.870   3.996 -0.5482 -0.5036  0.9728
14634TIP3   OH265392   5.091   4.601   3.883 -0.2174  0.2048  0.0278
14634TIP3    H165393   5.135   4.603   3.969  0.9155 -0.1407 -0.5232
14634TIP3    H265394   5.030   4.528   3.890  1.8131 -1.6335 -0.3328
14635TIP3   OH265395   1.457   2.520  16.804  0.2149  0.6898 -0.2538
14635TIP3    H165396   1.463   2.614  16.819  0.7578  1.2663 -3.3380
14635TIP3    H265397   1.546   2.488  16.815  0.0339  0.5052  0.7738
14636TIP3   OH265398   1.075   5.742  13.183 -0.2021 -0.7169  0.2051
14636TIP3    H165399   1.079   5.822  13.235  0.0086 -1.0814  0.7604
14636TIP3    H265400   1.166   5.717  13.169 -0.2705 -1.4892  1.0366
14637TIP3   OH265401   4.578   2.784   4.728 -0.0769  0.5160  0.0219
14637TIP3    H165402   4.575   2.839   4.650 -1.2439 -0.5464 -0.7212
14637TIP3    H265403   4.488   2.782   4.759  0.5128  1.7214  2.0211
14638TIP3   OH265404   0.367   4.176   4.483 -0.6414  0.0345 -0.7024
14638TIP3    H165405   0.275   4.163   4.458 -0.7233 -0.4318 -0.1808
14638TIP3    H265406   0.416   4.162   4.403 -1.0900  1.2807 -1.2242
14639TIP3   OH265407   4.553   1.591   3.705 -0.2213  0.3106  0.3187
14639TIP3    H165408   4.519   1.584   3.794  0.1133  0.4441  0.4571
14639TIP3    H265409   4.607   1.670   3.706  1.4626 -0.8017  0.5607
14640TIP3   OH265410   1.055   6.436   0.364  0.1742  0.2133 -0.3788
14640TIP3    H165411   1.120   6.466   0.428  0.8222  0.3186 -1.0752
14640TIP3    H265412   1.103   6.431   0.282 -0.5011 -0.5203 -0.7395
14641TIP3   OH265413   3.932   4.220  14.335  0.7168 -0.1869 -0.3182
14641TIP3    H165414   3.992   4.155  14.299 -1.3381 -1.9481 -0.7234
14641TIP3    H265415   3.894   4.263  14.258  0.9247  0.4470 -0.0782
14642TIP3   OH265416   3.372   3.498   5.176  0.0298 -0.8229 -0.4766
14642TIP3    H165417   3.299   3.497   5.238  1.1636 -0.4088  0.9141
14642TIP3    H265418   3.349   3.567   5.113 -1.4458 -1.6991 -0.9332
14643TIP3   OH265419   4.902   4.941   1.659  0.2446 -0.1967 -0.4323
14643TIP3    H165420   4.912   4.876   1.589  0.2750 -0.1082 -0.5102
14643TIP3    H265421   4.899   4.889   1.740 -1.4426 -0.4380 -0.6074
14644TIP3   OH265422   0.038   5.657   5.301  0.0479  0.0769 -0.1390
14644TIP3    H165423  -0.009   5.630   5.380 -1.7796  0.3763 -1.0554
14644TIP3    H265424   0.057   5.575   5.255 -0.5937  0.0044 -0.2857
14645TIP3   OH265425   6.211   0.363   6.563 -0.1588  0.2951 -0.0918
14645TIP3    H165426   6.266   0.440   6.548 -0.1322  0.1217 -0.8936
14645TIP3    H265427   6.128   0.383   6.520  0.0996 -0.4244 -0.9517
14646TIP3   OH265428   4.933   1.739  14.261  0.0812  0.1523  0.6917
14646TIP3    H165429   4.840   1.720  14.263  0.1536 -1.0580 -2.2555
14646TIP3    H265430   4.939   1.835  14.259 -1.0134  0.2579  1.9138
14647TIP3   OH265431   3.973   4.862   2.199  0.0240 -0.3557 -0.0856
14647TIP3    H165432   3.940   4.844   2.287  0.7268  1.5382  0.6148
14647TIP3    H265433   3.953   4.955   2.185 -2.7440 -1.2290 -3.1243
14648TIP3   OH265434   4.565   6.264   6.061  0.0967 -0.7109  0.8727
14648TIP3    H165435   4.552   6.348   6.104 -0.5054  0.5123 -1.5511
14648TIP3    H265436   4.646   6.230   6.100  1.0493  1.5609  1.0304
14649TIP3   OH265437   3.452   4.287   5.394 -0.1127 -0.1348 -0.2242
14649TIP3    H165438   3.476   4.230   5.468  0.7724  1.0153  0.4128
14649TIP3    H265439   3.536   4.311   5.354 -0.4639  0.7010 -0.4859
14650TIP3   OH265440   4.343   5.888  11.783 -0.3628 -0.0905 -0.6245
14650TIP3    H165441   4.307   5.849  11.862 -0.6077 -1.0906 -1.2046
14650TIP3    H265442   4.312   5.979  11.784 -0.2564 -0.0596  0.4715
14651TIP3   OH265443   5.094   3.698  10.990  0.3605 -0.4290  0.2258
14651TIP3    H165444   5.019   3.748  11.020 -0.9253 -1.6720 -0.7860
14651TIP3    H265445   5.084   3.612  11.032  0.9942 -0.7346 -0.2242
14652TIP3   OH265446   5.668   0.405  16.864  0.0304  0.2317  0.4527
14652TIP3    H165447   5.603   0.372  16.926 -0.1723 -0.2629 -0.0110
14652TIP3    H265448   5.620   0.467  16.809 -0.3204 -0.8438 -0.5096
14653TIP3   OH265449   4.208   6.090   6.002 -1.2186  0.1751  0.3681
14653TIP3    H165450   4.184   5.998   5.987  1.1760 -0.5411  0.4995
14653TIP3    H265451   4.130   6.128   6.043 -2.8974 -1.3208 -1.2213
14654TIP3   OH265452   2.003   0.911  12.753  0.1335  0.5992  0.0457
14654TIP3    H165453   1.944   0.978  12.786 -0.8061 -0.1770  0.0088
14654TIP3    H265454   2.085   0.957  12.735 -0.0746  1.4741  1.2338
14655TIP3   OH265455   4.729   4.818   3.263  0.4656 -0.4125 -0.1720
14655TIP3    H165456   4.769   4.824   3.177  1.9196  1.7153  0.5839
14655TIP3    H265457   4.740   4.905   3.302  0.9471 -1.6005  2.6273
14656TIP3   OH265458   2.367   6.072   2.117 -0.7641 -0.1676 -0.0991
14656TIP3    H165459   2.282   6.100   2.082 -0.7658 -1.4109 -1.1683
14656TIP3    H265460   2.431   6.104   2.054 -0.5519 -0.3351  0.0309
14657TIP3   OH265461   4.819   1.726  15.863  0.4479  0.0853 -0.2715
14657TIP3    H165462   4.895   1.720  15.920  0.4630  0.6948 -0.2117
14657TIP3    H265463   4.853   1.762  15.781  0.0682  1.4598  0.1370
14658TIP3   OH265464   6.497   1.090   0.410 -0.2778 -0.2713 -0.2828
14658TIP3    H165465   6.545   1.159   0.455  0.0656 -0.9775  0.4596
14658TIP3    H265466   6.533   1.009   0.445  0.0642 -0.8594 -1.9188
14659TIP3   OH265467   4.037   1.851   0.536  0.3953 -0.0987 -0.4047
14659TIP3    H165468   3.978   1.793   0.489  0.0296  1.2219 -1.6236
14659TIP3    H265469   4.014   1.939   0.507  0.6085  0.7424  1.7437
14660TIP3   OH265470   2.619   6.653  12.014  0.2816  0.5786 -0.2008
14660TIP3    H165471   2.651   6.624  11.929  0.1600  0.3937 -0.1837
14660TIP3    H265472   2.642   6.746  12.018  1.2838  0.3383  0.0227
14661TIP3   OH265473   4.653   6.590   0.257 -0.0766  0.0257 -0.5071
14661TIP3    H165474   4.583   6.594   0.322  1.8230  0.9927  1.6036
14661TIP3    H265475   4.623   6.525   0.194 -2.3199 -0.4749  0.9568
14662TIP3   OH265476   2.163   5.847   0.726  0.5167  0.4986  0.0778
14662TIP3    H165477   2.092   5.826   0.664  0.0292  0.2524  0.7103
14662TIP3    H265478   2.181   5.940   0.710  0.3989  0.4373 -0.4375
14663TIP3   OH265479   6.258   0.708  14.937 -0.8187  0.4177 -0.4033
14663TIP3    H165480   6.208   0.641  14.890  0.0955 -0.5497 -0.0324
14663TIP3    H265481   6.224   0.706  15.026 -0.7902  0.4580 -0.3909
14664TIP3   OH265482   2.687   3.073  14.827 -0.2699  0.5010 -0.5993
14664TIP3    H165483   2.617   3.039  14.771 -0.4079 -2.3531  1.0636
14664TIP3    H265484   2.767   3.055  14.778 -0.4675 -0.6648 -0.5342
14665TIP3   OH265485   3.165   0.501   1.262 -0.0723 -0.2275 -0.0573
14665TIP3    H165486   3.244   0.535   1.221 -0.2109  2.4933  1.7096
14665TIP3    H265487   3.191   0.417   1.299  1.9032  0.4539  0.1956
14666TIP3   OH265488   0.524   2.345  13.824  0.0261 -0.1192 -0.2465
14666TIP3    H165489   0.524   2.284  13.897  1.8589  2.2646  1.9110
14666TIP3    H265490   0.609   2.334  13.782 -0.3750 -0.3329 -1.0274
14667TIP3   OH265491   1.364   0.201   0.524  0.4490  0.2862 -0.2000
14667TIP3    H165492   1.389   0.290   0.498  0.1079 -0.5800 -4.0876
14667TIP3    H265493   1.431   0.145   0.485 -0.6400 -1.3130  0.1433
14668TIP3   OH265494   0.675   1.907   3.707 -0.2255  0.3099 -0.2319
14668TIP3    H165495   0.703   1.945   3.624 -3.0766 -0.0979 -1.4838
14668TIP3    H265496   0.607   1.966   3.739 -0.6512 -0.6558  0.7099
14669TIP3   OH265497   5.817   3.885  12.744 -0.5005  0.2513  0.4001
14669TIP3    H165498   5.898   3.840  12.722 -1.1837 -0.7304 -0.1485
14669TIP3    H265499   5.797   3.858  12.834 -0.9845 -0.6772  0.0231
14670TIP3   OH265500   3.303   1.793   1.192 -0.4716  0.0901 -0.3706
14670TIP3    H165501   3.300   1.867   1.253 -0.1701  0.4629 -0.8023
14670TIP3    H265502   3.286   1.716   1.247  1.9329  0.1526  0.6073
14671TIP3   OH265503   0.339   4.974  15.144 -0.2222  0.1220  0.0571
14671TIP3    H165504   0.316   4.884  15.165  0.8373 -0.7302 -2.1644
14671TIP3    H265505   0.254   5.017  15.127 -0.6773 -0.7480  0.0931
14672TIP3   OH265506   1.904   4.543  15.325  0.4918 -0.0074 -0.8208
14672TIP3    H165507   1.972   4.548  15.392 -1.3074 -1.3095  1.2351
14672TIP3    H265508   1.921   4.461  15.280  0.0793 -0.5494 -0.0184
14673TIP3   OH265509   4.643   1.208   3.344  0.2797  0.3978 -0.2607
14673TIP3    H165510   4.653   1.267   3.269  0.5991 -0.2592 -0.7499
14673TIP3    H265511   4.591   1.257   3.407  0.7061  1.2738 -0.5754
14674TIP3   OH265512   5.512   4.085  15.323  0.2549  0.4431 -0.2499
14674TIP3    H165513   5.457   4.131  15.259  0.0407  0.5837  0.0314
14674TIP3    H265514   5.477   3.996  15.325  0.0659  0.5198 -0.1066
14675TIP3   OH265515   2.045   6.569   3.071  0.1510 -0.0234  0.0106
14675TIP3    H165516   2.014   6.652   3.106 -0.0098  0.2294 -0.7232
14675TIP3    H265517   2.103   6.534   3.139  2.4093  1.9707 -0.7699
14676TIP3   OH265518   6.438   6.457   4.670 -0.3854 -0.0361 -0.1032
14676TIP3    H165519   6.483   6.383   4.710 -2.4357 -2.0609 -1.3283
14676TIP3    H265520   6.475   6.534   4.714  1.4585 -1.7768  1.5899
14677TIP3   OH265521   4.298   3.236   5.443 -0.1870 -0.6117 -1.2149
14677TIP3    H165522   4.351   3.177   5.390  2.4878 -0.9242  1.5443
14677TIP3    H265523   4.334   3.323   5.427  0.9553 -0.7625  0.3042
14678TIP3   OH265524   1.876   1.575  11.752 -0.2069  0.1824 -0.2459
14678TIP3    H165525   1.840   1.508  11.694 -3.3885  0.2969  1.3887
14678TIP3    H265526   1.827   1.654  11.731  0.0472  0.7386  1.1504
14679TIP3   OH265527   1.237   4.920  11.943 -0.2526  0.0179  0.3803
14679TIP3    H165528   1.282   4.872  12.012 -1.9855  1.0390  2.3478
14679TIP3    H265529   1.287   5.000  11.932  1.1612 -1.0088 -1.0465
14680TIP3   OH265530   4.631   4.487   2.646 -0.0096 -0.2729  0.3437
14680TIP3    H165531   4.632   4.530   2.731  2.4967 -1.5261  1.0542
14680TIP3    H265532   4.585   4.404   2.661 -1.1671  0.2919 -0.0011
14681TIP3   OH265533   2.239   6.249   5.388 -0.0364 -0.3118  0.5263
14681TIP3    H165534   2.155   6.203   5.381  1.1625 -2.5506 -0.2733
14681TIP3    H265535   2.251   6.290   5.302  0.8191 -2.2236 -0.3341
14682TIP3   OH265536   6.559   6.683  17.302  0.5145 -0.3273 -0.2581
14682TIP3    H165537   6.509   6.634  17.237 -2.3369 -0.0133  1.5551
14682TIP3    H265538   6.578   6.620  17.371  1.4697 -0.0962 -0.2891
14683TIP3   OH265539   3.128   4.208  13.123  0.3916 -0.0537  0.1162
14683TIP3    H165540   3.076   4.147  13.175  0.1659 -0.2812 -0.3676
14683TIP3    H265541   3.128   4.289  13.173  1.6464 -0.7711  1.3380
14684TIP3   OH265542   1.993   6.712  15.563  0.7182  0.7496 -0.3835
14684TIP3    H165543   1.918   6.757  15.523  0.8819 -0.3091 -1.9793
14684TIP3    H265544   1.971   6.706  15.656 -1.4667 -0.0527 -0.8895
14685TIP3   OH265545   5.010   0.159   0.062 -0.3084  0.7461 -0.2166
14685TIP3    H165546   5.096   0.192   0.087  0.4691 -0.9513 -0.4946
14685TIP3    H265547   5.021   0.134  -0.030 -0.7707 -0.4771  0.0523
14686TIP3   OH265548   3.410   6.433  15.195  0.4623  0.3659  0.8004
14686TIP3    H165549   3.393   6.451  15.102  0.2840  0.0634  0.7737
14686TIP3    H265550   3.424   6.339  15.199  0.1833  0.3372  1.1263
14687TIP3   OH265551   0.048   2.775  12.097 -0.9403 -0.2159 -0.5174
14687TIP3    H165552  -0.013   2.849  12.090 -0.9736 -0.0024  1.3673
14687TIP3    H265553  -0.002   2.700  12.064 -1.2112  0.4391 -1.6473
14688TIP3   OH265554   2.143   4.297  16.667 -0.1215 -0.0431  0.2977
14688TIP3    H165555   2.099   4.366  16.718  2.1033 -0.0645  2.4583
14688TIP3    H265556   2.109   4.215  16.703  1.6749 -0.0639  2.1384
14689TIP3   OH265557   0.038   1.218   5.387  0.0645  0.1522 -0.4480
14689TIP3    H165558   0.069   1.303   5.417 -0.1718  1.0112 -2.4662
14689TIP3    H265559   0.009   1.233   5.297 -1.7407 -1.6571 -0.2496
14690TIP3   OH265560   1.184   3.093  15.584 -0.2611  0.2573  0.4071
14690TIP3    H165561   1.182   3.001  15.609  0.6235  0.2323  0.4088
14690TIP3    H265562   1.092   3.115  15.569 -0.3528 -1.1944 -1.6652
14691TIP3   OH265563   6.570   2.814   0.576  0.5275  0.0036 -0.0244
14691TIP3    H165564   6.480   2.819   0.610  0.0368  2.2857 -1.3801
14691TIP3    H265565   6.611   2.896   0.605  1.6970 -0.3345 -0.6593
14692TIP3   OH265566   3.267   5.333  16.125  0.1459  0.3158  0.0542
14692TIP3    H165567   3.185   5.372  16.094 -1.2978 -1.2821  1.6216
14692TIP3    H265568   3.293   5.273  16.055  0.3699  1.3333 -0.7507
14693TIP3   OH265569   4.721   0.922   5.911 -0.2267 -0.3111 -0.6367
14693TIP3    H165570   4.785   0.851   5.903 -1.1524 -1.2370  0.0310
14693TIP3    H265571   4.770   0.992   5.954  0.3267 -1.0461 -0.0344
14694TIP3   OH265572   1.352   0.754   0.960  1.1609 -0.1286 -0.5823
14694TIP3    H165573   1.357   0.675   1.014  2.4374  0.5246  0.3027
14694TIP3    H265574   1.323   0.722   0.874 -0.9540 -1.1764  0.4523
14695TIP3   OH265575   1.888   0.362   1.932  0.5574  0.2933 -0.0096
14695TIP3    H165576   1.916   0.314   1.853  1.9486  2.1723 -0.7563
14695TIP3    H265577   1.968   0.369   1.985  0.1973  1.0300  0.4549
14696TIP3   OH265578   0.439   2.268   6.765 -0.6801  0.3076 -0.2240
14696TIP3    H165579   0.459   2.351   6.722 -0.7598  1.0306  1.1065
14696TIP3    H265580   0.417   2.291   6.855 -0.6521 -1.1643  0.1958
14697TIP3   OH265581   4.997   5.980   3.046  0.0194 -0.6037 -0.3538
14697TIP3    H165582   4.975   5.940   3.129  1.7997 -0.0181  0.4469
14697TIP3    H265583   5.074   6.033   3.064 -2.2341  3.4271 -1.2296
14698TIP3   OH265584   6.661   1.539  11.668 -0.0667 -0.0443 -0.1204
14698TIP3    H165585   6.580   1.587  11.650 -0.2358 -0.6457 -0.9750
14698TIP3    H265586   6.703   1.528  11.583  1.5381  1.3172  0.4310
14699TIP3   OH265587   2.058   2.668   0.162 -0.0321  0.0422 -0.4346
14699TIP3    H165588   2.122   2.645   0.229  0.8052  0.5388 -1.0485
14699TIP3    H265589   2.082   2.757   0.135 -2.4012  1.2120  0.9712
14700TIP3   OH265590   3.644   0.041  13.194  0.2378 -0.4065  0.3083
14700TIP3    H165591   3.622   0.118  13.142 -1.1167 -0.9269  0.0858
14700TIP3    H265592   3.674  -0.023  13.130  2.8573  0.3709  0.6214
14701TIP3   OH265593   0.547   5.883   6.487 -0.5334  0.3567 -0.4984
14701TIP3    H165594   0.477   5.863   6.425  0.4487 -0.8852 -1.2538
14701TIP3    H265595   0.504   5.934   6.556 -2.0511  0.1228 -1.2308
14702TIP3   OH265596   1.524   5.299   2.359  0.1210  0.0829 -0.0974
14702TIP3    H165597   1.566   5.248   2.290 -0.7951 -0.6659 -0.1177
14702TIP3    H265598   1.464   5.238   2.401  1.6321  0.1240  2.2895
14703TIP3   OH265599   2.979   6.704   2.176  0.4801  0.2704  0.3135
14703TIP3    H165600   3.036   6.726   2.249  0.8392 -0.4230  0.2549
14703TIP3    H265601   2.904   6.762   2.185  0.7952  0.5921  0.8939
14704TIP3   OH265602   5.329   5.663   4.486  0.0096  0.3105 -0.6033
14704TIP3    H165603   5.329   5.568   4.476 -1.4170  0.1495  0.5147
14704TIP3    H265604   5.333   5.677   4.580  0.7204  1.3880 -0.7757
14705TIP3   OH265605   0.961   5.704   6.698  0.7449 -0.4456 -0.0428
14705TIP3    H165606   0.956   5.652   6.618  1.0196 -0.2450 -0.1915
14705TIP3    H265607   0.980   5.640   6.767  0.5329 -0.6150 -0.1418
14706TIP3   OH265608   0.062   5.315  12.382 -0.0477 -0.0649  0.4263
14706TIP3    H165609   0.116   5.394  12.384 -1.9446  1.2581  2.0652
14706TIP3    H265610  -0.019   5.341  12.338 -1.1117 -0.7717  1.8575
14707TIP3   OH265611   1.137   1.681  11.960  0.0635  0.4473 -0.0960
14707TIP3    H165612   1.215   1.626  11.949 -0.0881  0.0979  0.5386
14707TIP3    H265613   1.169   1.761  12.000  0.1585  0.4686 -0.2142
14708TIP3   OH265614   0.501   5.833   4.847  0.1583  0.0358  0.3403
14708TIP3    H165615   0.490   5.927   4.856 -2.2714 -0.0068 -1.1227
14708TIP3    H265616   0.557   5.822   4.770  0.3754  0.2750  0.4645
14709TIP3   OH265617   1.395   4.291   5.453 -0.4808 -0.6347 -0.1099
14709TIP3    H165618   1.374   4.240   5.531 -0.7023  0.2979  0.4678
14709TIP3    H265619   1.444   4.367   5.487 -1.9419  0.6095 -0.6550
14710TIP3   OH265620   2.452   5.781  16.008 -0.0343  0.4537 -0.4023
14710TIP3    H165621   2.521   5.731  15.963 -1.0272 -0.0239 -1.4507
14710TIP3    H265622   2.379   5.719  16.016  0.2384  0.3741  2.3404
14711TIP3   OH265623   2.102   5.335  15.443 -0.3931  0.4475 -0.2880
14711TIP3    H165624   2.145   5.303  15.364 -0.4315  0.1052 -0.1735
14711TIP3    H265625   2.075   5.256  15.489  2.0220  0.5155  1.4122
14712TIP3   OH265626   5.995   4.396  16.278  0.0383  0.3200 -0.0195
14712TIP3    H165627   5.952   4.310  16.282  0.0735  0.1958 -1.6862
14712TIP3    H265628   6.035   4.398  16.191  0.0621  2.0292  0.0088
14713TIP3   OH265629   1.539   1.791   4.044  0.1694 -0.0072 -0.0575
14713TIP3    H165630   1.505   1.745   4.121 -1.3584  0.9198 -0.1381
14713TIP3    H265631   1.634   1.779   4.049  0.0329 -0.7066  1.4897
14714TIP3   OH265632   2.993   5.812  12.739  0.3876 -0.9542 -0.4540
14714TIP3    H165633   2.988   5.768  12.824  0.6607 -1.7919 -0.8566
14714TIP3    H265634   3.085   5.833  12.727  0.3997 -1.1246 -0.6769
14715TIP3   OH265635   5.799   0.664   5.602 -0.2502 -0.6890  0.6184
14715TIP3    H165636   5.812   0.624   5.517  0.3959 -1.2222  0.9508
14715TIP3    H265637   5.800   0.758   5.585  2.3246 -0.6784  0.2937
14716TIP3   OH265638   1.607   2.783  16.613 -0.7796  0.3059  0.7933
14716TIP3    H165639   1.684   2.734  16.584 -1.4494  0.6305 -1.7410
14716TIP3    H265640   1.642   2.866  16.646  0.0651 -0.2975  1.4675
14717TIP3   OH265641   3.776   0.122  14.086  0.4436  0.6120  0.6481
14717TIP3    H165642   3.789   0.140  13.992 -0.3139  0.3196  0.4821
14717TIP3    H265643   3.690   0.160  14.106 -0.1429 -0.7474  0.8375
14718TIP3   OH265644   5.700   5.785  14.139 -0.0650  0.4023  0.0422
14718TIP3    H165645   5.772   5.847  14.150  0.2444  0.0923 -0.2435
14718TIP3    H265646   5.731   5.704  14.180  0.5879 -0.3801 -1.8806
14719TIP3   OH265647   3.420   2.303  16.738  0.3354 -0.2546 -0.0274
14719TIP3    H165648   3.423   2.241  16.812  0.6131 -0.9311 -0.5945
14719TIP3    H265649   3.496   2.360  16.752 -0.3632  0.4915  0.9287
14720TIP3   OH265650   3.373   2.460   1.116  0.5814  0.0354 -0.6436
14720TIP3    H165651   3.448   2.408   1.087  1.2622  0.6723 -0.0697
14720TIP3    H265652   3.298   2.417   1.076  1.1759 -1.0313 -0.6617
14721TIP3   OH265653   0.745   5.792   0.218  0.2725 -0.1785 -0.5738
14721TIP3    H165654   0.758   5.886   0.205  0.0001 -0.1756 -0.8340
14721TIP3    H265655   0.833   5.758   0.236  0.4615  0.0330 -1.0811
14722TIP3   OH265656   5.831   1.039   5.756 -0.1751 -0.2456  0.2217
14722TIP3    H165657   5.907   0.982   5.764 -0.2543 -0.4566 -0.5220
14722TIP3    H265658   5.760   0.989   5.797 -0.6077 -1.3928 -1.7879
14723TIP3   OH265659   5.284   3.299   4.528  0.4473 -0.0699 -0.1598
14723TIP3    H165660   5.232   3.374   4.500  3.1782  1.5506 -1.2593
14723TIP3    H265661   5.305   3.317   4.619  2.3468  1.3843 -0.8228
14724TIP3   OH265662   5.119   2.433   4.176 -0.2349  0.2452  0.8500
14724TIP3    H165663   5.132   2.445   4.270  1.0489  1.8288  0.5065
14724TIP3    H265664   5.193   2.478   4.135  0.5871 -2.4212 -0.8697
14725TIP3   OH265665   4.460   4.021   0.389 -0.3559 -0.3917  0.3449
14725TIP3    H165666   4.507   4.105   0.388 -0.7119 -0.1778  0.8511
14725TIP3    H265667   4.456   3.995   0.297  0.4638 -0.2547  0.2589
14726TIP3   OH265668   2.830   1.084  13.900 -0.0978  0.2422  0.4485
14726TIP3    H165669   2.918   1.116  13.881 -0.8128  1.4352 -1.0973
14726TIP3    H265670   2.813   1.020  13.830 -0.2706 -0.3876  1.0551
14727TIP3   OH265671   2.755   4.752  17.016 -0.3062  0.4716  0.3095
14727TIP3    H165672   2.847   4.770  16.997 -0.7101  1.1286 -1.1715
14727TIP3    H265673   2.724   4.699  16.943 -1.1567  0.4202  0.6850
14728TIP3   OH265674   4.776   5.560  13.736  0.0135  0.0704  0.6082
14728TIP3    H165675   4.771   5.643  13.689 -0.0531 -0.4227 -0.2751
14728TIP3    H265676   4.684   5.532  13.744  0.0742 -0.2009  0.3771
14729TIP3   OH265677   6.601   1.699   5.159  0.5752 -0.2119  0.7660
14729TIP3    H165678   6.697   1.695   5.168  0.6451  1.6620  1.3314
14729TIP3    H265679   6.571   1.729   5.245 -0.5213 -0.6401  0.5443
14730TIP3   OH265680   5.648   4.706   5.200  0.4361 -0.4236  0.1495
14730TIP3    H165681   5.710   4.653   5.150  0.2705 -0.9815  0.5294
14730TIP3    H265682   5.688   4.716   5.286 -0.2954 -1.3489  0.6120
14731TIP3   OH265683   0.785   3.859   2.246 -0.4070 -0.7678 -0.0074
14731TIP3    H165684   0.743   3.944   2.237  1.4588  0.3381  1.0625
14731TIP3    H265685   0.865   3.866   2.194  0.4854 -1.3341  1.2255
14732TIP3   OH265686   2.112   2.687   4.048  0.4859 -0.0233  0.2636
14732TIP3    H165687   2.062   2.625   3.995  0.5744  0.6226 -0.6046
14732TIP3    H265688   2.189   2.638   4.076  1.4490  0.1441 -1.8700
14733TIP3   OH265689   6.531   5.409   5.320 -0.0810 -0.4978  0.3113
14733TIP3    H165690   6.564   5.413   5.230  1.6174  0.2048  0.9400
14733TIP3    H265691   6.437   5.392   5.309  0.4117 -2.5447 -1.5490
14734TIP3   OH265692   6.620   0.851  17.353  0.1037 -0.5683  0.6253
14734TIP3    H165693   6.593   0.778  17.409 -1.1113 -0.2250  0.5141
14734TIP3    H265694   6.659   0.809  17.276  1.0122 -1.0534  1.3253
14735TIP3   OH265695   1.581   2.473  15.544  0.4862 -0.6522  0.9258
14735TIP3    H165696   1.540   2.388  15.562 -1.2127  0.3026  1.7754
14735TIP3    H265697   1.526   2.511  15.475  2.3478 -0.9725 -0.8454
14736TIP3   OH265698   2.002   5.708  11.174  0.0578  0.3670 -0.4915
14736TIP3    H165699   1.926   5.659  11.207  0.0718  0.4926 -0.2697
14736TIP3    H265700   2.000   5.790  11.223  0.0616  0.5683 -0.8273
14737TIP3   OH265701   3.573   2.470  12.231 -0.1391  0.2427 -0.3545
14737TIP3    H165702   3.590   2.564  12.235 -1.5766  0.5612 -1.0174
14737TIP3    H265703   3.585   2.447  12.138  2.3320 -0.6993  0.1323
14738TIP3   OH265704   1.980   3.085   0.067  0.5096  0.1468 -0.4041
14738TIP3    H165705   2.015   3.050   0.149 -0.5079 -1.0626 -0.4610
14738TIP3    H265706   1.921   3.018   0.035 -2.2671  2.2562 -0.0791
14739TIP3   OH265707   5.786   6.054  13.936 -0.2256  0.0716  0.2586
14739TIP3    H165708   5.881   6.046  13.938 -0.0030  1.6784 -1.0704
14739TIP3    H265709   5.764   6.052  13.843 -1.1810  2.2879  0.3663
14740TIP3   OH265710   1.847   2.360   3.443  0.0646  0.8751  0.1678
14740TIP3    H165711   1.867   2.452   3.455 -0.0383  0.8458  0.5676
14740TIP3    H265712   1.751   2.356   3.440  0.0436  0.6815  0.9779
14741TIP3   OH265713   4.200   6.186  14.288  0.5398 -0.0144  0.0972
14741TIP3    H165714   4.290   6.204  14.318  0.5564 -1.5916  1.1671
14741TIP3    H265715   4.212   6.135  14.208  0.5323  1.5336 -0.9371
14742TIP3   OH265716   4.588   5.593   2.318 -1.0386 -0.1235  0.1941
14742TIP3    H165717   4.620   5.650   2.388  0.3543 -0.3780 -0.1960
14742TIP3    H265718   4.627   5.629   2.238 -0.8347 -1.0961 -0.1598
14743TIP3   OH265719   6.624   4.999  17.119  0.1235  0.0330 -0.1366
14743TIP3    H165720   6.625   5.051  17.039  2.0384  0.4221  0.0852
14743TIP3    H265721   6.684   4.926  17.101  0.9751  0.3942  1.0790
14744TIP3   OH265722   0.058   1.204  12.132  0.0944  0.2497 -0.1974
14744TIP3    H165723   0.038   1.209  12.226  2.8283 -1.4611  0.5896
14744TIP3    H265724   0.081   1.293  12.108 -1.5458  0.8981  0.4946
14745TIP3   OH265725   6.224   3.212   3.933 -0.8878 -0.8268  0.3896
14745TIP3    H165726   6.202   3.162   4.011 -2.0870  0.4318  0.8922
14745TIP3    H265727   6.154   3.276   3.924  0.6795  0.9413 -0.0609
14746TIP3   OH265728   5.860   6.034  14.992  0.4344 -0.4580 -0.2321
14746TIP3    H165729   5.955   6.044  15.000  0.2502  2.3403 -0.5084
14746TIP3    H265730   5.830   6.015  15.081  1.0566  1.3280  0.4073
14747TIP3   OH265731   3.950   0.879  11.962 -0.7486 -0.3679 -0.1220
14747TIP3    H165732   3.930   0.972  11.973 -0.4184 -0.3250  0.1460
14747TIP3    H265733   3.874   0.843  11.916  0.2311  0.5709 -2.6679
14748TIP3   OH265734   0.680   6.580   0.606 -0.4793 -0.3058 -0.2722
14748TIP3    H165735   0.635   6.665   0.611  0.9183  0.3807  2.0881
14748TIP3    H265736   0.755   6.596   0.548  0.7507  0.6400  1.4818
14749TIP3   OH265737   0.964   4.680   2.238  0.0224 -0.1888  0.2116
14749TIP3    H165738   0.941   4.772   2.252 -1.1490 -0.2267 -1.2082
14749TIP3    H265739   1.057   4.681   2.217  1.2170  0.1582  4.4814
14750TIP3   OH265740   5.890   2.163   6.031  0.4285 -0.1343  0.2822
14750TIP3    H165741   5.810   2.199   6.067 -0.6283 -0.6943 -1.3927
14750TIP3    H265742   5.955   2.233   6.040 -0.2479  0.3547  1.5557
14751TIP3   OH265743   0.655   2.336  15.445 -0.2335 -0.8841 -0.1047
14751TIP3    H165744   0.716   2.265  15.464  1.1631 -0.0362 -1.2032
14751TIP3    H265745   0.591   2.333  15.516  0.9530 -1.9566  0.9608
14752TIP3   OH265746   4.580   6.728  14.505  0.0250  0.2480  0.1576
14752TIP3    H165747   4.519   6.673  14.456 -0.6223  1.2168 -0.1464
14752TIP3    H265748   4.619   6.786  14.439  0.4964  0.3470  0.5138
14753TIP3   OH265749   6.505   2.666   4.988 -0.3804 -0.2614 -0.0485
14753TIP3    H165750   6.512   2.571   4.995 -0.7230 -0.2388  0.7275
14753TIP3    H265751   6.554   2.688   4.909 -1.2521 -1.1917 -0.8709
14754TIP3   OH265752   4.860   4.586  12.166 -0.3259 -0.3065  0.1377
14754TIP3    H165753   4.818   4.648  12.227 -0.5499 -0.1333 -0.1878
14754TIP3    H265754   4.801   4.511  12.165 -0.8406  0.1006 -0.6248
14755TIP3   OH265755   4.137   3.525   0.607 -0.5204  0.3085 -0.3132
14755TIP3    H165756   4.221   3.555   0.573 -0.5155  0.4387 -0.1869
14755TIP3    H265757   4.085   3.506   0.529 -0.1711 -0.3441 -0.3950
14756TIP3   OH265758   4.576   3.315   4.037  0.5724  0.1598 -0.2577
14756TIP3    H165759   4.671   3.301   4.031  0.2329 -3.8357  0.9777
14756TIP3    H265760   4.556   3.298   4.129 -1.1028  3.9625  0.2557
14757TIP3   OH265761   0.575   3.052   5.054  0.4566  0.0302 -1.0261
14757TIP3    H165762   0.485   3.056   5.085  0.5015 -2.7490 -0.2635
14757TIP3    H265763   0.568   3.064   4.959 -0.3887  2.2274 -0.7474
14758TIP3   OH265764   6.256   1.792  11.206 -0.7436 -0.2693 -0.3415
14758TIP3    H165765   6.263   1.761  11.296  2.4036 -1.0077 -0.7091
14758TIP3    H265766   6.340   1.836  11.190 -0.6018 -1.4213 -3.3151
14759TIP3   OH265767   5.960   1.494   5.234  0.1556  0.5212 -0.2594
14759TIP3    H165768   5.956   1.416   5.178 -1.2904  0.2151  0.2403
14759TIP3    H265769   5.921   1.564   5.181  0.7914  0.7486 -0.4365
14760TIP3   OH265770   5.632   1.694   6.314 -0.3540 -0.1162 -0.7159
14760TIP3    H165771   5.656   1.715   6.223  3.2570  1.5684  0.4239
14760TIP3    H265772   5.683   1.615   6.335 -0.4762  0.0081  0.0869
14761TIP3   OH265773   0.429   2.413   0.729  0.3891  0.0522  0.3935
14761TIP3    H165774   0.450   2.444   0.817  1.6771 -1.1255  0.5407
14761TIP3    H265775   0.382   2.330   0.743 -0.1714  0.2890 -0.0292
14762TIP3   OH265776   0.659   5.540  10.742  0.1509  0.1432 -0.7842
14762TIP3    H165777   0.611   5.616  10.774 -0.4805 -0.7048  0.3887
14762TIP3    H265778   0.593   5.487  10.697 -0.4660 -1.6897  1.9969
14763TIP3   OH265779   6.569   5.740  11.355 -0.2991  0.3202 -0.8705
14763TIP3    H165780   6.622   5.817  11.379 -2.7010  2.3668 -1.7097
14763TIP3    H265781   6.583   5.730  11.261  2.2901 -2.2466 -0.3488
14764TIP3   OH265782   1.648   1.935  13.376 -0.1086 -0.4775  0.1612
14764TIP3    H165783   1.686   2.022  13.359 -0.8730 -0.6034 -2.8762
14764TIP3    H265784   1.723   1.876  13.372  0.2558 -0.0816  1.0078
14765TIP3   OH265785   6.551   5.517   2.994 -0.0294  0.1277 -0.1053
14765TIP3    H165786   6.634   5.480   3.023 -0.1653 -2.4754 -2.5896
14765TIP3    H265787   6.492   5.441   2.988 -1.8413  1.5015 -0.8778
14766TIP3   OH265788   2.934   2.779   0.698  0.4242 -0.1212 -0.2659
14766TIP3    H165789   3.022   2.787   0.662  0.7875 -0.6599  0.4735
14766TIP3    H265790   2.947   2.779   0.793 -0.3901 -0.0389 -0.1452
14767TIP3   OH265791   2.743   6.647  12.400 -0.3603  0.5596 -0.0151
14767TIP3    H165792   2.666   6.595  12.376 -1.8325  2.5888  0.0918
14767TIP3    H265793   2.768   6.615  12.487 -2.3936  1.2353  0.8623
14768TIP3   OH265794   1.373   3.492   0.102 -0.4050  0.0094 -0.3183
14768TIP3    H165795   1.307   3.561   0.110  0.1452  0.4782  0.2622
14768TIP3    H265796   1.347   3.444   0.024 -1.0919  0.5607 -0.4432
14769TIP3   OH265797   2.882   2.354  14.263 -0.0794 -0.3116 -0.0359
14769TIP3    H165798   2.895   2.341  14.169  0.2503  1.6261 -0.2984
14769TIP3    H265799   2.970   2.346  14.301  0.2578  1.6802 -0.3053
14770TIP3   OH265800   3.671   2.895   5.436  0.3631  0.4401  0.0856
14770TIP3    H165801   3.603   2.855   5.490  0.2741  0.6333  0.1203
14770TIP3    H265802   3.747   2.837   5.445  0.1421  0.1169 -0.1096
14771TIP3   OH265803   3.111   0.674  16.295 -0.5386  0.1754  0.1174
14771TIP3    H165804   3.116   0.698  16.387  1.6756 -1.1774  0.4209
14771TIP3    H265805   3.191   0.710  16.256 -1.1533  0.2209 -1.1525
14772TIP3   OH265806   0.432   3.466   4.378 -0.0344  0.5992  0.0589
14772TIP3    H165807   0.482   3.548   4.371 -0.5079  0.9270  0.4448
14772TIP3    H265808   0.453   3.434   4.466 -1.2712  1.2603  0.6237
14773TIP3   OH265809   2.195   1.214  16.152 -1.1552  0.4520  0.1250
14773TIP3    H165810   2.119   1.267  16.176 -2.0642  0.0166 -1.6153
14773TIP3    H265811   2.179   1.191  16.060  0.7532 -0.2280 -0.0642
14774TIP3   OH265812   0.681   0.008   1.439 -0.2354 -0.1755 -0.2930
14774TIP3    H165813   0.587  -0.005   1.425 -0.0888 -2.1406  0.1621
14774TIP3    H265814   0.721  -0.016   1.356  0.1179 -4.3765  0.8585
14775TIP3   OH265815   0.596   3.864  12.219 -0.4212 -0.2860  0.5099
14775TIP3    H165816   0.608   3.953  12.186 -2.8733 -0.0776 -0.0097
14775TIP3    H265817   0.654   3.810  12.165 -1.6281  0.5468 -1.7291
14776TIP3   OH265818   6.584   4.126   0.251  0.5597 -0.1407 -0.4993
14776TIP3    H165819   6.610   4.051   0.304 -0.0471  0.3528  0.5410
14776TIP3    H265820   6.547   4.088   0.172  1.4354 -0.9041 -0.5623
14777TIP3   OH265821   2.870   1.245   4.135  0.1375  0.3162  0.1800
14777TIP3    H165822   2.924   1.296   4.195  0.0355 -1.3832  1.8168
14777TIP3    H265823   2.781   1.256   4.167  0.3014 -2.4108  1.8917
14778TIP3   OH265824   5.884   6.738   5.677  0.5357 -0.3718 -0.1366
14778TIP3    H165825   5.902   6.644   5.678 -1.4700 -0.8282 -1.3827
14778TIP3    H265826   5.907   6.768   5.765 -0.6696 -2.4301  0.9713
14779TIP3   OH265827   1.760   1.934   2.588 -0.2827  0.2386 -0.0347
14779TIP3    H165828   1.768   1.855   2.640  1.0309  0.6918  0.4872
14779TIP3    H265829   1.841   1.938   2.537 -1.0600  0.3769 -1.3281
14780TIP3   OH265830   5.554   5.420   0.365 -0.0340 -0.2186  0.2318
14780TIP3    H165831   5.510   5.422   0.450  0.2296 -1.5217  0.4143
14780TIP3    H265832   5.647   5.411   0.387  0.0324 -0.6021 -0.1898
14781TIP3   OH265833   0.344   0.536  12.251 -0.1538  0.1991  0.3162
14781TIP3    H165834   0.287   0.490  12.312 -0.8839 -1.7640 -1.6864
14781TIP3    H265835   0.427   0.488  12.255  0.1605  0.7562  0.5610
14782TIP3   OH265836   0.529   4.375  12.163 -0.4869 -0.5029 -0.3315
14782TIP3    H165837   0.517   4.468  12.181 -0.3256 -0.5475  0.0243
14782TIP3    H265838   0.547   4.370  12.069  1.5421  0.0333 -0.0092
14783TIP3   OH265839   6.263   1.284   1.109 -0.0066  0.3338 -0.0152
14783TIP3    H165840   6.266   1.373   1.146 -0.5674 -0.3169  1.6860
14783TIP3    H265841   6.338   1.239   1.149 -1.4474 -0.8041  1.5517
14784TIP3   OH265842   3.196   0.164   5.040  0.3949  0.0607 -0.0591
14784TIP3    H165843   3.185   0.207   4.955  1.5741  0.8302  0.1526
14784TIP3    H265844   3.273   0.206   5.079 -0.4772  0.1592  1.6614
14785TIP3   OH265845   3.184   2.076   5.977  0.1904  0.9378 -0.4614
14785TIP3    H165846   3.241   2.025   6.035 -1.7362 -0.0258  0.6960
14785TIP3    H265847   3.101   2.029   5.978 -0.1393  1.2558 -3.5445
14786TIP3   OH265848   0.632   2.858  15.224  0.2379 -0.3025 -0.1748
14786TIP3    H165849   0.654   2.778  15.177  1.7962 -0.0765  0.1062
14786TIP3    H265850   0.716   2.904  15.234 -0.5553  1.1626  0.0413
14787TIP3   OH265851   1.707   4.126   3.047 -0.3621 -0.2084  0.0696
14787TIP3    H165852   1.673   4.103   2.961 -0.8474 -2.7621  0.8531
14787TIP3    H265853   1.706   4.043   3.096 -0.2350  1.1762  2.5659
14788TIP3   OH265854   4.427   0.010   3.607 -0.1225  0.1144 -0.2140
14788TIP3    H165855   4.380  -0.070   3.631  0.0532 -0.1507 -0.7451
14788TIP3    H265856   4.448  -0.001   3.515 -0.9572  1.2154 -0.5430
14789TIP3   OH265857   5.548   4.136  17.028  0.0205 -0.1375  0.0991
14789TIP3    H165858   5.535   4.051  17.070  1.3514 -0.0172  0.7971
14789TIP3    H265859   5.481   4.192  17.067  0.4639 -0.3447  1.1906
14790TIP3   OH265860   4.455   4.504  13.022 -0.1530  0.4673  0.2134
14790TIP3    H165861   4.538   4.487  13.067  0.2359  1.3260 -0.1410
14790TIP3    H265862   4.477   4.572  12.958  0.0004 -2.5059 -3.2221
14791TIP3   OH265863   4.569   4.262   0.390 -0.1805  0.2314 -0.0773
14791TIP3    H165864   4.564   4.342   0.339 -1.2646  0.6842  0.7084
14791TIP3    H265865   4.609   4.289   0.473  1.1660 -0.4110 -0.4918
14792TIP3   OH265866   6.731   0.134  11.549  0.7681  0.0260  0.2986
14792TIP3    H165867   6.671   0.088  11.607 -0.1434 -1.0294 -1.3947
14792TIP3    H265868   6.678   0.203  11.508  0.7341 -0.7500 -1.0174
14793TIP3   OH265869   5.715   3.818   2.448 -0.4608 -0.6861  0.2220
14793TIP3    H165870   5.711   3.846   2.356 -0.5945 -0.4564  0.2973
14793TIP3    H265871   5.784   3.752   2.450  1.6491  1.4346  0.5192
14794TIP3   OH265872   3.480   1.134  11.365 -0.4454 -0.4708  0.3575
14794TIP3    H165873   3.511   1.072  11.432  0.1953  1.3028  1.7875
14794TIP3    H265874   3.546   1.203  11.365 -0.9699  0.0850 -1.4361
14795TIP3   OH265875   1.444   3.701   3.662  0.0583  0.2187  0.3389
14795TIP3    H165876   1.357   3.741   3.670 -0.2164 -0.5713  1.6347
14795TIP3    H265877   1.492   3.734   3.738  1.0697  1.0244 -0.6243
14796TIP3   OH265878   5.277   3.856   1.497 -0.0789  0.1652 -0.4522
14796TIP3    H165879   5.284   3.785   1.560 -2.7128 -1.3426 -1.6898
14796TIP3    H265880   5.337   3.831   1.426 -1.7619 -1.5066 -1.3766
14797TIP3   OH265881   4.133   6.469  12.442 -0.1023  0.5858 -0.2148
14797TIP3    H165882   4.157   6.558  12.468 -1.7233  0.2529  2.8276
14797TIP3    H265883   4.108   6.426  12.523 -2.8679 -1.5481 -2.0080
14798TIP3   OH265884   2.691   0.316  11.544 -0.1447 -0.0476 -0.2066
14798TIP3    H165885   2.654   0.398  11.510  1.2311 -0.3046 -2.6147
14798TIP3    H265886   2.781   0.315  11.509  0.4648 -1.7657  1.2449
14799TIP3   OH265887   0.969   2.180  16.666  0.5952 -0.2598  0.1706
14799TIP3    H165888   0.875   2.193  16.663  0.0215 -2.8871  2.4502
14799TIP3    H265889   0.985   2.106  16.608  0.7730 -1.5452  1.7787
14800TIP3   OH265890   6.556   1.096  15.125 -0.2930  0.1072  0.4480
14800TIP3    H165891   6.642   1.067  15.152  0.2482 -1.1760 -2.3154
14800TIP3    H265892   6.565   1.191  15.113  1.0060 -0.1332 -0.6408
14801TIP3   OH265893   3.371   6.319   5.372  0.4378  0.1764  0.5070
14801TIP3    H165894   3.445   6.259   5.385  3.2963  3.4677  0.9547
14801TIP3    H265895   3.382   6.385   5.440 -2.2040  1.5236 -0.2621
14802TIP3   OH265896   1.596   0.789  12.423 -0.2121  0.2480 -0.0651
14802TIP3    H165897   1.589   0.841  12.343  0.4809  0.4399 -0.0086
14802TIP3    H265898   1.648   0.843  12.482 -1.8767  0.7043  1.0309
14803TIP3   OH265899   1.338   4.997   6.674  0.1548 -0.0454  0.1679
14803TIP3    H165900   1.353   4.907   6.704 -2.1713 -0.2699  0.8621
14803TIP3    H265901   1.382   5.052   6.739  0.6137 -0.6445  0.3739
14804TIP3   OH265902   5.706   2.308   5.255 -0.0920 -0.0476 -0.2934
14804TIP3    H165903   5.619   2.313   5.294  0.5096  1.6432  0.9655
14804TIP3    H265904   5.714   2.390   5.206  1.6765  1.0640  1.6887
14805TIP3   OH265905   6.424   4.622   0.469  0.1477  0.7755 -0.6626
14805TIP3    H165906   6.354   4.686   0.485 -1.2206 -0.2703 -2.2021
14805TIP3    H265907   6.433   4.576   0.553 -0.5326  1.3868 -0.2391
14806TIP3   OH265908   6.244   1.862  16.632 -0.0773 -0.5100  0.1286
14806TIP3    H165909   6.331   1.880  16.597 -0.5174  2.5477  0.3348
14806TIP3    H265910   6.184   1.892  16.563 -0.9713 -1.0075  0.6661
14807TIP3   OH265911   4.998   1.013   1.747  0.4089 -0.1044  0.3593
14807TIP3    H165912   4.989   1.100   1.707 -0.1109  0.0631  0.8196
14807TIP3    H265913   5.008   0.953   1.673 -0.7082  0.1803 -0.0444
14808TIP3   OH265914   4.718   4.291   0.646 -0.3745 -0.0601 -0.7533
14808TIP3    H165915   4.674   4.227   0.703  1.8894 -0.5976  0.5027
14808TIP3    H265916   4.805   4.254   0.631  1.0534  2.7209  0.0340
14809TIP3   OH265917   2.776   0.068   2.206  0.8779 -0.2471 -0.1013
14809TIP3    H165918   2.769   0.113   2.290 -2.7550 -0.1278 -0.2912
14809TIP3    H265919   2.774   0.138   2.141 -0.7678 -0.4540 -0.3146
14810TIP3   OH265920   0.355   2.381   5.479  0.4866  0.0281 -0.1280
14810TIP3    H165921   0.341   2.412   5.568  1.4930 -0.5390  0.2347
14810TIP3    H265922   0.327   2.454   5.424  0.4768  0.6317  0.6608
14811TIP3   OH265923   0.951   4.505  14.300 -0.3083  0.4070 -0.1349
14811TIP3    H165924   0.866   4.524  14.259 -1.2402  0.0895  1.5656
14811TIP3    H265925   0.999   4.588  14.292 -1.6041  1.2890  0.7824
14812TIP3   OH265926   3.278   5.106  13.046 -0.4420  0.0769  0.2607
14812TIP3    H165927   3.247   5.167  12.979  0.9128 -1.4561 -1.8889
14812TIP3    H265928   3.199   5.082  13.094 -1.7052  0.3599 -1.5566
14813TIP3   OH265929   4.532   5.459  12.554 -0.3933  0.1088  0.5092
14813TIP3    H165930   4.458   5.417  12.510 -0.1269 -0.8323  0.9145
14813TIP3    H265931   4.605   5.398  12.539  0.0579  0.5395  0.9445
14814TIP3   OH265932   6.156   1.002  13.635 -0.0947 -0.6414 -0.2390
14814TIP3    H165933   6.116   0.923  13.671 -1.6891  0.0132 -0.4872
14814TIP3    H265934   6.199   1.043  13.709 -0.1162 -1.2220  0.1034
14815TIP3   OH265935   1.340   0.075  11.904 -0.2337  0.2083  0.0207
14815TIP3    H165936   1.308   0.162  11.881 -0.4395 -0.1485 -1.1459
14815TIP3    H265937   1.263   0.029  11.939 -0.3408  0.2203 -0.1968
14816TIP3   OH265938   0.444   0.466  15.123  0.0617  0.1918 -0.4228
14816TIP3    H165939   0.466   0.479  15.215  1.9854  1.0793 -0.9576
14816TIP3    H265940   0.365   0.519  15.110  1.5753  2.7108  0.0174
14817TIP3   OH265941   5.581   5.465   1.134  0.1068 -0.3540 -0.2833
14817TIP3    H165942   5.653   5.403   1.130  1.0880  0.8002 -1.5713
14817TIP3    H265943   5.583   5.509   1.049 -1.2645  0.6535  0.1712
14818TIP3   OH265944   3.460   5.435   0.898  0.4434 -0.2675  0.3813
14818TIP3    H165945   3.387   5.375   0.909 -0.0655  0.1517 -0.5395
14818TIP3    H265946   3.519   5.390   0.837 -1.0142  1.0188 -2.1380
14819TIP3   OH265947   6.257   4.015   4.891 -0.3326  0.1513 -0.0177
14819TIP3    H165948   6.321   3.992   4.958 -0.4277 -1.4570 -0.4498
14819TIP3    H265949   6.173   3.987   4.927 -0.6523  1.1363  0.0278
14820TIP3   OH265950   4.459   1.164   3.800  0.1749 -0.6171  0.1061
14820TIP3    H165951   4.465   1.236   3.738  0.3262 -0.2118  0.5843
14820TIP3    H265952   4.526   1.102   3.772 -0.2339 -0.7718 -0.5553
14821TIP3   OH265953   3.806   0.129   2.625 -0.0186 -0.7156 -0.4009
14821TIP3    H165954   3.747   0.204   2.633  0.9848  0.1446 -0.8047
14821TIP3    H265955   3.891   0.163   2.651  0.2497 -2.0345  0.5180
14822TIP3   OH265956   2.113   3.823  11.816  0.5133 -0.2192  0.0550
14822TIP3    H165957   2.103   3.751  11.878  1.4804 -0.9983 -0.6730
14822TIP3    H265958   2.163   3.889  11.864  1.9307 -1.1376 -0.1263
14823TIP3   OH265959   4.211   1.648  12.739  0.3393 -0.3590 -0.3129
14823TIP3    H165960   4.277   1.661  12.670  2.3538 -0.0728  1.5723
14823TIP3    H265961   4.230   1.716  12.803 -1.6606 -0.4504  0.4191
14824TIP3   OH265962   3.811   1.394   2.362  0.0771  0.3727 -0.6829
14824TIP3    H165963   3.887   1.336   2.370  0.3530  0.8415  0.2634
14824TIP3    H265964   3.849   1.482   2.359 -0.4148  0.5905 -0.5091
14825TIP3   OH265965   0.162   5.983  16.536 -0.0416  0.1575  0.7351
14825TIP3    H165966   0.188   6.071  16.566  2.3069  0.1676 -1.0642
14825TIP3    H265967   0.069   5.978  16.557 -0.0166  2.6538  1.8812
14826TIP3   OH265968   0.437   6.213  13.522 -0.1715  0.5584  0.0195
14826TIP3    H165969   0.457   6.265  13.600  2.6559 -2.0010  1.1735
14826TIP3    H265970   0.446   6.275  13.449  2.3099  1.9518  1.3654
14827TIP3   OH265971   4.797   2.607  15.097 -0.2752 -0.3693 -0.0745
14827TIP3    H165972   4.769   2.559  15.019  0.9292  1.6256 -1.8367
14827TIP3    H265973   4.870   2.556  15.132  1.2239  0.2473 -2.1193
14828TIP3   OH265974   4.703   1.441   4.665 -0.1787  0.4352  0.5757
14828TIP3    H165975   4.730   1.465   4.576 -0.0691  0.1070  0.5192
14828TIP3    H265976   4.780   1.457   4.719 -0.8462  2.5945  0.9750
14829TIP3   OH265977   4.231   5.226  16.051 -0.0816  0.0058  0.1485
14829TIP3    H165978   4.263   5.164  16.116  0.2157 -0.1006 -0.0987
14829TIP3    H265979   4.268   5.195  15.968  1.3448  1.3862  0.2253
14830TIP3   OH265980   4.125   4.130   4.841 -0.0218 -0.1297 -0.4762
14830TIP3    H165981   4.087   4.060   4.789 -0.7115  1.0467 -1.6133
14830TIP3    H265982   4.056   4.154   4.903 -0.9453  1.4744 -2.0244
14831TIP3   OH265983   0.726   4.863   4.576 -0.1230  0.6297 -0.0507
14831TIP3    H165984   0.721   4.946   4.624  0.6747  1.0561 -0.6600
14831TIP3    H265985   0.652   4.812   4.608  0.7344  0.6294  2.0768
14832TIP3   OH265986   4.471   0.763  13.977  0.0434  0.0051  0.2028
14832TIP3    H165987   4.552   0.741  13.931  0.6087  1.0053  0.6915
14832TIP3    H265988   4.438   0.679  14.008 -0.5140 -0.7592 -2.2270
14833TIP3   OH265989   3.785   2.490  16.450 -0.1511 -0.4851 -0.2731
14833TIP3    H165990   3.742   2.463  16.531 -0.9656 -1.3983 -0.9905
14833TIP3    H265991   3.723   2.550  16.409  0.4265  0.2801 -0.0464
14834TIP3   OH265992   2.376   1.549   1.903 -0.6328 -0.1503  0.3825
14834TIP3    H165993   2.365   1.546   1.808  0.4819 -1.0055  0.2596
14834TIP3    H265994   2.294   1.514   1.937 -1.0520  0.1908 -0.2609
14835TIP3   OH265995   5.217   2.320  16.628 -0.8730 -0.6295  0.0052
14835TIP3    H165996   5.301   2.315  16.673 -0.7010  1.2199 -0.0556
14835TIP3    H265997   5.172   2.239  16.653  1.1098 -1.9548 -0.4103
14836TIP3   OH265998   5.011   3.603   3.052 -0.0540 -0.5669  0.2277
14836TIP3    H165999   5.064   3.658   3.109 -1.2573 -1.4397  2.2863
14836TIP3    H266000   5.056   3.518   3.052 -1.2699 -1.2445  1.8014
14837TIP3   OH266001   0.957   2.922   2.102 -0.0946 -0.1267 -0.2675
14837TIP3    H166002   0.970   3.016   2.103 -1.2228  0.0619 -1.2739
14837TIP3    H266003   1.040   2.886   2.132 -0.1108  1.2151  1.5447
14838TIP3   OH266004   2.725   3.738   4.622  0.0950 -0.2598  0.3291
14838TIP3    H166005   2.639   3.754   4.662  0.5776 -0.7593  1.6392
14838TIP3    H266006   2.787   3.778   4.683  0.9964 -2.8528  1.2647
14839TIP3   OH266007   4.523   5.147   5.432  0.1507 -0.1132 -0.1012
14839TIP3    H166008   4.453   5.083   5.420 -0.8452  0.5324  1.8597
14839TIP3    H266009   4.589   5.100   5.484 -0.3237  0.2373  0.8456
14840TIP3   OH266010   0.943   5.490   5.730 -0.3876 -0.3818 -0.2235
14840TIP3    H166011   0.993   5.413   5.703  0.1318 -0.9236  2.1235
14840TIP3    H266012   0.856   5.476   5.693 -0.0061 -1.5582 -0.7323
14841TIP3   OH266013   0.508   3.003   0.546 -0.2068  0.0139 -0.5790
14841TIP3    H166014   0.585   3.042   0.505 -0.5939 -0.5328 -1.8844
14841TIP3    H266015   0.540   2.924   0.589  0.3839  1.1191  1.1178
14842TIP3   OH266016   1.776   3.573  15.307  0.2645 -0.6787  0.0025
14842TIP3    H166017   1.727   3.533  15.235 -2.2354  0.8001  0.7478
14842TIP3    H266018   1.789   3.501  15.369 -0.5971 -1.2413 -0.4310
14843TIP3   OH266019   0.793   3.209  15.781  0.5200  0.1418 -0.5826
14843TIP3    H166020   0.829   3.123  15.799  1.1460  0.7528  1.2786
14843TIP3    H266021   0.722   3.219  15.845 -0.3699  0.5410 -1.5923
14844TIP3   OH266022   2.540   6.339  16.875  0.4376 -0.1354  0.6211
14844TIP3    H166023   2.631   6.361  16.893  0.7489 -0.7885 -0.0980
14844TIP3    H266024   2.543   6.284  16.797 -0.6871  0.9463 -0.2187
14845TIP3   OH266025   1.905   0.007  13.676  0.4194  0.4421  0.2917
14845TIP3    H166026   1.851   0.001  13.754  1.6521 -1.4740  1.0739
14845TIP3    H266027   1.991   0.034  13.708  0.4750  1.5142 -0.6752
14846TIP3   OH266028   0.017   4.994   3.351  0.1961 -0.2065 -0.2153
14846TIP3    H166029  -0.067   5.021   3.313 -0.6485  0.4803  1.9445
14846TIP3    H266030   0.063   4.950   3.280 -1.9668 -0.5312 -1.5111
14847TIP3   OH266031   3.912   5.280   6.002 -0.3757  0.3298 -0.5780
14847TIP3    H166032   3.922   5.185   5.994  0.2269  0.3196  0.1292
14847TIP3    H266033   3.864   5.306   5.924 -1.5628 -0.7020 -0.2207
14848TIP3   OH266034   1.487   1.965  14.305 -0.1962  0.6483 -0.3670
14848TIP3    H166035   1.462   1.894  14.365  0.7318  0.8872  0.3291
14848TIP3    H266036   1.582   1.956  14.296 -0.2496  0.9877 -1.3426
14849TIP3   OH266037   2.150   2.901  13.685  0.1630  0.5180 -0.3419
14849TIP3    H166038   2.061   2.937  13.694  0.0245  0.0937  0.0252
14849TIP3    H266039   2.196   2.931  13.764 -0.2533 -0.9413  0.4984
14850TIP3   OH266040   3.530   5.830  11.753 -0.2321  0.5077 -0.2677
14850TIP3    H166041   3.480   5.860  11.677 -2.5069  0.9541  1.3223
14850TIP3    H266042   3.541   5.909  11.806  1.7042  0.2924 -0.2778
14851TIP3   OH266043   6.298   0.933  12.574  0.4469 -0.3341  0.4045
14851TIP3    H166044   6.297   0.919  12.669 -0.5842 -0.6803  0.3637
14851TIP3    H266045   6.346   0.858  12.539 -2.3897 -2.3356  0.4168
14852TIP3   OH266046   5.090   5.938  16.829  0.4728  0.2272  0.3535
14852TIP3    H166047   5.138   6.014  16.796 -0.1465  0.1444 -0.7793
14852TIP3    H266048   5.010   5.936  16.777 -1.6708  1.4008  3.3189
14853TIP3   OH266049   2.737   2.844  16.135  0.0709  0.0046 -0.6337
14853TIP3    H166050   2.781   2.901  16.197  0.1523 -0.9674  0.2080
14853TIP3    H266051   2.652   2.887  16.120 -0.1198  0.0390  0.4659
14854TIP3   OH266052   4.677   0.379  13.719 -0.0854  0.0495  0.0370
14854TIP3    H166053   4.609   0.313  13.733 -0.1153  0.3088  1.3321
14854TIP3    H266054   4.628   0.460  13.705 -0.1238  0.4628  2.1173
14855TIP3   OH266055   0.624   4.121  12.177  0.2032  0.2662 -0.0992
14855TIP3    H166056   0.701   4.147  12.228 -0.4941  0.0349  1.1212
14855TIP3    H266057   0.572   4.201  12.168  0.2539  0.2750 -0.3173
14856TIP3   OH266058   0.137   1.736   4.157  0.2057 -0.0689 -0.5554
14856TIP3    H166059   0.083   1.770   4.086 -0.3658 -0.0127 -0.0934
14856TIP3    H266060   0.227   1.756   4.130 -0.0061 -0.0591 -1.2672
14857TIP3   OH266061   6.554   3.665  15.042 -0.6638  0.9537  0.4922
14857TIP3    H166062   6.557   3.574  15.070 -0.2576  0.5631 -0.7527
14857TIP3    H266063   6.531   3.661  14.949 -0.2291  2.0860  0.3134
14858TIP3   OH266064   1.623   6.327  10.564  0.1842 -0.0398  0.5111
14858TIP3    H166065   1.566   6.271  10.511  0.4410 -0.6705  0.8854
14858TIP3    H266066   1.707   6.280  10.566  0.7320  0.8840 -0.0575
14859TIP3   OH266067   1.357   0.206   1.922  0.4234 -0.8350 -0.0116
14859TIP3    H166068   1.439   0.199   1.969  2.0628  1.9327 -2.1225
14859TIP3    H266069   1.302   0.262   1.977  0.5451 -1.3959  0.6870
14860TIP3   OH266070   0.620   2.914  16.645  0.4495  0.4486  0.2561
14860TIP3    H166071   0.616   2.931  16.551 -0.8811 -0.0741  0.1975
14860TIP3    H266072   0.656   2.826  16.653 -1.7745 -0.5297  0.0854
14861TIP3   OH266073   2.286   5.880  13.566 -0.8365  0.3054 -0.0087
14861TIP3    H166074   2.353   5.929  13.518 -2.3083  1.2017 -1.2443
14861TIP3    H266075   2.296   5.908  13.657 -0.3363  1.3783 -0.3715
14862TIP3   OH266076   5.381   6.511  16.538 -0.5839  0.5563  0.3992
14862TIP3    H166077   5.402   6.422  16.509 -2.1827  0.2426  0.0644
14862TIP3    H266078   5.410   6.515  16.629 -0.8016 -0.4311  0.5201
14863TIP3   OH266079   5.621   3.129  13.306  0.0465  0.3706 -0.1651
14863TIP3    H166080   5.560   3.078  13.254  0.7718 -0.6070 -0.0759
14863TIP3    H266081   5.696   3.142  13.249  0.3558  0.3123  0.2248
14864TIP3   OH266082   3.159   3.611  15.453 -0.1201  0.3876 -0.5832
14864TIP3    H166083   3.254   3.611  15.464 -0.1105  0.7526 -0.6766
14864TIP3    H266084   3.144   3.650  15.367 -0.3087 -0.5340 -0.9752
14865TIP3   OH266085   1.285   1.678   1.275 -0.0346 -0.1677 -0.3860
14865TIP3    H166086   1.367   1.655   1.231 -0.0687 -0.1891 -0.4376
14865TIP3    H266087   1.216   1.646   1.217 -0.0754 -0.9695  0.0761
14866TIP3   OH266088   6.456   1.229  12.703  0.1841 -0.4068 -0.2430
14866TIP3    H166089   6.446   1.283  12.781 -2.1490 -4.3836  2.5026
14866TIP3    H266090   6.547   1.199  12.706  0.5879  0.7752 -0.0783
14867TIP3   OH266091   0.270   3.402   2.936 -0.6973  0.0778  0.0488
14867TIP3    H166092   0.264   3.417   3.030  2.7939 -1.0975  0.5935
14867TIP3    H266093   0.258   3.488   2.897  0.9692  1.1894  1.8335
14868TIP3   OH266094   2.271   5.077  12.815 -0.2933  0.1435  0.0413
14868TIP3    H166095   2.289   4.990  12.778  0.1014  0.5714 -0.7938
14868TIP3    H266096   2.325   5.081  12.893 -1.4275 -0.9272  0.9325
14869TIP3   OH266097   3.579   4.769  15.448  0.6831  0.3047 -0.3161
14869TIP3    H166098   3.572   4.795  15.540  2.1069  1.1543 -0.4222
14869TIP3    H266099   3.546   4.845  15.399 -0.0331 -0.1280 -0.5170
14870TIP3   OH266100   5.816   3.230   1.114  0.0698 -0.0056 -0.0355
14870TIP3    H166101   5.729   3.271   1.119  0.5298  1.0115 -0.0431
14870TIP3    H266102   5.876   3.299   1.141  0.9365 -0.4856 -0.6936
14871TIP3   OH266103   0.446   5.599   3.158  0.1020 -0.4519 -0.1347
14871TIP3    H166104   0.525   5.574   3.206  0.1391  0.3009  0.2025
14871TIP3    H266105   0.415   5.517   3.119 -0.0059 -1.1119  1.2756
14872TIP3   OH266106   1.777   0.425   2.499  0.3197 -0.1081  0.4030
14872TIP3    H166107   1.818   0.338   2.500 -1.0902 -0.8348 -0.5965
14872TIP3    H266108   1.720   0.423   2.421 -1.9057  0.6510  1.8983
14873TIP3   OH266109   2.686   5.125  11.615  0.1901  0.1179 -0.0677
14873TIP3    H166110   2.703   5.057  11.550 -1.6864 -1.0734  0.5964
14873TIP3    H266111   2.602   5.162  11.590 -0.4167 -0.1415  1.4681
14874TIP3   OH266112   5.641   1.304  13.642  0.2470  0.5668  0.7457
14874TIP3    H166113   5.712   1.257  13.686  0.1389  1.9895  2.5459
14874TIP3    H266114   5.645   1.274  13.552  2.9298  0.3487  0.8652
14875TIP3   OH266115   4.790   6.361   4.177  0.1815  0.4065  0.1447
14875TIP3    H166116   4.843   6.392   4.105 -0.1197 -1.3362 -0.8930
14875TIP3    H266117   4.703   6.347   4.139  0.0898 -0.8225  0.7325
14876TIP3   OH266118   5.608   3.777  16.887 -0.1396  1.1804  0.3981
14876TIP3    H166119   5.615   3.768  16.982  0.5498 -0.0435  0.2521
14876TIP3    H266120   5.622   3.870  16.870 -0.2895  1.4159  1.4902
14877TIP3   OH266121   5.247   4.123  12.669 -0.0428 -0.2762 -0.1582
14877TIP3    H166122   5.337   4.153  12.682 -0.3826  1.1922 -0.9311
14877TIP3    H266123   5.232   4.060  12.740  1.9978 -1.5712 -0.7870
14878TIP3   OH266124   1.844   3.438  14.418  0.1015  0.3661 -0.4874
14878TIP3    H166125   1.882   3.376  14.480  0.4060  0.9896 -0.0421
14878TIP3    H266126   1.895   3.518  14.429 -0.4400  0.7759 -0.8859
14879TIP3   OH266127   4.880   6.325  17.168 -0.0482  0.3142  0.0491
14879TIP3    H166128   4.954   6.351  17.113 -0.2490  0.6199 -0.0780
14879TIP3    H266129   4.921   6.291  17.248  0.3302 -2.1950 -1.1235
14880TIP3   OH266130   2.015   4.473   0.594 -0.2973 -0.4658  0.2762
14880TIP3    H166131   2.040   4.560   0.623  0.2056 -0.8081  0.9031
14880TIP3    H266132   2.096   4.422   0.599 -0.4901 -0.8700 -0.4857
14881TIP3   OH266133   4.104   4.288   3.361  0.7042  0.2726 -0.0009
14881TIP3    H166134   4.192   4.282   3.398  0.7107 -1.7737 -0.2364
14881TIP3    H266135   4.047   4.301   3.436  1.1540  1.2648  0.1856
14882TIP3   OH266136   4.994   4.816  16.488 -0.3010  0.0986  0.6312
14882TIP3    H166137   4.979   4.828  16.394 -1.8905 -0.2385  0.8105
14882TIP3    H266138   4.970   4.724  16.504  0.6492 -0.0509  1.2501
14883TIP3   OH266139   2.959   6.329  12.511  0.3475 -0.4410 -0.1778
14883TIP3    H166140   3.001   6.373  12.438 -1.8358  1.0224 -0.6536
14883TIP3    H266141   3.005   6.246  12.519  0.7026 -0.6348 -3.1820
14884TIP3   OH266142   5.387   0.631  12.139  0.9345 -0.3389 -0.3917
14884TIP3    H166143   5.384   0.648  12.233  1.2978 -0.7678 -0.2957
14884TIP3    H266144   5.461   0.684  12.107 -2.2675  4.0708 -1.4003
14885TIP3   OH266145   2.635   5.126   4.992  0.8725 -0.6537 -0.0814
14885TIP3    H166146   2.707   5.070   5.019  0.0568 -0.8389  1.9635
14885TIP3    H266147   2.560   5.067   4.985 -0.0933  0.1051  2.4993
14886TIP3   OH266148   0.375   6.564   1.499 -0.0685  0.3437 -0.0922
14886TIP3    H166149   0.306   6.601   1.554 -0.2921 -0.7436  0.3667
14886TIP3    H266150   0.369   6.470   1.511  0.6682  0.1523 -1.0523
14887TIP3   OH266151   3.346   4.386  13.678 -0.1139  0.3064 -0.4619
14887TIP3    H166152   3.416   4.450  13.687  2.3217 -2.1697 -0.4350
14887TIP3    H266153   3.337   4.348  13.765  0.4436 -1.2474 -1.0538
14888TIP3   OH266154   4.864   4.582  16.426  0.8964 -0.6650  0.5442
14888TIP3    H166155   4.851   4.573  16.332  0.7013  2.1442  0.2379
14888TIP3    H266156   4.781   4.554  16.465  0.5227 -0.6142 -0.2060
14889TIP3   OH266157   2.124   1.496  15.925  0.0929 -0.2977  0.5056
14889TIP3    H166158   2.204   1.479  15.875  0.5600  1.5157  0.5817
14889TIP3    H266159   2.077   1.562  15.874 -1.6597 -1.7040  0.1870
14890TIP3   OH266160   6.061   0.888   5.842  0.0596 -0.4268 -0.0707
14890TIP3    H166161   6.051   0.941   5.921  1.1529 -1.7979  1.0417
14890TIP3    H266162   6.110   0.944   5.782 -0.8515  0.6597  0.1777
14891TIP3   OH266163   0.430   5.732  16.035  0.1499  0.0823  0.8835
14891TIP3    H166164   0.488   5.795  15.993 -0.0868 -0.6182 -0.5480
14891TIP3    H266165   0.343   5.770  16.026  0.0678 -0.1905  0.4669
14892TIP3   OH266166   0.832   5.812  12.125  0.4203 -0.2081 -0.6661
14892TIP3    H166167   0.797   5.748  12.186  2.0940 -0.7804 -0.2595
14892TIP3    H266168   0.785   5.893  12.145 -0.8611 -1.0082 -0.3779
14893TIP3   OH266169   6.782   3.567   6.786  0.3603 -0.3737 -0.6950
14893TIP3    H166170   6.834   3.589   6.709  1.8433  1.6268  0.7696
14893TIP3    H266171   6.709   3.629   6.784 -0.3257 -1.1762 -1.1378
14894TIP3   OH266172   6.207   6.666  12.262 -0.2838 -0.4656  0.1757
14894TIP3    H166173   6.206   6.750  12.215 -1.9066  0.1997  1.2744
14894TIP3    H266174   6.151   6.609  12.209  3.7927 -2.2357 -2.6714
14895TIP3   OH266175   5.631   4.562  12.719 -0.2378  0.4535  0.4636
14895TIP3    H166176   5.541   4.581  12.692  0.0034  1.0821  0.0781
14895TIP3    H266177   5.632   4.583  12.813 -0.8399 -0.8608  0.7829
14896TIP3   OH266178   1.291   1.156  16.267  0.1907 -0.3747  0.0510
14896TIP3    H166179   1.324   1.222  16.206  0.8344 -1.5202 -0.8937
14896TIP3    H266180   1.214   1.196  16.307  0.3332  0.7884 -0.7915
14897TIP3   OH266181   3.659   1.037   0.239 -0.1159  0.3725  0.1512
14897TIP3    H166182   3.687   0.956   0.197  3.2523  2.3003 -1.8092
14897TIP3    H266183   3.664   1.019   0.333  0.9162 -1.5687 -0.2379
14898TIP3   OH266184   1.436   4.268  14.966 -0.7745 -0.0687  0.2905
14898TIP3    H166185   1.347   4.296  14.950  0.6094  3.0535 -3.3821
14898TIP3    H266186   1.479   4.343  15.007  0.7066 -0.5969 -0.1923
14899TIP3   OH266187   1.100   2.321  14.214 -0.0160  0.0050  0.1109
14899TIP3    H166188   1.166   2.391  14.209 -1.1480  1.0663 -0.4816
14899TIP3    H266189   1.138   2.249  14.164  0.0326  1.1836 -1.6382
14900TIP3   OH266190   0.963   4.740   3.598 -0.3937  0.5785  0.4535
14900TIP3    H166191   0.991   4.737   3.690  0.9978 -0.4137  0.0239
14900TIP3    H266192   1.041   4.716   3.549 -1.7884 -1.5031 -0.8685
14901TIP3   OH266193   1.859   4.848   1.216 -0.1271  0.7898 -0.0674
14901TIP3    H166194   1.953   4.852   1.233 -0.4657 -1.3663  3.4083
14901TIP3    H266195   1.821   4.910   1.278 -1.0572  0.3482 -0.1787
14902TIP3   OH266196   0.022   0.375  10.517  0.8211  0.2040 -0.0510
14902TIP3    H166197   0.060   0.400  10.433  1.7710 -0.6382  0.1156
14902TIP3    H266198  -0.009   0.286  10.504 -0.7063  0.7141 -0.0402
14903TIP3   OH266199   3.113   0.364   0.635 -0.0225  0.0845 -0.7827
14903TIP3    H166200   3.188   0.411   0.597 -0.2600  0.2137 -1.0935
14903TIP3    H266201   3.060   0.433   0.674 -1.3371  0.3397 -2.8511
14904TIP3   OH266202   3.072   2.085   5.672 -0.0784  0.2173 -0.5022
14904TIP3    H166203   3.019   2.010   5.696 -0.0140  0.3474  0.0735
14904TIP3    H266204   3.018   2.135   5.611  0.1208 -0.6099 -1.3892
14905TIP3   OH266205   1.863   3.918   2.744  0.1364 -0.7036 -0.2133
14905TIP3    H166206   1.787   3.880   2.788 -0.6974 -0.4284 -1.3423
14905TIP3    H266207   1.855   3.887   2.653  1.2242 -0.4334 -0.4104
14906TIP3   OH266208   6.760   5.535   0.377  0.8946 -0.1572 -0.3430
14906TIP3    H166209   6.735   5.621   0.345 -0.7959 -0.4212  0.1989
14906TIP3    H266210   6.806   5.553   0.459 -1.7194  0.1794  1.1465
14907TIP3   OH266211   4.181   0.744  13.850  0.1177  0.4180  0.0967
14907TIP3    H166212   4.146   0.754  13.939 -0.0700 -3.6981  0.6739
14907TIP3    H266213   4.249   0.677  13.859  0.4914  0.3047 -2.7747
14908TIP3   OH266214   1.691   4.681  11.087  0.3762 -0.6595  0.4892
14908TIP3    H166215   1.642   4.763  11.089  1.6491  0.1391  1.5398
14908TIP3    H266216   1.628   4.613  11.109 -0.7483 -0.0028 -0.6193
14909TIP3   OH266217   2.890   4.261  16.265  0.1842  0.1398 -0.4656
14909TIP3    H166218   2.832   4.215  16.325  0.9061 -0.0181  0.1153
14909TIP3    H266219   2.856   4.240  16.178 -0.6061  0.0205 -0.1360
14910TIP3   OH266220   1.458   4.589  13.059 -0.2320  0.3405  0.5713
14910TIP3    H166221   1.460   4.681  13.086 -0.1812  0.9075 -1.2130
14910TIP3    H266222   1.457   4.592  12.963 -2.2935 -1.4815  0.4427
14911TIP3   OH266223   6.771   1.024  16.141  0.2391  0.1386  0.0530
14911TIP3    H166224   6.740   0.951  16.089  0.4042 -0.2531  0.4947
14911TIP3    H266225   6.725   1.015  16.225  1.1419 -0.1427  0.5242
14912TIP3   OH266226   3.118   6.126  17.043  0.3346 -0.2638 -0.5323
14912TIP3    H166227   3.023   6.128  17.031 -0.2165 -2.1254  2.5959
14912TIP3    H266228   3.152   6.104  16.956 -2.4190 -3.4518 -0.9937
14913TIP3   OH266229   3.962   0.583  11.802  0.2951 -0.1700  0.0805
14913TIP3    H166230   3.982   0.567  11.709 -1.3443 -0.0142 -0.3300
14913TIP3    H266231   3.869   0.602  11.803  0.5230  1.0347  1.6316
14914TIP3   OH266232   5.761   4.169  15.437  1.0395  0.3682  0.2731
14914TIP3    H166233   5.669   4.176  15.409  0.7577  0.3827  1.1766
14914TIP3    H266234   5.803   4.118  15.367  0.4761  0.8476 -0.4352
14915TIP3   OH266235   4.045   5.633  14.323 -0.6373  0.0105 -0.2154
14915TIP3    H166236   4.035   5.697  14.394 -0.4715  0.5694 -0.6833
14915TIP3    H266237   4.004   5.675  14.247 -2.5239 -1.3519 -0.0351
14916TIP3   OH266238   1.863   1.754   4.423 -0.2401 -0.5447  0.7360
14916TIP3    H166239   1.816   1.715   4.350  1.3678  1.0591 -1.2892
14916TIP3    H266240   1.835   1.704   4.499 -5.1836  0.2422 -0.2226
14917TIP3   OH266241   2.757   0.069  15.712 -0.3063  0.0029 -0.4566
14917TIP3    H166242   2.728   0.043  15.800  0.8140 -1.6179 -0.5349
14917TIP3    H266243   2.850   0.091  15.723 -0.3211  0.4272 -1.1208
14918TIP3   OH266244   0.554   3.618   1.102 -0.3247  0.0622  0.2076
14918TIP3    H166245   0.608   3.695   1.089 -0.7075  0.2633 -0.1969
14918TIP3    H266246   0.549   3.608   1.197 -1.7829  1.6167  0.3281
14919TIP3   OH266247   4.232   1.831  10.668  0.2645 -0.6823  0.1255
14919TIP3    H166248   4.176   1.896  10.625  0.6917  2.3180  3.6041
14919TIP3    H266249   4.175   1.755  10.681 -0.8534 -0.3653 -2.4110
14920TIP3   OH266250   6.348   0.702   5.359 -0.0940 -0.1921 -0.1733
14920TIP3    H166251   6.427   0.663   5.322 -0.4392 -1.0076 -0.0622
14920TIP3    H266252   6.379   0.781   5.403  0.4246  0.4222 -1.5706
14921TIP3   OH266253   1.163   4.730  14.214 -0.0170  0.1174  0.1318
14921TIP3    H166254   1.238   4.714  14.271  0.2828  0.4864 -0.1561
14921TIP3    H266255   1.201   4.735  14.126 -0.6239 -1.7969 -0.2949
14922TIP3   OH266256   2.036   4.800   3.467 -0.3906 -0.2112  0.4372
14922TIP3    H166257   2.057   4.866   3.400 -1.6135  0.7424  0.9587
14922TIP3    H266258   2.111   4.741   3.465 -0.0037  0.2575 -1.1925
14923TIP3   OH266259   4.053   4.295  17.280  0.1288 -0.0643  0.1011
14923TIP3    H166260   4.082   4.266  17.367 -1.8536  0.4096  0.9787
14923TIP3    H266261   4.071   4.389  17.279 -0.5177  0.0694  0.3142
14924TIP3   OH266262   6.044   2.597   3.712 -0.5889 -0.1791  0.1833
14924TIP3    H166263   6.048   2.690   3.688  0.9837  0.0062  0.9791
14924TIP3    H266264   5.958   2.586   3.752 -1.4179  0.5589 -1.3126
14925TIP3   OH266265   5.191   2.767  13.214 -0.3813  0.1831 -0.3675
14925TIP3    H166266   5.178   2.825  13.289  0.1355  2.4518 -1.9172
14925TIP3    H266267   5.255   2.703  13.243 -1.1776  0.1879  1.5136
14926TIP3   OH266268   5.779   0.845   0.388 -0.2811  0.1558  0.2007
14926TIP3    H166269   5.686   0.859   0.371 -0.5572  0.0057  1.4385
14926TIP3    H266270   5.824   0.885   0.314 -1.2565  1.9369  0.5193
14927TIP3   OH266271   6.479   4.103  11.310  0.5127  0.0510  0.3527
14927TIP3    H166272   6.558   4.136  11.354  1.1244  0.3728 -0.9387
14927TIP3    H266273   6.456   4.171  11.247 -0.9469  0.0538  0.8543
14928TIP3   OH266274   3.287   1.862   2.481  0.2101  0.1246 -0.1595
14928TIP3    H166275   3.365   1.857   2.425  0.7845  0.3689  0.5980
14928TIP3    H266276   3.287   1.951   2.516 -0.1585 -0.0054  0.1888
14929TIP3   OH266277   3.470   5.268   2.754 -0.0752  0.0721 -0.1466
14929TIP3    H166278   3.485   5.323   2.677  0.7416 -0.9983 -0.7900
14929TIP3    H266279   3.377   5.279   2.774 -0.4097  0.0102 -1.5810
14930TIP3   OH266280   5.458   2.256   3.524 -0.1641  0.0988 -0.4519
14930TIP3    H166281   5.494   2.169   3.510 -0.5109  0.0571 -1.1624
14930TIP3    H266282   5.529   2.306   3.564  0.2403 -0.3451 -0.6132
14931TIP3   OH266283   1.513   1.716   2.708 -0.3171 -0.6935 -0.0563
14931TIP3    H166284   1.486   1.789   2.652 -0.9114 -0.9596 -0.1273
14931TIP3    H266285   1.516   1.641   2.649  1.3212 -0.5411 -0.2079
14932TIP3   OH266286   6.691   1.731   5.593 -0.3437 -0.5733 -0.2655
14932TIP3    H166287   6.608   1.744   5.547 -1.3307 -3.7665  0.3491
14932TIP3    H266288   6.665   1.703   5.681  1.4927  1.9314  1.2027
14933TIP3   OH266289   2.588   5.517  16.194  0.1432 -0.2603  0.5843
14933TIP3    H166290   2.561   5.442  16.248  1.7052 -1.3123 -0.0518
14933TIP3    H266291   2.562   5.493  16.105  0.0489  0.2628  0.4691
14934TIP3   OH266292   3.776   2.545  17.198 -0.0857 -0.7886 -0.1561
14934TIP3    H166293   3.807   2.573  17.111  2.4599 -1.0900  0.5943
14934TIP3    H266294   3.804   2.454  17.206  0.2689 -0.5785  1.2256
14935TIP3   OH266295   5.796   0.416   0.018 -0.1141 -0.2529 -0.2472
14935TIP3    H166296   5.842   0.476  -0.041 -1.1083  0.2320 -0.5510
14935TIP3    H266297   5.754   0.474   0.082 -0.5284 -0.6700 -0.1374
14936TIP3   OH266298   2.710   1.370  10.617  0.1552 -0.2549 -0.1049
14936TIP3    H166299   2.757   1.311  10.558 -0.3331  1.0549 -1.8986
14936TIP3    H266300   2.718   1.456  10.576 -3.0743  0.1723 -0.0801
14937TIP3   OH266301   0.001   1.760  15.290 -0.0756  0.5526 -0.4366
14937TIP3    H166302   0.050   1.715  15.222 -0.6407  1.1600 -1.2746
14937TIP3    H266303  -0.032   1.690  15.347  0.5867  0.0551 -0.6502
14938TIP3   OH266304   1.807   0.053   2.018 -0.5115 -0.2892 -0.7862
14938TIP3    H166305   1.855  -0.012   1.967 -1.6861 -0.6853 -1.4224
14938TIP3    H266306   1.871   0.086   2.081  0.3475 -1.4012 -1.0486
14939TIP3   OH266307   3.436   5.989  15.630  0.2105  0.2301  0.5805
14939TIP3    H166308   3.505   6.017  15.690 -0.1643 -0.3549  1.2971
14939TIP3    H266309   3.410   6.069  15.585  1.3208  0.4710  0.3218
14940TIP3   OH266310   4.967   6.642   1.253  0.2592 -0.6573  0.2682
14940TIP3    H166311   4.887   6.594   1.274 -0.2325 -0.0773 -0.2602
14940TIP3    H266312   4.939   6.710   1.192  1.4913 -1.7677 -1.6363
14941TIP3   OH266313   4.024   5.690   1.334  0.2335  0.5149 -0.0328
14941TIP3    H166314   4.068   5.631   1.272  0.0407 -0.4271  0.7019
14941TIP3    H266315   4.063   5.776   1.317 -0.6285  0.5421 -2.2480
14942TIP3   OH266316   4.129   4.857  16.960 -0.1522  0.5128  0.1132
14942TIP3    H166317   4.050   4.908  16.940 -1.4344 -0.2326  2.7900
14942TIP3    H266318   4.108   4.769  16.930 -0.4884  0.2384  1.1470
14943TIP3   OH266319   4.927   1.375   6.039  0.5180 -0.8836  0.3811
14943TIP3    H166320   4.869   1.410   6.107  1.4438  1.5349  0.0217
14943TIP3    H266321   4.884   1.398   5.957  1.5388  0.1535  0.1265
14944TIP3   OH266322   3.191   2.059  14.721 -0.6064 -0.3642  0.0323
14944TIP3    H166323   3.107   2.068  14.676 -0.3671  2.1070 -0.0588
14944TIP3    H266324   3.229   2.147  14.718  1.0600 -0.9584  1.8705
14945TIP3   OH266325   3.298   2.510  16.604  0.1291  0.0889 -0.3571
14945TIP3    H166326   3.323   2.439  16.663 -0.9752 -0.1811 -0.1928
14945TIP3    H266327   3.228   2.556  16.649  2.0357  2.4750  0.3670
14946TIP3   OH266328   0.207   4.064   5.083 -0.8996 -0.6178  0.2047
14946TIP3    H166329   0.245   4.067   5.171  1.0074  2.5162 -0.5455
14946TIP3    H266330   0.197   3.971   5.064 -1.1220 -1.4192  3.5749
14947TIP3   OH266331   2.195   5.077   4.493  0.4746  0.2727  0.4405
14947TIP3    H166332   2.268   5.020   4.470 -0.1986 -0.6343  0.4785
14947TIP3    H266333   2.141   5.080   4.414  0.5501  0.9333  0.4121
14948TIP3   OH266334   0.968   3.634  13.125  0.0852  0.0674 -0.3149
14948TIP3    H166335   0.971   3.577  13.201  0.2833 -0.9255 -1.0523
14948TIP3    H266336   0.938   3.578  13.054 -0.4395  1.0683 -0.9009
14949TIP3   OH266337   4.840   1.221   2.201 -0.3915  0.4869  0.2787
14949TIP3    H166338   4.776   1.152   2.187  0.2016 -0.0847  0.3614
14949TIP3    H266339   4.889   1.193   2.278  1.1587  0.0047 -0.8508
14950TIP3   OH266340   5.788   0.912   5.458 -0.1069  0.4133 -0.2061
14950TIP3    H166341   5.861   0.917   5.396 -1.4850 -1.2176 -2.0764
14950TIP3    H266342   5.773   1.003   5.484  1.4254  0.9853 -1.1529
14951TIP3   OH266343   6.240   1.776  15.285  0.2357 -0.5627 -0.3097
14951TIP3    H166344   6.216   1.745  15.372  2.5822 -0.0524  0.6044
14951TIP3    H266345   6.223   1.870  15.287 -0.6209 -0.6983 -0.7681
14952TIP3   OH266346   5.856   1.756   3.929  0.1097  0.6207  0.0059
14952TIP3    H166347   5.778   1.788   3.974  0.5469  1.4763  0.1764
14952TIP3    H266348   5.907   1.712   3.997 -0.1727  0.1470 -0.0849
14953TIP3   OH266349   3.707   3.176   5.421  0.6091  0.3213 -0.3054
14953TIP3    H166350   3.790   3.156   5.379 -1.1325  0.6362 -4.3885
14953TIP3    H266351   3.667   3.091   5.438  0.1527  0.1209 -2.1567
14954TIP3   OH266352   0.912   5.833  15.750 -0.2105  0.0308  0.1454
14954TIP3    H166353   0.899   5.853  15.657 -1.4463 -0.2711  0.2364
14954TIP3    H266354   0.904   5.917  15.794  0.1636  0.1419  0.0088
14955TIP3   OH266355   1.897   6.186  16.692  0.0438  0.0260  0.1147
14955TIP3    H166356   1.991   6.190  16.709  0.5365 -0.8692 -2.0774
14955TIP3    H266357   1.865   6.274  16.714  1.1250  0.0005  2.0437
14956TIP3   OH266358   5.154   4.453   1.526  0.8539 -0.0809  0.1479
14956TIP3    H166359   5.238   4.408   1.516 -0.4215 -2.9161  1.2459
14956TIP3    H266360   5.151   4.516   1.454  2.3081 -2.5318 -2.2083
14957TIP3   OH266361   2.419   4.924  16.115 -0.2046 -0.0834 -0.1811
14957TIP3    H166362   2.329   4.957  16.122  0.0921  0.4393  1.7874
14957TIP3    H266363   2.427   4.896  16.024 -2.5249 -0.6216 -0.2854
14958TIP3   OH266364   1.228   3.390   1.457 -0.2098  0.5628 -0.0350
14958TIP3    H166365   1.216   3.420   1.547  0.0450  0.3696  0.0675
14958TIP3    H266366   1.174   3.311   1.450  1.1522 -0.4681  0.5122
14959TIP3   OH266367   2.838   0.313  14.528  0.0239  0.1508 -0.1331
14959TIP3    H166368   2.919   0.348  14.565 -0.4585  1.6274 -0.3949
14959TIP3    H266369   2.841   0.338  14.436 -0.5927 -0.0404 -0.2074
14960TIP3   OH266370   5.402   5.231  13.465  0.3250  0.5603  0.0581
14960TIP3    H166371   5.476   5.290  13.476  1.2148 -0.7212  1.4648
14960TIP3    H266372   5.335   5.264  13.525  0.0921  1.2121 -0.5577
14961TIP3   OH266373   0.511   4.116   1.104 -0.3824  0.3027  0.1396
14961TIP3    H166374   0.465   4.120   1.188 -0.9114  0.8417 -0.1703
14961TIP3    H266375   0.441   4.112   1.039  0.0221 -0.6358 -0.2586
14962TIP3   OH266376   4.273   0.807  14.756  0.3529  0.2310  0.0085
14962TIP3    H166377   4.300   0.793  14.665  0.2931  0.7549 -0.0902
14962TIP3    H266378   4.203   0.871  14.751  1.1019  1.1063  0.5159
14963TIP3   OH266379   4.199   1.418   2.630  0.2981 -0.4657 -0.0016
14963TIP3    H166380   4.215   1.332   2.591 -2.1466 -0.9760 -0.0411
14963TIP3    H266381   4.137   1.460   2.570 -0.3963  0.3569  1.2478
14964TIP3   OH266382   6.092   1.583  13.576  0.0746 -0.5902 -0.5876
14964TIP3    H166383   6.150   1.644  13.621  0.0281 -0.5782 -0.5441
14964TIP3    H266384   6.072   1.516  13.641 -1.1515  0.1937 -0.1364
14965TIP3   OH266385   6.410   5.424  14.218  0.0152  0.0185 -0.2142
14965TIP3    H166386   6.357   5.495  14.253 -1.1401 -0.3980 -1.0448
14965TIP3    H266387   6.389   5.423  14.124  0.1931 -1.2609 -0.2538
14966TIP3   OH266388   5.000   1.424  15.736  0.4220 -0.0187 -0.2628
14966TIP3    H166389   5.084   1.405  15.693 -0.3614 -1.8512 -1.0869
14966TIP3    H266390   5.002   1.518  15.753  2.5635  0.0139 -0.4256
14967TIP3   OH266391   4.854   0.655   2.034  0.1329 -0.3836 -0.5571
14967TIP3    H166392   4.868   0.748   2.053  1.0817 -0.6121 -0.1027
14967TIP3    H266393   4.843   0.614   2.119 -0.3040 -0.6955 -0.7566
14968TIP3   OH266394   1.815   1.050   0.954 -0.0424  0.0190  0.4792
14968TIP3    H166395   1.878   1.020   1.019 -1.4439 -0.3509  1.7356
14968TIP3    H266396   1.789   0.970   0.907 -0.2917  0.0050  0.6366
14969TIP3   OH266397   5.447   3.058   6.148  0.5047 -0.7306 -0.5251
14969TIP3    H166398   5.487   3.043   6.062 -2.1287  3.0966 -2.6886
14969TIP3    H266399   5.354   3.036   6.135 -0.1648  1.0254  0.9392
14970TIP3   OH266400   1.750   0.407   5.629 -0.0091 -0.2411  0.0045
14970TIP3    H166401   1.740   0.384   5.721 -0.9225 -0.6396 -0.1741
14970TIP3    H266402   1.704   0.490   5.619 -0.0756 -0.2921 -0.1248
14971TIP3   OH266403   0.842   2.315   0.374  0.0352 -0.2352  0.0402
14971TIP3    H166404   0.908   2.378   0.401  1.0802 -1.1603 -0.2970
14971TIP3    H266405   0.761   2.366   0.368  0.6950  0.8976  0.5260
14972TIP3   OH266406   2.049   3.790   1.033  0.0757 -0.1182  0.0161
14972TIP3    H166407   2.105   3.838   1.095  1.0411 -1.0395 -0.1122
14972TIP3    H266408   1.988   3.856   1.000  0.3160  0.6516  1.0585
14973TIP3   OH266409   1.818   4.813  16.958  0.3473  0.6026  0.0655
14973TIP3    H166410   1.817   4.740  16.896 -2.2726  0.9161 -0.3658
14973TIP3    H266411   1.910   4.824  16.980  1.0433 -1.4393 -1.4926
14974TIP3   OH266412   0.401   1.718   2.570 -0.0493  0.3850 -0.0497
14974TIP3    H166413   0.416   1.755   2.483  0.4338  0.3585  0.0195
14974TIP3    H266414   0.362   1.632   2.553  1.0439 -0.0902 -0.2803
14975TIP3   OH266415   2.620   1.937  16.561  0.3749 -0.0713 -0.2921
14975TIP3    H166416   2.547   1.999  16.558  0.3174 -0.1693 -2.2420
14975TIP3    H266417   2.693   1.985  16.520  0.8673 -0.6314 -0.0739
14976TIP3   OH266418   2.610   6.097  14.918 -0.2380  0.0745 -0.1563
14976TIP3    H166419   2.627   6.118  14.826 -1.3319  0.0455 -0.3794
14976TIP3    H266420   2.515   6.086  14.923 -0.4482  2.1283  1.4088
14977TIP3   OH266421   6.334   2.534   1.896  0.3276  0.0534  0.1521
14977TIP3    H166422   6.318   2.494   1.811 -1.1529  1.2893 -0.1933
14977TIP3    H266423   6.387   2.470   1.944 -0.6976 -1.6336 -0.8980
14978TIP3   OH266424   1.693   6.479  12.117  0.4585  0.4654 -0.1275
14978TIP3    H166425   1.609   6.506  12.154 -0.7572 -0.5234 -2.0337
14978TIP3    H266426   1.758   6.508  12.182 -1.1496  3.0585  0.4883
14979TIP3   OH266427   5.688   3.107   0.421  0.2251 -0.5815 -0.3168
14979TIP3    H166428   5.697   3.132   0.329 -1.3148 -0.6219 -0.4999
14979TIP3    H266429   5.777   3.111   0.455  0.7910 -0.3044 -1.7373
14980TIP3   OH266430   4.790   3.142  11.883 -0.0926  0.2568 -1.2671
14980TIP3    H166431   4.776   3.115  11.792  0.4495 -0.5242 -1.1274
14980TIP3    H266432   4.761   3.067  11.934 -0.0627  0.5588 -0.8065
14981TIP3   OH266433   6.442   6.557  12.196  0.0897  0.7562  0.2718
14981TIP3    H166434   6.360   6.605  12.210 -0.3047  0.4485 -0.9138
14981TIP3    H266435   6.463   6.521  12.282 -0.6264  1.4475  0.7556
14982TIP3   OH266436   6.198   4.676   5.134  0.2336 -0.6898  0.3168
14982TIP3    H166437   6.124   4.733   5.155  0.7136 -0.0175  0.2325
14982TIP3    H266438   6.231   4.711   5.051 -0.6156 -2.2601 -0.7210
14983TIP3   OH266439   2.989   4.014   2.711 -0.3895  0.4428  0.5200
14983TIP3    H166440   3.038   3.939   2.678 -0.6397 -0.5575  2.3262
14983TIP3    H266441   3.044   4.052   2.779 -1.2978  0.4248  1.2842
14984TIP3   OH266442   1.811   5.545  14.859  0.0903  0.2403  0.0892
14984TIP3    H166443   1.840   5.526  14.770 -0.6824  0.6581 -0.2641
14984TIP3    H266444   1.891   5.561  14.908  0.5276 -0.0786 -0.5107
14985TIP3   OH266445   0.860   4.499   0.491 -0.0116 -0.0211  0.0793
14985TIP3    H166446   0.815   4.555   0.554  0.0422 -1.0347  1.0415
14985TIP3    H266447   0.937   4.467   0.538 -0.9130 -2.2226  0.1455
14986TIP3   OH266448   1.906   3.436   1.885 -0.3405 -0.4040  0.1162
14986TIP3    H166449   1.883   3.483   1.804 -1.0615  0.2057  0.6574
14986TIP3    H266450   1.973   3.374   1.858  0.8391  1.1122 -0.5948
14987TIP3   OH266451   4.066   1.958   5.458  0.0447  0.1237 -0.1945
14987TIP3    H166452   4.071   2.030   5.395 -0.1339 -0.4224 -0.8528
14987TIP3    H266453   3.991   1.906   5.429 -0.0606 -0.1188  0.4952
14988TIP3   OH266454   3.844   2.831  15.248 -0.2109  0.4631  0.2616
14988TIP3    H166455   3.920   2.875  15.209  0.7782  0.5547  2.1615
14988TIP3    H266456   3.826   2.758  15.189  1.0460  0.7265 -0.4928
14989TIP3   OH266457   4.736   4.948  12.708 -0.7651  0.2523 -0.5904
14989TIP3    H166458   4.768   4.893  12.636  0.1421 -0.7564  0.5330
14989TIP3    H266459   4.803   4.939  12.776 -0.6943  2.6254 -0.2771
14990TIP3   OH266460   5.397   6.057   0.036  0.4324 -0.0741 -0.3887
14990TIP3    H166461   5.477   6.105   0.059  1.1969 -1.1482 -0.7360
14990TIP3    H266462   5.340   6.069   0.111  1.4970 -0.4981  0.5220
14991TIP3   OH266463   5.691   3.057   2.846 -0.4075  0.8554 -0.1390
14991TIP3    H166464   5.617   3.008   2.882 -0.9128  0.3895 -1.7147
14991TIP3    H266465   5.657   3.146   2.834 -1.0562  0.4317 -1.7141
14992TIP3   OH266466   5.218   2.308   5.610  0.3276  0.1340 -0.1228
14992TIP3    H166467   5.145   2.360   5.575 -0.3058 -0.3761  0.4017
14992TIP3    H266468   5.226   2.234   5.550  1.0205  0.6503 -0.6891
14993TIP3   OH266469   5.669   2.338  12.897  0.1774 -0.4295 -0.5814
14993TIP3    H166470   5.668   2.388  12.978  1.9670 -1.4833  0.1648
14993TIP3    H266471   5.649   2.402  12.829 -1.1916  0.5087  0.6568
14994TIP3   OH266472   6.076   5.319  17.183 -0.4694  0.0591 -0.0895
14994TIP3    H166473   6.027   5.387  17.136 -0.7417  0.1402  0.3074
14994TIP3    H266474   6.153   5.303  17.128  0.5270  1.9356  0.6656
14995TIP3   OH266475   6.167   0.302   5.518 -0.1527  0.5969  0.5269
14995TIP3    H166476   6.225   0.233   5.551  0.1174 -0.6650 -2.2978
14995TIP3    H266477   6.184   0.304   5.424 -4.9835 -0.2006 -0.6079
14996TIP3   OH266478   5.438   3.032  13.119 -0.4444 -0.4707  0.0233
14996TIP3    H166479   5.446   3.062  13.029  1.6065  0.4420  0.4601
14996TIP3    H266480   5.451   2.937  13.114  1.8436 -0.1843 -0.4493
14997TIP3   OH266481   5.605   5.494   3.733 -0.1607 -0.0999  0.2824
14997TIP3    H166482   5.607   5.442   3.653  0.0099  0.3295  0.0067
14997TIP3    H266483   5.520   5.475   3.772 -0.7753  0.6973 -0.6632
14998TIP3   OH266484   4.835   1.306  13.741 -0.0691 -0.6354  0.6474
14998TIP3    H166485   4.886   1.314  13.821 -1.5442 -0.0201  1.5708
14998TIP3    H266486   4.859   1.383  13.689 -0.0407 -0.3507  1.0787
14999TIP3   OH266487   2.871   5.181  13.307 -0.5579 -0.7858 -0.1056
14999TIP3    H166488   2.893   5.149  13.394 -1.6172 -1.4900 -0.0742
14999TIP3    H266489   2.879   5.276  13.313 -0.5944 -0.8297  0.7604
15000TIP3   OH266490   3.864   2.014  14.600  0.5172  0.2180 -0.1795
15000TIP3    H166491   3.864   1.919  14.585  0.0226  0.3535 -1.1145
15000TIP3    H266492   3.838   2.023  14.692 -2.9083 -0.5040 -0.9231
15001TIP3   OH266493   3.925   2.803  14.873 -0.5346 -0.1090 -0.7044
15001TIP3    H166494   3.857   2.834  14.813 -0.6727  1.2275  0.1021
15001TIP3    H266495   3.959   2.883  14.914 -0.3767 -0.9630  0.9163
15002TIP3   OH266496   5.415   0.061  12.821 -0.0647 -0.2658  0.3286
15002TIP3    H166497   5.407   0.014  12.904  0.3779 -0.5146  0.2385
15002TIP3    H266498   5.355   0.016  12.762 -1.3008  0.6790  0.8351
15003TIP3   OH266499   6.766   3.958   4.926  0.1057 -0.0138  0.3315
15003TIP3    H166500   6.708   4.021   4.970  0.1175 -0.3356  0.8211
15003TIP3    H266501   6.813   4.010   4.861  0.6741  0.6388  1.2459
15004TIP3   OH266502   2.025   3.650  13.853 -0.1773 -0.6485  0.1333
15004TIP3    H166503   2.043   3.603  13.934  0.3028 -0.4865  0.1201
15004TIP3    H266504   1.965   3.593  13.805 -0.5076 -0.7204  0.6217
15005TIP3   OH266505   5.895   0.535   5.359  0.4864  0.1259 -0.0793
15005TIP3    H166506   5.964   0.592   5.326 -1.4960  1.7350 -1.7771
15005TIP3    H266507   5.890   0.464   5.294  1.8306 -1.1578  1.1425
15006TIP3   OH266508   1.665   3.968   5.652  0.7304  0.2463  0.6755
15006TIP3    H166509   1.726   3.899   5.680  0.2626 -0.7982 -0.7506
15006TIP3    H266510   1.649   4.019   5.732  1.1959 -1.2135  1.7551
15007TIP3   OH266511   5.721   1.712   4.682 -0.8157 -0.0444  0.6301
15007TIP3    H166512   5.765   1.635   4.719 -0.4071  0.2948  0.8622
15007TIP3    H266513   5.639   1.678   4.646 -0.8263 -0.5205  1.0939
15008TIP3   OH266514   4.883   3.565   5.667 -0.6293 -0.0722  0.0633
15008TIP3    H166515   4.957   3.507   5.651 -0.7236 -0.1490 -0.0946
15008TIP3    H266516   4.922   3.648   5.695 -0.5172 -0.9056  2.6123
15009TIP3   OH266517   1.188   4.526  12.782  0.3470  0.2830 -0.2185
15009TIP3    H166518   1.193   4.489  12.870  0.5679 -0.2742 -0.4636
15009TIP3    H266519   1.094   4.531  12.764  0.3014  0.3879  0.0419
15010TIP3   OH266520   5.511   0.145   1.655 -0.5607 -0.2156  0.4593
15010TIP3    H166521   5.587   0.100   1.691  1.7886  3.4738  0.7078
15010TIP3    H266522   5.515   0.129   1.561  0.7156  0.0893  0.4480
15011TIP3   OH266523   0.357   3.372  15.753  0.8946  0.0205 -0.3682
15011TIP3    H166524   0.265   3.380  15.778  1.0183  0.9636 -0.1893
15011TIP3    H266525   0.379   3.280  15.770  0.3861  0.1317  0.9610
15012TIP3   OH266526   4.317   0.521   5.527  0.1943 -0.0131  0.4669
15012TIP3    H166527   4.292   0.439   5.484 -0.7363  0.2655  0.4493
15012TIP3    H266528   4.412   0.523   5.521  0.2989 -1.4929  1.2003
15013TIP3   OH266529   2.429   5.908  11.678  0.5239  0.2356 -0.4413
15013TIP3    H166530   2.339   5.934  11.698  0.2005 -2.4213  2.3461
15013TIP3    H266531   2.482   5.955  11.742  0.8039 -0.1734 -0.3682
15014TIP3   OH266532   1.685   3.430  15.070 -0.0577 -0.5819 -0.6936
15014TIP3    H166533   1.600   3.388  15.057  0.1705 -1.0083 -0.8251
15014TIP3    H266534   1.739   3.363  15.114 -0.2442  0.1991  0.7610
15015TIP3   OH266535   6.335   6.392   0.785  0.1675  0.2667 -0.2981
15015TIP3    H166536   6.325   6.487   0.775 -1.4047  0.1218 -0.3095
15015TIP3    H266537   6.324   6.358   0.696 -1.2529 -0.0603 -0.0152
15016TIP3   OH266538   1.313   3.057  11.792  0.2751  0.4856 -0.0047
15016TIP3    H166539   1.404   3.087  11.793  0.3483  0.3099  1.5389
15016TIP3    H266540   1.285   3.063  11.884  0.1366 -3.6272  0.4086
15017TIP3   OH266541   4.154   2.398   3.501 -0.1311 -0.0846 -0.0716
15017TIP3    H166542   4.242   2.425   3.528  0.3257 -1.7798  0.2565
15017TIP3    H266543   4.105   2.392   3.584 -1.0447  2.2763 -0.3554
15018TIP3   OH266544   4.955   1.967   4.933 -0.4924  0.3866 -0.2330
15018TIP3    H166545   4.942   1.877   4.963 -1.5245  0.7667  0.5336
15018TIP3    H266546   5.008   1.959   4.854  1.4966 -0.7304  1.1418
15019TIP3   OH266547   4.303   5.954  14.810 -0.1043 -0.0374 -0.1762
15019TIP3    H166548   4.271   5.910  14.731  0.3684  0.8475 -0.8691
15019TIP3    H266549   4.352   6.029  14.778 -1.4423  1.4075  1.0011
15020TIP3   OH266550   3.749   1.469   2.078  0.5350 -0.5814 -0.1292
15020TIP3    H166551   3.813   1.435   2.016  0.1901 -1.1097 -0.2005
15020TIP3    H266552   3.801   1.502   2.151  0.8745 -1.5110  0.0640
15021TIP3   OH266553   0.133   5.572  16.268  0.6053  0.2913 -0.2175
15021TIP3    H166554   0.086   5.567  16.184  1.1715  0.2398 -0.5345
15021TIP3    H266555   0.064   5.567  16.334  0.1194  0.7136 -0.6824
15022TIP3   OH266556   2.330   2.981   0.039 -0.0949  0.5933 -0.6382
15022TIP3    H166557   2.302   3.071   0.050 -4.0408 -0.3603 -1.3191
15022TIP3    H266558   2.315   2.940   0.125  1.3469  0.4813 -0.4221
15023TIP3   OH266559   0.915   5.209   1.642 -0.1712 -0.1888 -0.0031
15023TIP3    H166560   0.901   5.145   1.572  0.0363 -0.8406  0.5350
15023TIP3    H266561   0.829   5.246   1.659  0.0754  1.4600 -1.9687
15024TIP3   OH266562   3.519   1.817  15.387 -0.2177 -0.2628 -0.4005
15024TIP3    H166563   3.592   1.767  15.352  0.5123  0.5959 -0.1349
15024TIP3    H266564   3.491   1.767  15.464  1.0341  0.1233  0.3420
15025TIP3   OH266565   4.320   0.834  15.050 -0.3448 -0.1444 -0.1792
15025TIP3    H166566   4.384   0.899  15.080 -1.1202  0.6888 -0.2984
15025TIP3    H266567   4.367   0.783  14.983  0.6005 -0.4053  0.6472
15026TIP3   OH266568   4.748   2.466   3.649  0.2567 -0.3726 -0.0976
15026TIP3    H166569   4.839   2.464   3.679 -0.1100 -3.0047  1.1800
15026TIP3    H266570   4.701   2.511   3.719  0.7621  3.0456 -1.7762
15027TIP3   OH266571   5.955   5.595   4.614  0.1746  0.3639  0.2841
15027TIP3    H166572   5.910   5.625   4.535 -0.0664 -2.1107 -0.6243
15027TIP3    H266573   6.048   5.608   4.594  0.0909  0.2436 -0.1933
15028TIP3   OH266574   6.747   1.701   2.444  0.1608  0.3264 -0.2164
15028TIP3    H166575   6.665   1.725   2.487  0.2335 -0.9347  0.6679
15028TIP3    H266576   6.785   1.633   2.499  1.5660  0.5210 -0.8832
15029TIP3   OH266577   3.592   0.212   4.050 -0.4710  0.3197  0.2229
15029TIP3    H166578   3.642   0.138   4.014  0.0188  1.2518 -1.1028
15029TIP3    H266579   3.577   0.189   4.141  0.6014 -0.9330  0.1114
15030TIP3   OH266580   1.320   1.443   0.463  0.3346  0.6764 -0.3142
15030TIP3    H166581   1.260   1.503   0.418 -0.5732 -0.3240 -0.4836
15030TIP3    H266582   1.279   1.428   0.548  0.0878 -0.3620 -0.6023
15031TIP3   OH266583   1.779   3.178   2.259 -0.1567 -0.0762  0.7147
15031TIP3    H166584   1.800   3.263   2.297  0.4017 -0.7884  2.0748
15031TIP3    H266585   1.860   3.128   2.268  0.3995  0.0096 -2.4332
15032TIP3   OH266586   3.629   1.486  13.597 -0.2359  1.0869  0.2558
15032TIP3    H166587   3.577   1.499  13.676  0.8402 -0.0035  1.1925
15032TIP3    H266588   3.717   1.514  13.621  1.5920 -4.4250  1.5241
15033TIP3   OH266589   1.404   5.000   3.141  0.3663 -0.5398  0.5606
15033TIP3    H166590   1.453   5.063   3.194 -0.4547 -0.4700  1.2474
15033TIP3    H266591   1.325   5.047   3.115 -0.3027 -1.3000  1.1603
15034TIP3   OH266592   5.858   5.977   2.028 -0.1883  0.3700  0.2420
15034TIP3    H166593   5.900   5.896   1.999 -0.9920 -0.3729  1.0920
15034TIP3    H266594   5.821   5.956   2.114 -1.7281  1.1693 -0.1885
15035TIP3   OH266595   5.093   1.705  15.832 -0.2452  0.4679  0.2737
15035TIP3    H166596   5.169   1.745  15.790 -1.0402  0.4881 -1.2216
15035TIP3    H266597   5.129   1.657  15.906  1.1981  0.6221 -0.2963
15036TIP3   OH266598   3.476   6.430  14.329  0.2229  0.0712 -0.4592
15036TIP3    H166599   3.432   6.408  14.247 -0.6630  1.8311 -0.5206
15036TIP3    H266600   3.564   6.457  14.303  0.3137 -0.4496 -0.6991
15037TIP3   OH266601   5.779   2.988  12.369  0.3912  0.2626 -0.3395
15037TIP3    H166602   5.687   2.979  12.397  0.6131 -0.9435  0.0580
15037TIP3    H266603   5.773   3.003  12.274 -0.2060 -0.7573 -0.4890
15038TIP3   OH266604   0.440   0.522  13.143 -0.0791  0.0285  0.9849
15038TIP3    H166605   0.350   0.554  13.150 -0.2008 -0.0439 -0.0346
15038TIP3    H266606   0.446   0.488  13.054  1.0041  0.1702  0.9905
15039TIP3   OH266607   5.826   1.522  11.742  0.0424 -0.0435 -0.2464
15039TIP3    H166608   5.784   1.540  11.658  0.6189  2.4218 -0.0844
15039TIP3    H266609   5.919   1.540  11.727  0.2650 -0.3250  0.7216
15040TIP3   OH266610   5.217   5.302   2.037  1.1025 -0.6089  0.2804
15040TIP3    H166611   5.217   5.394   2.011 -0.4936 -0.1753  1.6040
15040TIP3    H266612   5.154   5.260   1.978 -0.8612 -0.0686  1.8699
15041TIP3   OH266613   4.757   0.314   0.998 -0.2067  0.2749 -0.0289
15041TIP3    H166614   4.835   0.370   1.006  0.5183 -0.5172 -1.1739
15041TIP3    H266615   4.683   0.373   1.015  0.6030  1.2156  0.3372
15042TIP3   OH266616   4.338   1.161  12.203  0.3504  0.0745  0.3591
15042TIP3    H166617   4.290   1.159  12.120 -0.9526  0.0079  1.0911
15042TIP3    H266618   4.325   1.250  12.236 -0.6299 -0.3930  1.3130
15043TIP3   OH266619   0.619   1.538  13.649 -0.0585  0.1092 -0.4002
15043TIP3    H166620   0.631   1.550  13.555 -0.0877 -1.2292 -0.5937
15043TIP3    H266621   0.687   1.592  13.689  1.4251 -1.0451 -1.2610
15044TIP3   OH266622   6.321   5.536   3.648  0.0971  0.3707 -0.2415
15044TIP3    H166623   6.305   5.455   3.696  0.3516  0.0750 -0.6455
15044TIP3    H266624   6.416   5.541   3.640  0.0463  0.2253 -1.0170
15045TIP3   OH266625   6.189   4.494  13.740 -0.1197  0.1642  0.2099
15045TIP3    H166626   6.259   4.444  13.698  0.3867  0.2956  0.8925
15045TIP3    H266627   6.221   4.512  13.828 -1.1800 -0.1398  0.6824
15046TIP3   OH266628   4.244   4.624   5.749 -0.3111 -0.5259 -0.4724
15046TIP3    H166629   4.183   4.580   5.808  1.5128 -2.1060  0.3255
15046TIP3    H266630   4.317   4.563   5.739  1.2907  1.3908 -1.1509
15047TIP3   OH266631   4.151   6.094  15.097 -0.1123  0.1400  0.2348
15047TIP3    H166632   4.241   6.085  15.067  0.6017  0.5196  2.1160
15047TIP3    H266633   4.098   6.056  15.027  1.4358  0.6346 -1.2666
15048TIP3   OH266634   3.976   2.083  17.011  0.2891 -0.2860 -0.5451
15048TIP3    H166635   3.983   1.999  16.965 -0.7214 -0.2403 -0.8144
15048TIP3    H266636   3.899   2.073  17.068  0.0100  0.5239 -0.7631
15049TIP3   OH266637   0.718   4.088  14.597  0.1918 -0.1354 -0.0379
15049TIP3    H166638   0.798   4.040  14.616 -1.0892 -1.7469  1.6396
15049TIP3    H266639   0.732   4.175  14.635  0.7961 -0.7110  1.0858
15050TIP3   OH266640   5.729   6.778   1.647  0.0544 -0.1349 -0.3941
15050TIP3    H166641   5.821   6.768   1.672  0.3761  1.3433 -0.8380
15050TIP3    H266642   5.733   6.814   1.558 -0.9568 -0.3854 -0.5446
15051TIP3   OH266643   4.568   4.780  12.117  0.0701 -0.2651  0.1649
15051TIP3    H166644   4.506   4.712  12.094  0.4909 -0.4238 -0.5162
15051TIP3    H266645   4.581   4.830  12.037  0.5556 -0.0177  0.3910
15052TIP3   OH266646   5.442   5.798   4.743  0.0320  0.4764 -0.6063
15052TIP3    H166647   5.498   5.873   4.725  0.4638  1.0211  2.5107
15052TIP3    H266648   5.501   5.723   4.745 -0.2102  0.1833 -2.4089
15053TIP3   OH266649   2.546   3.771  17.167 -0.1834  0.2646 -0.3082
15053TIP3    H166650   2.597   3.783  17.247 -0.7288 -0.3778  0.1482
15053TIP3    H266651   2.611   3.753  17.099  0.3552  1.7466 -0.2177
15054TIP3   OH266652   6.721   5.820   3.474  0.3419 -0.1519 -0.2704
15054TIP3    H166653   6.756   5.880   3.539 -0.6636 -0.2765  0.4106
15054TIP3    H266654   6.798   5.778   3.436  0.9612  0.2047  0.5595
15055TIP3   OH266655   2.222   1.709  12.531  0.0654 -0.2969 -0.0345
15055TIP3    H166656   2.268   1.733  12.612 -0.4959  1.2489 -0.1460
15055TIP3    H266657   2.248   1.618  12.515  1.2944 -0.1791  1.1155
15056TIP3   OH266658   6.628   6.193  11.307  0.2128  0.1664 -0.3031
15056TIP3    H166659   6.625   6.206  11.402 -3.2205 -1.6561 -0.0032
15056TIP3    H266660   6.572   6.261  11.271 -0.1495 -0.3906 -0.8128
15057TIP3   OH266661   3.013   5.290   3.523 -0.2916 -0.0916  0.4550
15057TIP3    H166662   2.949   5.221   3.510 -0.3994  0.0800  0.0780
15057TIP3    H266663   3.097   5.249   3.500 -0.3330 -0.1504  0.4077
15058TIP3   OH266664   3.866   5.262   3.142 -0.2118  0.6523  0.2423
15058TIP3    H166665   3.809   5.289   3.070  0.0264  0.7429  0.0867
15058TIP3    H266666   3.887   5.344   3.188 -0.2590  0.6115  0.3370
15059TIP3   OH266667   4.216   3.241   2.331 -0.0234 -0.0292  0.4265
15059TIP3    H166668   4.155   3.254   2.405  0.5016  0.2296  0.8252
15059TIP3    H266669   4.190   3.158   2.293 -1.8388  0.9248 -0.5780
15060TIP3   OH266670   5.876   5.784   3.061 -0.5408 -0.4145 -0.3923
15060TIP3    H166671   5.903   5.849   2.996 -0.7011  0.1472  0.0926
15060TIP3    H266672   5.899   5.824   3.145 -1.2076 -0.7179 -0.0574
15061TIP3   OH266673   1.638   2.101  11.807  0.1125  0.1515 -0.6373
15061TIP3    H166674   1.687   2.134  11.732  0.2521  1.9168  0.1728
15061TIP3    H266675   1.561   2.060  11.769  2.3691 -3.2178 -1.9939
15062TIP3   OH266676   0.050   5.566   5.697 -0.2188  0.3625  0.2814
15062TIP3    H166677  -0.026   5.584   5.641  1.1086  1.1127 -1.3803
15062TIP3    H266678   0.073   5.475   5.679  0.1076  0.5544 -0.2789
15063TIP3   OH266679   0.035   2.536  16.035  0.5246 -0.3262  0.3489
15063TIP3    H166680   0.127   2.537  16.060  0.3797  2.7340  1.2113
15063TIP3    H266681   0.035   2.560  15.942  0.6039 -0.3270  0.3491
15064TIP3   OH266682   6.432   5.259   2.986 -0.4143  0.2450  0.1677
15064TIP3    H166683   6.509   5.229   2.938 -1.0083  1.3227 -1.5428
15064TIP3    H266684   6.370   5.185   2.979 -0.2678  0.1531 -0.2077
15065TIP3   OH266685   2.380   3.862  16.191  0.3777 -0.1625  0.0108
15065TIP3    H166686   2.419   3.775  16.203  0.0995 -0.1492  1.1173
15065TIP3    H266687   2.393   3.906  16.275  2.5069  1.7154 -1.1866
15066TIP3   OH266688   0.588   2.444   0.265  0.6954  0.4531 -0.1417
15066TIP3    H166689   0.646   2.520   0.263 -0.2034  1.1608  0.1630
15066TIP3    H266690   0.526   2.463   0.335  1.5079 -1.3529  1.1653
15067TIP3   OH266691   4.455   1.626   3.949  0.1234 -0.1991  0.1118
15067TIP3    H166692   4.469   1.686   4.022 -0.0712  0.8102 -0.6698
15067TIP3    H266693   4.371   1.652   3.912  0.6904 -0.0351 -1.0960
15068TIP3   OH266694   6.238   2.438   1.671  0.1734  0.4667 -0.0640
15068TIP3    H166695   6.279   2.352   1.659 -0.5295  0.1663 -0.3774
15068TIP3    H266696   6.207   2.461   1.583  1.4458  1.6164 -0.2506
15069TIP3   OH266697   4.402   6.115   4.370 -0.4233 -0.1834  0.6013
15069TIP3    H166698   4.441   6.118   4.282 -0.6541  1.1254  0.5194
15069TIP3    H266699   4.469   6.154   4.427 -0.0207 -1.5883  1.1391
15070TIP3   OH266700   3.890   3.323  14.157  0.2760 -0.2043  0.0055
15070TIP3    H166701   3.797   3.337  14.141  0.3706 -1.2715 -1.7421
15070TIP3    H266702   3.893   3.247  14.216  0.0514 -0.3305 -0.1466
15071TIP3   OH266703   5.980   5.596   3.840  0.2521 -0.9037  0.3751
15071TIP3    H166704   5.907   5.656   3.824  0.6546 -0.6071 -0.4269
15071TIP3    H266705   6.000   5.559   3.754  2.4329  0.6472  0.1084
15072TIP3   OH266706   2.098   4.856  15.816  0.7671  0.2270  0.3699
15072TIP3    H166707   2.004   4.870  15.807  0.4204  0.6905  3.6354
15072TIP3    H266708   2.110   4.761  15.809 -0.2515 -0.0326  1.8587
15073TIP3   OH266709   0.436   2.665  16.500 -0.1372  0.2003 -0.2667
15073TIP3    H166710   0.366   2.600  16.506  0.4979 -0.4879 -0.1302
15073TIP3    H266711   0.469   2.657  16.411  0.3624 -0.1260 -0.0603
15074TIP3   OH266712   4.741   1.899   3.489  0.9271  0.2069  0.2547
15074TIP3    H166713   4.824   1.882   3.445  1.1554 -0.1078  0.7934
15074TIP3    H266714   4.682   1.928   3.419  1.5561  0.6720 -0.0926
15075TIP3   OH266715   5.386   0.719  11.350 -0.5026 -0.0043  0.4765
15075TIP3    H166716   5.471   0.759  11.331 -0.4086 -0.0821  0.7380
15075TIP3    H266717   5.393   0.630  11.315 -1.4777  0.8620 -2.1536
15076TIP3   OH266718   2.802   1.108  13.009  0.0035  0.6054  0.4912
15076TIP3    H166719   2.780   1.156  13.089 -0.7835 -0.2272  0.7886
15076TIP3    H266720   2.786   1.016  13.030  1.0285  0.2464 -0.2245
15077TIP3   OH266721   1.812   1.151   3.857 -0.2753 -0.2957 -0.0115
15077TIP3    H166722   1.823   1.070   3.906 -3.0040 -0.5559  0.3545
15077TIP3    H266723   1.851   1.133   3.771  0.1265 -1.6052  0.4283
15078TIP3   OH266724   4.338   4.859  15.222  0.2811 -0.4812 -0.1687
15078TIP3    H166725   4.336   4.786  15.283  0.4347 -0.1309  0.2544
15078TIP3    H266726   4.251   4.899  15.231  0.7557  0.3586  0.7822
15079TIP3   OH266727   5.749   0.633  12.456 -0.5531 -0.5842 -0.0745
15079TIP3    H166728   5.802   0.675  12.388  1.0727 -1.8271  0.3618
15079TIP3    H266729   5.755   0.539  12.436 -1.8781 -0.8131  0.5227
15080TIP3   OH266730   1.023   4.258   5.471 -0.3057  0.6787 -0.3244
15080TIP3    H166731   0.983   4.176   5.498  0.6275  0.2568 -0.1767
15080TIP3    H266732   0.949   4.315   5.450 -1.1883  1.2491  3.5963
15081TIP3   OH266733   1.241   0.847  13.119 -0.2081 -0.0255  0.0898
15081TIP3    H166734   1.170   0.792  13.151  1.2675 -2.3079 -0.3390
15081TIP3    H266735   1.226   0.854  13.024  0.3310 -0.9120 -0.0808
15082TIP3   OH266736   5.558   2.239  12.591  0.2812 -0.4243 -0.2200
15082TIP3    H166737   5.575   2.303  12.522 -0.8117 -0.8403 -0.9051
15082TIP3    H266738   5.479   2.271  12.634  1.4960  0.3687  1.5324
15083TIP3   OH266739   2.845   2.787   0.421  0.2816  0.7394  0.4215
15083TIP3    H166740   2.919   2.811   0.476 -0.0462  0.5112  0.9673
15083TIP3    H266741   2.789   2.733   0.477  0.3175 -0.1374 -0.3633
15084TIP3   OH266742   2.259   1.971  15.957  0.0706  0.8389  0.5112
15084TIP3    H166743   2.209   1.976  15.876  0.6807  0.2870  0.0876
15084TIP3    H266744   2.213   2.029  16.017 -0.8444  0.6457  0.0169
15085TIP3   OH266745   0.454   5.666   0.571 -0.0707  0.6429  0.2485
15085TIP3    H166746   0.359   5.667   0.576 -0.1458  0.0414 -0.8233
15085TIP3    H266747   0.479   5.582   0.611  0.0214  0.8127  0.5548
15086TIP3   OH266748   4.831   2.224  13.415  0.5167  0.7187  0.3639
15086TIP3    H166749   4.783   2.186  13.341 -0.8024  1.6614  0.7013
15086TIP3    H266750   4.763   2.259  13.472  1.6087  1.7788  1.0561
15087TIP3   OH266751   5.912   2.044   3.172 -0.0395  0.3142 -0.0728
15087TIP3    H166752   5.863   2.081   3.098  0.1857 -1.0303 -0.9192
15087TIP3    H266753   5.917   2.116   3.236  0.8039  1.9159 -1.8386
15088TIP3   OH266754   0.686   5.715   6.794  0.1781 -0.3308  0.3433
15088TIP3    H166755   0.731   5.636   6.823  1.1088  0.5103  1.2354
15088TIP3    H266756   0.750   5.760   6.738 -0.3710 -0.2249 -0.2171
15089TIP3   OH266757   4.810   0.978   3.317 -0.1710 -0.4511 -0.0469
15089TIP3    H166758   4.749   0.906   3.333 -1.2292  0.3857 -0.2246
15089TIP3    H266759   4.759   1.057   3.334  1.0659  0.2651  0.4751
15090TIP3   OH266760   4.723   5.522  12.332 -0.0591 -0.0974  0.1608
15090TIP3    H166761   4.787   5.570  12.383 -0.5066  0.6585  0.0301
15090TIP3    H266762   4.649   5.583  12.322 -0.3981 -0.5981 -0.5052
15091TIP3   OH266763   0.936   5.782  11.311  0.5095  0.3140  0.6644
15091TIP3    H166764   1.019   5.829  11.309  0.2489  0.7907  0.7409
15091TIP3    H266765   0.870   5.851  11.324  0.0603  0.0001  0.1052
15092TIP3   OH266766   5.849   5.131  12.757 -0.0446  0.4483  0.0337
15092TIP3    H166767   5.838   5.212  12.708  0.0057  0.0497 -0.6467
15092TIP3    H266768   5.915   5.082  12.708 -0.1512 -0.0521  0.3800
15093TIP3   OH266769   2.535   3.645  16.550  0.3160 -0.5984 -0.5999
15093TIP3    H166770   2.587   3.724  16.534  0.9174 -1.3530 -2.5723
15093TIP3    H266771   2.534   3.637  16.646  2.4282  0.3707 -0.4302
15094TIP3   OH266772   3.141   6.561  11.982  0.3358 -0.0788  0.2465
15094TIP3    H166773   3.163   6.559  11.889  0.9055  1.1216  0.3399
15094TIP3    H266774   3.137   6.654  12.004  1.1297 -0.3399  1.6334
15095TIP3   OH266775   4.274   6.581  13.524 -0.6377  0.0617 -0.4119
15095TIP3    H166776   4.269   6.490  13.552  0.6094  0.3744  0.9665
15095TIP3    H266777   4.204   6.625  13.572  0.6424  0.3410  1.3044
15096TIP3   OH266778   0.214   4.315  13.710  0.4239 -0.6102 -0.1205
15096TIP3    H166779   0.290   4.331  13.766 -0.4651 -0.5892  1.1176
15096TIP3    H266780   0.228   4.372  13.633  2.0502 -1.2403 -0.3215
15097TIP3   OH266781   2.912   1.028  16.377 -0.0932  0.2696  0.0408
15097TIP3    H166782   2.843   1.089  16.353 -0.7471 -1.4051 -2.8845
15097TIP3    H266783   2.988   1.056  16.326 -0.2140 -0.8954 -0.8323
15098TIP3   OH266784   1.959   3.861  12.660 -0.1545  0.2327  0.1095
15098TIP3    H166785   1.977   3.872  12.753  0.3552  1.1004 -0.0749
15098TIP3    H266786   2.024   3.917  12.616 -1.7343  1.5496 -0.6768
15099TIP3   OH266787   1.937   5.114   5.746 -0.4105 -0.1620  0.4252
15099TIP3    H166788   1.918   5.021   5.742 -0.2613 -0.2483  1.6291
15099TIP3    H266789   1.861   5.153   5.789 -0.1647  0.1750  0.5632
15100TIP3   OH266790   4.145   5.387   5.807 -0.1856  0.7055  0.3689
15100TIP3    H166791   4.052   5.408   5.799 -1.8047 -3.8525  3.0455
15100TIP3    H266792   4.181   5.456   5.862 -1.8850  2.6608 -0.8506
15101TIP3   OH266793   5.038   4.506  11.438 -0.2459  0.9107 -0.5784
15101TIP3    H166794   5.129   4.533  11.426  0.3487 -1.5508 -2.3448
15101TIP3    H266795   4.988   4.567  11.383  0.0926  2.9878  1.2430
15102TIP3   OH266796   6.294   5.973  15.603  0.4272  0.7147 -0.1176
15102TIP3    H166797   6.379   5.953  15.642  0.5175  1.2080 -0.0593
15102TIP3    H266798   6.310   6.050  15.548 -0.4141  2.1219  1.5188
15103TIP3   OH266799   6.262   2.444   4.284 -0.2596 -0.1848  0.3474
15103TIP3    H166800   6.302   2.422   4.368 -0.5006 -1.0054  0.2565
15103TIP3    H266801   6.313   2.395   4.220 -0.6432 -0.2665  0.1060
15104TIP3   OH266802   1.245   2.425   1.767 -0.2879  0.3800 -0.1872
15104TIP3    H166803   1.341   2.432   1.770 -0.1343 -1.2199 -0.1640
15104TIP3    H266804   1.217   2.456   1.853  0.3281 -0.3376  0.2882
15105TIP3   OH266805   3.315   1.772  15.058  0.2397 -0.3058  0.6568
15105TIP3    H166806   3.248   1.741  14.997 -0.0476 -0.5361  1.0853
15105TIP3    H266807   3.269   1.833  15.115  0.7639  0.8120 -0.0726
15106TIP3   OH266808   6.672   1.116   6.246 -0.0901 -0.0779  0.4397
15106TIP3    H166809   6.701   1.039   6.296 -0.2908  0.1877  0.9649
15106TIP3    H266810   6.682   1.189   6.306  2.4944  0.7397 -0.7928
15107TIP3   OH266811   1.654   1.486  16.865  0.1151  0.3872  0.2512
15107TIP3    H166812   1.602   1.407  16.845  0.0957  1.1139 -3.2491
15107TIP3    H266813   1.744   1.455  16.869 -0.1538 -0.2750  2.4395
15108TIP3   OH266814   6.620   4.747   4.910 -1.0083  0.1603  0.4987
15108TIP3    H166815   6.610   4.771   5.003 -2.4828  1.6669  0.0048
15108TIP3    H266816   6.658   4.825   4.870  1.8125 -1.2702  0.1636
15109TIP3   OH266817   6.119   5.179  14.975  0.0133  0.1334 -0.2220
15109TIP3    H166818   6.085   5.105  15.024  2.0148 -1.2646 -0.8424
15109TIP3    H266819   6.165   5.233  15.039  1.1168 -0.7616 -0.2469
15110TIP3   OH266820   6.259   1.847   6.019  0.3304 -0.0110  0.0105
15110TIP3    H166821   6.256   1.775   5.956 -0.6388  0.6277 -0.6995
15110TIP3    H266822   6.341   1.833   6.067 -1.0165 -3.1344  1.7713
15111TIP3   OH266823   0.427   1.229  16.344 -0.3382  0.3710  0.3595
15111TIP3    H166824   0.351   1.218  16.287 -0.5893  1.8015  0.3694
15111TIP3    H266825   0.404   1.303  16.400 -0.4162 -1.4468  2.8898
15112TIP3   OH266826   1.010   6.663  11.046 -0.8589 -0.1876 -0.1623
15112TIP3    H166827   0.990   6.675  10.953  1.5932  1.5463 -0.5559
15112TIP3    H266828   1.099   6.696  11.056 -0.5360 -1.6263  2.5701
15113TIP3   OH266829   1.772   5.412  13.309  0.5465 -0.0749  0.1782
15113TIP3    H166830   1.752   5.414  13.215 -0.2202 -1.8390  0.2575
15113TIP3    H266831   1.691   5.441  13.351  0.6339 -0.0191  0.3086
15114TIP3   OH266832   5.396   3.362  12.375 -0.2558  0.2407 -0.2743
15114TIP3    H166833   5.420   3.452  12.394  0.6679  0.2796 -1.4656
15114TIP3    H266834   5.386   3.360  12.279 -1.8831 -0.5518 -0.1248
15115TIP3   OH266835   4.012   2.738  11.886 -0.4025  0.2834  0.4224
15115TIP3    H166836   3.926   2.753  11.927 -0.0011 -1.4643  2.0429
15115TIP3    H266837   4.037   2.650  11.914  2.2243  0.9845  0.5471
15116TIP3   OH266838   0.766   4.700  16.255 -0.3274  0.6986  0.0660
15116TIP3    H166839   0.735   4.759  16.186  2.1815  0.0214 -1.8178
15116TIP3    H266840   0.745   4.613  16.223 -0.1828  0.4079  0.7532
15117TIP3   OH266841   1.540   3.211  11.771  0.1418  0.2922 -0.1505
15117TIP3    H166842   1.540   3.304  11.794 -1.3049  0.7063 -1.6283
15117TIP3    H266843   1.566   3.209  11.679  0.6410 -0.8332 -0.0067
15118TIP3   OH266844   2.304   5.830   5.163 -0.0016 -0.1612  0.4674
15118TIP3    H166845   2.330   5.749   5.208  1.4033  1.5368  2.9414
15118TIP3    H266846   2.348   5.825   5.078 -0.8497 -2.4446  0.0931
15119TIP3   OH266847   6.554   1.294   1.571 -0.0185  0.1702  0.1085
15119TIP3    H166848   6.631   1.275   1.624  1.4748  2.3370 -1.1312
15119TIP3    H266849   6.572   1.252   1.486 -0.3041  0.4948 -0.1151
15120TIP3   OH266850   1.781   2.579  15.354 -0.1139 -0.5003 -0.3978
15120TIP3    H166851   1.733   2.537  15.425  1.1148 -0.2934  0.5829
15120TIP3    H266852   1.773   2.673  15.372  1.3633 -0.4827  0.2813
15121TIP3   OH266853   1.424   4.386   0.758 -0.0253 -0.6950 -0.0430
15121TIP3    H166854   1.414   4.358   0.849  1.0559  0.1280  0.3454
15121TIP3    H266855   1.404   4.307   0.707 -2.2536 -0.7757  0.8069
15122TIP3   OH266856   0.986   4.180  12.183 -0.3468 -0.3051 -0.0200
15122TIP3    H166857   0.964   4.250  12.122 -0.9533  0.1779  0.7210
15122TIP3    H266858   0.970   4.219  12.270 -2.4605 -1.9088  0.3758
15123TIP3   OH266859   3.522   4.592  16.871 -0.5691  0.1055  0.2732
15123TIP3    H166860   3.471   4.635  16.803  0.9533  0.5689 -0.6306
15123TIP3    H266861   3.515   4.499  16.850 -1.0449  0.1579  0.1806
15124TIP3   OH266862   2.294   0.388  11.484 -0.3524 -0.0127 -0.2836
15124TIP3    H166863   2.263   0.405  11.395  0.8248  0.1863 -0.6591
15124TIP3    H266864   2.372   0.334  11.473 -0.7751 -0.8762  0.6776
15125TIP3   OH266865   5.765   4.425   5.405  0.4728  0.2995 -0.4553
15125TIP3    H166866   5.792   4.350   5.457  0.6016 -0.9424 -2.2417
15125TIP3    H266867   5.731   4.488   5.469  0.9926 -0.9844  1.1360
15126TIP3   OH266868   3.544   6.027  11.953 -0.2470 -0.1999 -0.0190
15126TIP3    H166869   3.539   6.018  12.048 -2.6869  0.3934 -0.0300
15126TIP3    H266870   3.485   6.099  11.932  0.8408  0.2008 -1.9423
15127TIP3   OH266871   3.564   5.806  12.609  0.4743  0.0162 -0.9690
15127TIP3    H166872   3.598   5.771  12.527  0.2293  3.0349 -2.4905
15127TIP3    H266873   3.557   5.900  12.594 -1.8770  0.3995  1.7197
15128TIP3   OH266874   1.470   1.511   2.900  0.2252 -0.0244  0.1643
15128TIP3    H166875   1.503   1.573   2.834  1.1591  0.3912  0.9873
15128TIP3    H266876   1.406   1.562   2.950  0.5678  0.1121  0.4722
15129TIP3   OH266877   6.525   3.781   4.819 -0.0160  0.5999  0.3128
15129TIP3    H166878   6.566   3.864   4.794 -0.2333  0.7821  0.5624
15129TIP3    H266879   6.489   3.797   4.906 -0.7713  0.4937  0.0222
15130TIP3   OH266880   0.644   6.332   2.004 -0.4772  0.0301 -0.1461
15130TIP3    H166881   0.556   6.334   2.042 -0.3623 -0.4612  0.1677
15130TIP3    H266882   0.630   6.320   1.910 -0.7430 -0.8891 -0.0056
15131TIP3   OH266883   2.358   0.717  16.062 -0.4717 -0.2188  0.5862
15131TIP3    H166884   2.447   0.719  16.096  0.2775 -2.4014 -1.0398
15131TIP3    H266885   2.360   0.773  15.985  0.0744 -1.8040 -0.5959
15132TIP3   OH266886   2.959   2.092   4.572  0.4115 -0.1700 -0.3995
15132TIP3    H166887   2.865   2.084   4.556  0.3528  0.8985 -0.6664
15132TIP3    H266888   2.997   2.015   4.530 -0.5019 -1.7500  1.4706
15133TIP3   OH266889   4.457   2.521   5.519 -0.0346 -0.5622  0.4320
15133TIP3    H166890   4.488   2.493   5.433  0.9043  1.4398  0.0714
15133TIP3    H266891   4.454   2.616   5.514 -1.1839 -0.4604  2.2282
15134TIP3   OH266892   2.294   5.102  13.495  0.3366 -0.3198 -1.3342
15134TIP3    H166893   2.199   5.099  13.492  0.2521 -0.1997  0.3416
15134TIP3    H266894   2.319   5.020  13.538  0.7211  1.2294  1.6790
15135TIP3   OH266895   2.523   6.707   3.426 -0.3447  0.2878  0.4569
15135TIP3    H166896   2.487   6.638   3.482 -1.2314  1.2277  1.0942
15135TIP3    H266897   2.537   6.665   3.341 -0.6534 -0.7236  0.8964
15136TIP3   OH266898   2.410   5.175  15.492  0.1171 -0.1463  0.1335
15136TIP3    H166899   2.344   5.227  15.538  0.2274  0.7752 -0.7156
15136TIP3    H266900   2.361   5.104  15.451 -0.2626  0.1833  0.0161
15137TIP3   OH266901   3.389   0.259   5.195 -0.3909 -0.0925  0.2946
15137TIP3    H166902   3.467   0.298   5.155 -1.7194  3.0831  0.5146
15137TIP3    H266903   3.417   0.237   5.284 -0.0764  2.7809  1.0324
15138TIP3   OH266904   2.331   0.410  17.076 -0.0003 -0.3795 -0.5714
15138TIP3    H166905   2.373   0.478  17.127 -1.4391  0.2663 -0.1933
15138TIP3    H266906   2.256   0.453  17.034  0.0635 -1.3242 -1.7372
15139TIP3   OH266907   2.005   4.234   4.391  0.5226  0.1288 -0.5072
15139TIP3    H166908   2.022   4.294   4.464  1.1805 -1.0333  0.3258
15139TIP3    H266909   1.916   4.202   4.406  0.6802 -0.1594 -0.1627
15140TIP3   OH266910   3.774   3.944   4.510  0.6091  0.7414 -0.5322
15140TIP3    H166911   3.762   3.958   4.604 -0.4307 -1.3263 -0.2890
15140TIP3    H266912   3.867   3.959   4.495  0.5191  2.6456  0.5038
15141TIP3   OH266913   5.383   4.456  15.660 -0.1482  0.4460 -0.4244
15141TIP3    H166914   5.365   4.495  15.575 -1.5692 -0.4370 -0.5600
15141TIP3    H266915   5.439   4.381  15.641  0.0210  0.5908 -0.5021
15142TIP3   OH266916   1.948   5.248   4.084 -0.0386 -0.3723  0.3272
15142TIP3    H166917   1.883   5.315   4.106 -1.2531 -1.7875  1.2821
15142TIP3    H266918   1.901   5.188   4.026  0.2219 -1.7475  1.5061
15143TIP3   OH266919   4.016   3.872   4.792 -0.3378 -0.2206 -0.2581
15143TIP3    H166920   4.051   3.820   4.865 -2.6010 -1.6953 -0.1066
15143TIP3    H266921   4.038   3.822   4.714 -0.2699 -0.0303 -0.3631
15144TIP3   OH266922   0.938   0.874   0.663  0.2412  0.3459 -0.0718
15144TIP3    H166923   0.876   0.944   0.684 -0.5956 -0.5640  0.6488
15144TIP3    H266924   0.883   0.802   0.632  0.9778 -0.3367  0.1666
15145TIP3   OH266925   4.186   0.448   1.932  0.0951  0.2788 -0.1241
15145TIP3    H166926   4.210   0.403   1.851 -0.1803 -0.1159  0.0091
15145TIP3    H266927   4.249   0.519   1.940 -2.0990  2.7579 -2.7024
15146TIP3   OH266928   4.962   1.238   0.349  0.1810  0.0754  0.2376
15146TIP3    H166929   4.898   1.168   0.366  0.0554  0.1651  0.1368
15146TIP3    H266930   4.949   1.299   0.422  0.6839 -0.2842  0.6387
15147TIP3   OH266931   6.783   5.557  15.379  0.1502  0.3427 -0.0588
15147TIP3    H166932   6.807   5.479  15.328  0.7603  0.0921  0.5997
15147TIP3    H266933   6.851   5.564  15.446 -1.1074  0.1641  1.2727
15148TIP3   OH266934   1.179   6.059   4.638  0.1563  0.4062  0.1519
15148TIP3    H166935   1.162   5.999   4.711 -0.6803  0.4549  0.0045
15148TIP3    H266936   1.092   6.087   4.609  0.5369  3.0465  1.3189
15149TIP3   OH266937   3.403   3.184   0.286  0.3198  0.9293  0.2253
15149TIP3    H166938   3.431   3.108   0.235 -0.4896 -0.1309  1.3066
15149TIP3    H266939   3.318   3.208   0.248  0.1124  0.6698  0.5236
15150TIP3   OH266940   2.067   4.867  13.769  0.1445  0.1076 -0.3706
15150TIP3    H166941   2.150   4.839  13.731  0.4955  0.8888 -0.1848
15150TIP3    H266942   2.012   4.788  13.765  1.9414 -1.4908  2.6328
15151TIP3   OH266943   6.404   5.222  12.584 -0.6664 -0.9160 -0.2251
15151TIP3    H166944   6.391   5.210  12.678  0.4244  1.2611  0.2743
15151TIP3    H266945   6.486   5.176  12.566  0.1674  0.2647  0.3547
15152TIP3   OH266946   1.530   3.337   3.854  0.4068 -0.4841 -0.3964
15152TIP3    H166947   1.563   3.367   3.938  0.8014 -1.2716 -0.2562
15152TIP3    H266948   1.605   3.295   3.813  0.4267  0.5439 -1.4710
15153TIP3   OH266949   2.648   4.325  10.507  0.0963 -0.1902  0.0308
15153TIP3    H166950   2.720   4.388  10.507  0.6810 -0.8487 -0.2413
15153TIP3    H266951   2.571   4.378  10.527  0.2907  0.9460 -1.9168
15154TIP3   OH266952   0.285   4.275   2.220 -0.4678 -0.0364  0.2226
15154TIP3    H166953   0.331   4.322   2.150  0.9257 -2.6866 -0.8022
15154TIP3    H266954   0.199   4.254   2.182 -0.0778 -0.6166 -0.3738
15155TIP3   OH266955   2.941   5.503   4.388  1.2134  0.5713 -0.3258
15155TIP3    H166956   3.001   5.431   4.367  0.0108 -0.4951 -0.2108
15155TIP3    H266957   2.868   5.461   4.433 -0.0043  1.7115 -1.1539
15156TIP3   OH266958   6.633   0.423  15.102  0.2397 -0.5624 -0.0639
15156TIP3    H166959   6.640   0.506  15.150  0.1318 -0.0647 -0.8793
15156TIP3    H266960   6.714   0.419  15.051  0.8224 -1.5784  0.8897
15157TIP3   OH266961   3.806   0.680  14.886  0.7715  0.1026  0.1854
15157TIP3    H166962   3.896   0.652  14.870  0.7830 -1.0152  1.9315
15157TIP3    H266963   3.753   0.623  14.831  1.0411 -0.5889  0.6278
15158TIP3   OH266964   4.755   1.296  11.592  0.3867 -0.1513  0.1900
15158TIP3    H166965   4.719   1.291  11.680 -0.6815  1.4805 -0.1122
15158TIP3    H266966   4.790   1.209  11.575  3.7707  0.3144  3.5022
15159TIP3   OH266967   0.572   2.164  12.202 -0.1119  0.2688  0.7462
15159TIP3    H166968   0.556   2.255  12.229 -0.4965  0.2585  0.5504
15159TIP3    H266969   0.487   2.121  12.210 -0.0492  0.0614  0.3071
15160TIP3   OH266970   3.452   3.883   0.711 -0.5266  0.9228  0.1901
15160TIP3    H166971   3.502   3.834   0.646  0.8608  2.2314  0.2215
15160TIP3    H266972   3.419   3.960   0.664 -0.7621  1.1234  0.6674
15161TIP3   OH266973   4.001   1.128  13.073 -0.4916  0.1883 -0.0147
15161TIP3    H166974   4.029   1.103  13.161  1.9707 -0.0632 -0.8130
15161TIP3    H266975   4.006   1.047  13.022 -0.2666  0.6654 -0.7723
15162TIP3   OH266976   4.037   2.586   1.539 -0.2968 -0.3848 -0.0255
15162TIP3    H166977   4.043   2.663   1.595 -0.3929  0.1760 -0.7711
15162TIP3    H266978   4.119   2.585   1.489  0.8476 -2.2007  1.7503
15163TIP3   OH266979   5.104   3.556  12.790  0.0310 -0.5132 -0.0324
15163TIP3    H166980   5.046   3.480  12.778 -0.9573  0.0114  1.1618
15163TIP3    H266981   5.077   3.593  12.874  0.7129  0.9778 -0.4426
15164TIP3   OH266982   5.693   4.179  17.399  0.3631  0.0276 -0.2698
15164TIP3    H166983   5.689   4.207  17.490  2.6870  1.9089 -0.6253
15164TIP3    H266984   5.652   4.251  17.351  1.5116  0.3148 -0.8537
15165TIP3   OH266985   4.099   0.856   3.601  0.0133  0.6041  0.0535
15165TIP3    H166986   4.087   0.855   3.506  1.6958 -0.4139 -0.1995
15165TIP3    H266987   4.114   0.949   3.622 -1.4356  0.9867 -0.4826
15166TIP3   OH266988   0.570   6.483  15.679  0.1739  0.0121  0.1940
15166TIP3    H166989   0.628   6.488  15.754 -0.0268 -0.1772  0.3632
15166TIP3    H266990   0.577   6.392  15.649  0.7283  0.2427 -0.3983
15167TIP3   OH266991   5.684   4.701  13.210  0.3905  0.6482  0.1991
15167TIP3    H166992   5.690   4.795  13.194 -0.2138  0.5523 -0.6457
15167TIP3    H266993   5.619   4.692  13.279  1.8957  0.9644  1.7312
15168TIP3   OH266994   2.738   4.948  13.214 -0.5712  0.0018  0.6680
15168TIP3    H166995   2.723   4.958  13.120  1.0418  1.3686  0.5044
15168TIP3    H266996   2.746   5.037  13.247  1.0389 -0.4740  1.7038
15169TIP3   OH266997   4.483   2.964  12.365 -0.1377  0.5204 -0.1982
15169TIP3    H166998   4.522   2.918  12.291 -1.0011  1.2023 -1.1126
15169TIP3    H266999   4.490   2.903  12.438  1.2883  0.0666 -0.6830
15170TIP3   OH267000   0.209   2.932   4.496  0.4827 -0.2745 -0.0708
15170TIP3    H167001   0.116   2.931   4.470  0.6313  2.1268 -0.9817
15170TIP3    H267002   0.253   2.885   4.426  0.1115  0.1248 -0.5885
15171TIP3   OH267003   0.424   2.324  15.263 -0.1162  0.1213 -0.2190
15171TIP3    H167004   0.496   2.317  15.327 -0.8840 -0.5189  0.6004
15171TIP3    H267005   0.372   2.246  15.277 -1.1920  0.7596 -0.5488
15172TIP3   OH267006   5.775   4.849  16.456 -0.0276 -0.3762 -0.1152
15172TIP3    H167007   5.808   4.793  16.385  0.5182 -0.7970  0.4652
15172TIP3    H267008   5.718   4.912  16.411  0.6361 -0.3680 -0.9885
15173TIP3   OH267009   5.654   5.353  12.973  0.5640 -0.4311 -0.9930
15173TIP3    H167010   5.576   5.405  12.992  0.5649 -1.3117  1.7310
15173TIP3    H267011   5.623   5.286  12.912 -0.3798  0.2768 -1.3242
15174TIP3   OH267012   0.902   4.233   2.011 -0.1399  0.1768 -0.2744
15174TIP3    H167013   0.946   4.302   2.061  0.9506  0.4912 -1.5865
15174TIP3    H267014   0.944   4.152   2.040  0.6498  0.3783 -0.8085
15175TIP3   OH267015   3.500   4.521  15.014 -0.3987 -0.2926  0.0960
15175TIP3    H167016   3.554   4.587  15.056 -0.2608 -1.3258  1.6196
15175TIP3    H267017   3.540   4.438  15.040 -1.8662 -1.0382  0.0459
15176TIP3   OH267018   1.074   4.559   6.552 -0.3903  0.2555 -0.1179
15176TIP3    H167019   1.005   4.603   6.502 -1.1273 -1.2722 -0.5105
15176TIP3    H267020   1.116   4.500   6.488 -0.0091 -0.2446  0.5821
15177TIP3   OH267021   2.552   2.917  15.005  0.1901  0.2255  0.2070
15177TIP3    H167022   2.628   2.869  15.037  0.1670 -0.6032 -0.9346
15177TIP3    H267023   2.588   2.992  14.959  0.2545  0.7245  1.0451
15178TIP3   OH267024   6.086   1.683   0.670  0.4733  0.4178 -0.0369
15178TIP3    H167025   6.181   1.669   0.670  0.4445  0.1729 -0.5347
15178TIP3    H267026   6.074   1.758   0.612  0.4297  1.0194  0.7328
15179TIP3   OH267027   1.169   4.338  15.094  0.0962 -0.1115 -0.1040
15179TIP3    H167028   1.235   4.294  15.147 -0.2611  0.3871  0.7895
15179TIP3    H267029   1.117   4.267  15.056  0.7093 -0.4884 -0.2399
15180TIP3   OH267030   0.968   1.544   4.312 -0.2843  0.5200  0.0779
15180TIP3    H167031   0.927   1.622   4.274 -0.0430  0.6772  0.1387
15180TIP3    H267032   1.028   1.578   4.378 -1.3241  0.2116  1.2116
15181TIP3   OH267033   1.941   2.111  12.663  0.6552 -0.7552 -0.3273
15181TIP3    H167034   2.010   2.119  12.596  0.2473 -2.3829 -0.9879
15181TIP3    H267035   1.881   2.045  12.628 -0.7944 -0.0061  0.6401
15182TIP3   OH267036   1.861   2.408   4.225 -0.0007 -0.1162 -0.8859
15182TIP3    H167037   1.922   2.343   4.191  0.7893  1.6835 -3.1112
15182TIP3    H267038   1.776   2.383   4.188 -0.3208 -1.4923  0.6468
15183TIP3   OH267039   0.440   1.722   4.208  0.3533  0.0085 -0.3513
15183TIP3    H167040   0.503   1.722   4.136 -0.9940  0.0828 -1.5817
15183TIP3    H267041   0.463   1.799   4.261  1.4904 -0.1686 -0.5810
15184TIP3   OH267042   4.622   1.351  13.946  0.2939 -0.1547  0.2504
15184TIP3    H167043   4.566   1.421  13.912  0.9939  0.1385 -0.3317
15184TIP3    H267044   4.708   1.391  13.953  0.6440 -0.8844  0.1757
15185TIP3   OH267045   5.434   2.007  16.921 -0.1636  0.2000 -0.3498
15185TIP3    H167046   5.394   2.019  17.008 -1.7558  0.2359 -1.0456
15185TIP3    H267047   5.436   2.094  16.883  0.2432  0.1380 -0.4747
15186TIP3   OH267048   4.282   5.067  16.603  0.0334 -0.2205  0.3009
15186TIP3    H167049   4.353   5.046  16.663  0.3464 -2.4888 -0.7777
15186TIP3    H267050   4.324   5.117  16.532  0.4457 -0.9496  0.0200
15187TIP3   OH267051   0.864   0.677  13.901  0.7634 -0.3401 -0.5884
15187TIP3    H167052   0.911   0.720  13.972 -0.4550  1.0215 -0.5643
15187TIP3    H267053   0.823   0.749  13.852 -1.5086 -1.4374 -0.4343
15188TIP3   OH267054   4.946   2.604  16.929 -0.5484  0.2526  0.2917
15188TIP3    H167055   5.034   2.640  16.920 -0.9389  1.4472  1.0420
15188TIP3    H267056   4.952   2.517  16.890  0.8236  0.5199 -0.1574
15189TIP3   OH267057   4.129   3.901  16.880 -0.2503 -0.3096  0.0627
15189TIP3    H167058   4.143   3.871  16.791 -0.0396  0.6856 -0.2529
15189TIP3    H267059   4.158   3.993  16.880 -1.2372  0.0245  0.8856
15190TIP3   OH267060   3.713   2.157  11.211  0.2978  0.2735 -0.0552
15190TIP3    H167061   3.685   2.067  11.229 -1.5637  0.8584  0.1938
15190TIP3    H267062   3.756   2.185  11.292  2.0928 -0.7851 -0.5880
15191TIP3   OH267063   0.970   1.408   5.171 -0.5855  0.5013  0.1567
15191TIP3    H167064   0.996   1.385   5.260 -1.5960  2.0600  0.9024
15191TIP3    H267065   1.045   1.384   5.117  0.6520  0.8887  1.6260
15192TIP3   OH267066   2.127   0.521   3.715  0.0292  0.5134 -0.2584
15192TIP3    H167067   2.158   0.596   3.664  1.9743 -0.0309  0.0454
15192TIP3    H267068   2.149   0.542   3.806  1.9564 -0.9799 -0.3094
15193TIP3   OH267069   1.727   0.720  13.551  0.1988 -0.1658  0.2064
15193TIP3    H167070   1.642   0.686  13.578 -0.1427 -0.8591 -1.5887
15193TIP3    H267071   1.773   0.738  13.633 -1.2557 -0.8255  1.2073
15194TIP3   OH267072   6.767   0.795  11.880  0.3012 -0.3166  0.0701
15194TIP3    H167073   6.684   0.825  11.844 -0.4699 -0.2727  1.7590
15194TIP3    H267074   6.819   0.874  11.889  1.0786 -0.5072 -2.2137
15195TIP3   OH267075   1.419   4.562   6.303 -0.1320  0.4738  0.1004
15195TIP3    H167076   1.471   4.505   6.360 -2.2169 -1.6073  0.1010
15195TIP3    H267077   1.473   4.573   6.224  0.4514 -1.4051  0.1828
15196TIP3   OH267078   2.555   4.870   0.737 -0.1171  0.4095 -0.1962
15196TIP3    H167079   2.489   4.804   0.714  0.9964 -0.7830 -0.0955
15196TIP3    H267080   2.506   4.937   0.785 -0.9072 -1.6306  2.0620
15197TIP3   OH267081   4.426   5.119   1.016  0.9191 -0.3411 -0.2717
15197TIP3    H167082   4.399   5.030   0.994  0.1998  0.2776 -2.0944
15197TIP3    H267083   4.365   5.175   0.967  1.4738  1.1563  0.6889
15198TIP3   OH267084   2.806   5.568   4.665 -0.1018 -0.3158 -0.3334
15198TIP3    H167085   2.740   5.569   4.597 -1.4355 -1.6116  0.8960
15198TIP3    H267086   2.785   5.493   4.719  4.1858 -2.7523 -1.5825
15199TIP3   OH267087   0.403   2.331   5.185  0.4705 -0.2602  0.3573
15199TIP3    H167088   0.320   2.355   5.228  1.2073 -0.3878  1.8961
15199TIP3    H267089   0.470   2.344   5.252  1.7670  0.2151 -0.9803
15200TIP3   OH267090   3.023   5.617   5.271  0.7537 -0.1751 -0.2429
15200TIP3    H167091   3.054   5.672   5.200  1.2959  1.2047  1.0085
15200TIP3    H267092   3.019   5.529   5.233  0.6687  0.5652 -2.0537
15201TIP3   OH267093   2.523   0.478  12.444 -0.3918  0.3339 -0.0310
15201TIP3    H167094   2.512   0.386  12.465  0.5008  0.4009  0.8016
15201TIP3    H267095   2.517   0.482  12.348 -1.8216 -0.3738  0.0103
15202TIP3   OH267096   2.527   4.480  16.439  0.2305 -0.0787  0.2541
15202TIP3    H167097   2.530   4.508  16.347  0.6670  2.0084  0.8494
15202TIP3    H267098   2.532   4.385  16.435  2.8188  0.0415 -1.7861
15203TIP3   OH267099   0.251   1.093   4.663 -0.4231  0.5493 -0.1988
15203TIP3    H167100   0.203   1.074   4.744  0.5724 -0.0891  0.2589
15203TIP3    H267101   0.270   1.007   4.626  0.6360  0.7855 -0.2153
15204TIP3   OH267102   4.780   0.504  10.462 -0.4969  0.0487 -0.4167
15204TIP3    H167103   4.799   0.495  10.556 -0.9979  0.8182 -0.2359
15204TIP3    H267104   4.836   0.438  10.420  0.6536  0.5453  0.3105
15205TIP3   OH267105   6.330   5.210   4.305 -0.0105 -0.2237  0.3416
15205TIP3    H167106   6.312   5.268   4.378 -0.0361  0.1739  0.0226
15205TIP3    H267107   6.248   5.163   4.291 -0.4775  0.7618 -0.3716
15206TIP3   OH267108   5.756   4.278   4.118 -0.3774 -0.0649  0.4274
15206TIP3    H167109   5.716   4.192   4.131 -2.5447  0.9325  0.7021
15206TIP3    H267110   5.722   4.332   4.189  3.4773  0.3088  2.2715
15207TIP3   OH267111   4.494   3.056  17.272 -0.6499  0.3715  0.2242
15207TIP3    H167112   4.445   3.121  17.323 -1.1511  0.6744 -0.6131
15207TIP3    H267113   4.581   3.093  17.262 -0.3289 -0.0129  1.4405
15208TIP3   OH267114   0.304   0.825   4.607  0.1579  0.4591  0.3678
15208TIP3    H167115   0.220   0.779   4.604  0.4807 -0.1953  1.1408
15208TIP3    H267116   0.337   0.819   4.517 -0.0125 -0.4585  0.3509
15209TIP3   OH267117   0.026   0.438   5.395  0.0772 -0.1307 -0.2389
15209TIP3    H167118  -0.016   0.372   5.451  1.2513 -0.4871  0.2480
15209TIP3    H267119   0.039   0.513   5.453 -1.5689  0.7116 -0.8765
15210TIP3   OH267120   4.786   6.437  11.341 -0.3093  0.1333 -0.3459
15210TIP3    H167121   4.756   6.348  11.355 -1.5608  0.6284  0.1990
15210TIP3    H267122   4.824   6.435  11.253 -1.4707 -0.6369 -0.8514
15211TIP3   OH267123   1.978   5.234   6.105 -0.3354 -0.0997 -0.3406
15211TIP3    H167124   1.966   5.300   6.173 -0.5253  0.6132 -1.0537
15211TIP3    H267125   2.073   5.225   6.096 -0.2705  1.3745 -1.4514
15212TIP3   OH267126   1.913   6.078  11.836 -0.8390  0.7160 -0.6780
15212TIP3    H167127   1.859   6.137  11.784 -1.0287  1.5853  0.4655
15212TIP3    H267128   1.880   5.990  11.814 -3.0280  1.2220  0.2552
15213TIP3   OH267129   3.404   0.572  14.889  0.4376 -0.3032  0.0041
15213TIP3    H167130   3.436   0.601  14.804  0.5777 -0.8651 -0.1441
15213TIP3    H267131   3.355   0.646  14.923  3.0105  1.1681  0.8446
15214TIP3   OH267132   4.169   1.811   4.204  0.5422  0.1813  0.3792
15214TIP3    H167133   4.084   1.827   4.245  0.6325 -1.0092  1.0828
15214TIP3    H267134   4.203   1.898   4.185 -0.2986  0.7137  1.2012
15215TIP3   OH267135   3.029   6.749   0.562 -0.2111  0.2402  0.3993
15215TIP3    H167136   3.124   6.757   0.575 -0.0479 -0.0898 -0.5275
15215TIP3    H267137   3.004   6.675   0.617  0.5034 -1.2826 -1.2351
15216TIP3   OH267138   1.077   1.073   5.258  0.0380  0.1100  0.5927
15216TIP3    H167139   1.019   1.007   5.221  0.8861  0.2032 -0.9649
15216TIP3    H267140   1.151   1.024   5.292  1.3735  0.2589 -1.8609
15217TIP3   OH267141   1.300   2.762   3.722  0.2673  0.2671 -0.4084
15217TIP3    H167142   1.330   2.834   3.667  1.0683  0.4779  0.2861
15217TIP3    H267143   1.368   2.695   3.714 -0.2628 -0.2428 -0.7143
15218TIP3   OH267144   3.389   1.613  15.519  0.3407 -0.2267 -0.2692
15218TIP3    H167145   3.355   1.525  15.536  0.3080 -0.2668 -0.5376
15218TIP3    H267146   3.313   1.663  15.491  0.3259 -0.0649  0.0609
15219TIP3   OH267147   5.033   3.873  12.622 -0.1634  0.5500  0.0635
15219TIP3    H167148   5.059   3.823  12.700  0.8666  1.9617  0.6638
15219TIP3    H267149   4.969   3.936  12.654  2.8425  3.5736  0.6405
15220TIP3   OH267150   5.518   0.011   6.759 -0.1193 -0.3984 -0.3193
15220TIP3    H167151   5.441   0.028   6.704 -0.3985  0.8028  0.4046
15220TIP3    H267152   5.493   0.043   6.845  0.2169 -2.4855  0.6073
15221TIP3   OH267153   0.821   2.634  14.391 -0.4255  0.3949  0.3073
15221TIP3    H167154   0.783   2.682  14.465  1.3633  0.1997  1.4013
15221TIP3    H267155   0.812   2.542  14.416 -0.8064  0.2862 -0.2309
15222TIP3   OH267156   0.254   2.974  15.365 -0.0486  0.1281 -0.3174
15222TIP3    H167157   0.294   2.897  15.406 -1.8235 -1.4012 -1.3137
15222TIP3    H267158   0.181   2.995  15.423  1.3339  2.1074  0.8043
15223TIP3   OH267159   0.471   5.389   1.839  0.0272  0.6674  0.6700
15223TIP3    H167160   0.521   5.355   1.913 -0.0949 -0.9568  0.0559
15223TIP3    H267161   0.380   5.387   1.869  0.1496  2.0850  1.2138
15224TIP3   OH267162   3.935   6.486   0.987 -0.2651 -0.3156  0.1697
15224TIP3    H167163   3.896   6.529   0.910  0.4128  0.6832  0.3786
15224TIP3    H267164   3.980   6.556   1.034  1.5983 -1.3878  0.0612
15225TIP3   OH267165   4.808   3.756  12.454 -0.8853 -0.0579 -0.1887
15225TIP3    H167166   4.893   3.751  12.498 -1.1616  2.3243  0.7697
15225TIP3    H267167   4.763   3.675  12.479  1.4745 -1.9859 -1.7166
15226TIP3   OH267168   3.525   6.248  13.836 -0.6587  0.1482  0.0147
15226TIP3    H167169   3.490   6.271  13.922 -0.5801  2.9931 -0.6156
15226TIP3    H267170   3.615   6.279  13.837 -0.4485 -0.3754 -0.8937
15227TIP3   OH267171   6.722   0.502  15.862 -0.1889  0.0463  0.2008
15227TIP3    H167172   6.666   0.562  15.813 -1.2109  0.6299  1.9943
15227TIP3    H267173   6.668   0.474  15.936  0.4068 -2.7625 -0.3047
15228TIP3   OH267174   3.045   4.682  17.019  0.7722  0.2632 -0.3115
15228TIP3    H167175   3.077   4.594  16.997  1.0085  0.2971 -0.1121
15228TIP3    H267176   3.117   4.740  16.993 -0.1529  0.5931 -2.2898
15229TIP3   OH267177   5.819   1.173  14.408  0.6809 -0.3299  0.6048
15229TIP3    H167178   5.904   1.214  14.391  0.5144  0.1477  0.9092
15229TIP3    H267179   5.768   1.190  14.328  0.9373 -0.8117  0.3301
15230TIP3   OH267180   4.054   6.090  11.305 -0.1097  0.3064  0.7663
15230TIP3    H167181   4.053   6.065  11.213 -1.6828  0.9456  0.5802
15230TIP3    H267182   4.099   6.175  11.307 -0.4644  0.5013  0.5213
15231TIP3   OH267183   6.204   5.071  15.902  0.5422 -0.2074 -0.6543
15231TIP3    H167184   6.277   5.018  15.934 -0.1319 -0.8582 -0.1646
15231TIP3    H267185   6.169   5.113  15.980 -0.7681 -1.3769 -0.5692
15232TIP3   OH267186   4.889   6.605  14.022  0.2530 -0.6140 -0.3243
15232TIP3    H167187   4.861   6.514  14.015  0.1484 -0.5755 -0.4176
15232TIP3    H267188   4.972   6.601  14.070 -0.2344 -0.6724  0.5255
15233TIP3   OH267189   6.217   0.424   0.703 -0.9024 -0.1100  0.0006
15233TIP3    H167190   6.160   0.348   0.690  0.1984 -0.6791 -1.9459
15233TIP3    H267191   6.215   0.469   0.618 -0.2076  1.0977  0.6001
15234TIP3   OH267192   4.836   3.080   1.505  0.0468  0.2237 -0.4785
15234TIP3    H167193   4.788   2.999   1.492 -0.6739  0.5401  0.1526
15234TIP3    H267194   4.860   3.108   1.416  0.0265 -0.5085 -0.7192
15235TIP3   OH267195   5.367   2.559  10.572  0.7856 -0.7116  0.1486
15235TIP3    H167196   5.462   2.576  10.568  0.5553  0.5318 -1.2727
15235TIP3    H267197   5.349   2.507  10.494 -0.0967  1.6406 -1.3362
15236TIP3   OH267198   6.631   1.588   1.613  0.1843 -0.3992  0.4947
15236TIP3    H167199   6.587   1.503   1.601 -1.6983  0.4222  1.1681
15236TIP3    H267200   6.560   1.649   1.632  1.4360  1.4584 -0.4532
15237TIP3   OH267201   3.370   6.700   5.498 -0.1382  0.1380 -0.0988
15237TIP3    H167202   3.373   6.629   5.562 -0.8493 -0.1105 -0.3322
15237TIP3    H267203   3.343   6.658   5.416 -0.7107  0.7032 -0.2043
15238TIP3   OH267204   0.826   5.426  16.033 -0.0019 -0.3845 -0.2654
15238TIP3    H167205   0.805   5.515  16.061 -1.0614 -1.1772  1.6425
15238TIP3    H267206   0.922   5.423  16.031  0.1307  0.0789  2.3112
15239TIP3   OH267207   2.666   5.537  11.578 -0.0519 -0.3922  0.1180
15239TIP3    H167208   2.698   5.622  11.608  0.2882 -0.6362  0.4757
15239TIP3    H267209   2.653   5.547  11.484  1.0863 -0.2714 -0.0422
15240TIP3   OH267210   3.342   2.716   3.994  0.2783  0.1947 -0.0010
15240TIP3    H167211   3.423   2.666   3.986 -0.1420 -0.6498  0.8290
15240TIP3    H267212   3.363   2.801   3.956  1.2269 -0.3639 -0.7802
15241TIP3   OH267213   6.181   1.886  15.847 -0.0901  0.1708  0.5483
15241TIP3    H167214   6.161   1.903  15.755  1.9227 -0.5961 -0.0795
15241TIP3    H267215   6.195   1.792  15.852 -1.9086 -0.0827  2.0537
15242TIP3   OH267216   2.267   6.740  16.116 -0.3684  0.2673  0.0287
15242TIP3    H167217   2.352   6.701  16.138  0.4762  1.0524 -1.5923
15242TIP3    H267218   2.204   6.670  16.129  0.7473 -0.8308 -0.2580
15243TIP3   OH267219   2.442   3.594   0.075 -0.2419  0.2229 -0.2235
15243TIP3    H167220   2.431   3.687   0.057  1.8544  0.7911  1.0319
15243TIP3    H267221   2.428   3.550  -0.009 -0.0528  1.7860 -1.0939
15244TIP3   OH267222   4.587   3.903   6.847  0.1049  0.8759 -0.0673
15244TIP3    H167223   4.565   3.925   6.938  0.8726 -0.9414  0.6013
15244TIP3    H267224   4.600   3.808   6.848 -0.3758  0.7438 -2.2007
15245TIP3   OH267225   0.600   0.076   5.166 -0.0470  0.4519  0.0644
15245TIP3    H167226   0.628   0.162   5.200  0.5413  0.0070  0.7485
15245TIP3    H267227   0.606   0.018   5.242 -1.8102  0.0849 -0.0382
15246TIP3   OH267228   5.474   2.196  14.781 -0.0401  0.3468 -0.3191
15246TIP3    H167229   5.488   2.194  14.686  0.9776  0.4099 -0.1847
15246TIP3    H267230   5.433   2.112  14.801 -1.0126  0.6580 -0.9090
15247TIP3   OH267231   0.308   6.294   0.224  0.3421 -0.2934  0.3396
15247TIP3    H167232   0.317   6.346   0.145  4.5402 -0.8756  0.2209
15247TIP3    H267233   0.351   6.346   0.292 -0.4512 -1.1611  1.5494
15248TIP3   OH267234   4.770   5.811  12.403  0.0925 -0.1783 -0.1597
15248TIP3    H167235   4.804   5.766  12.481  0.9009 -0.7413 -0.8149
15248TIP3    H267236   4.848   5.846  12.360 -0.2486 -0.6100 -1.1617
15249TIP3   OH267237   4.188   4.925  14.046  0.1097 -0.3683 -0.2035
15249TIP3    H167238   4.207   5.002  13.992 -0.9636  1.3951  1.7759
15249TIP3    H267239   4.271   4.906  14.090  0.1695  0.2618 -0.0280
15250TIP3   OH267240   5.756   5.901   0.189 -0.4162 -0.4406  0.0736
15250TIP3    H167241   5.834   5.956   0.183 -0.0885 -0.5904  2.3144
15250TIP3    H267242   5.734   5.882   0.098  1.8441  0.0340 -0.6409
15251TIP3   OH267243   1.644   4.954   5.771  0.4968  0.2793  0.0032
15251TIP3    H167244   1.640   4.990   5.682 -0.4682  0.2474  0.0304
15251TIP3    H267245   1.667   5.029   5.825  0.4826  0.4288 -0.1958
15252TIP3   OH267246   0.067   5.188   0.696 -0.4026 -0.3030  0.0693
15252TIP3    H167247  -0.019   5.163   0.663 -0.2278 -0.8161 -0.0100
15252TIP3    H267248   0.122   5.190   0.618 -0.2813 -0.2515  0.1567
15253TIP3   OH267249   0.204   3.160   4.810 -0.2967  0.3296  0.2298
15253TIP3    H167250   0.186   3.066   4.819  0.1659  0.4001  2.6754
15253TIP3    H267251   0.147   3.201   4.875 -0.0423  1.6996 -0.3827
15254TIP3   OH267252   5.905   2.279  11.404 -0.8967 -0.2357  0.1945
15254TIP3    H167253   5.825   2.331  11.389 -1.6711 -1.5119 -0.3033
15254TIP3    H267254   5.896   2.247  11.494 -0.9448 -0.3634  0.1447
15255TIP3   OH267255   6.338   2.959   2.865 -0.8353  0.2575  0.2532
15255TIP3    H167256   6.261   2.941   2.811  0.6314  1.3904 -2.3998
15255TIP3    H267257   6.395   2.883   2.851 -0.2851  0.7328 -0.1683
15256TIP3   OH267258   2.511   0.956  13.341 -0.0636  0.1373  0.2709
15256TIP3    H167259   2.465   1.007  13.275 -0.6650 -0.2325  0.3882
15256TIP3    H267260   2.539   1.020  13.407  0.4491  0.4913 -0.2905
15257TIP3   OH267261   1.482   2.294  14.910  0.0280  0.4653 -0.0133
15257TIP3    H167262   1.492   2.342  14.828  0.0597  0.3479 -0.0780
15257TIP3    H267263   1.546   2.334  14.969 -0.1512  0.6997  0.0252
15258TIP3   OH267264   3.237   0.280   6.538 -0.8567  0.4387  0.2074
15258TIP3    H167265   3.279   0.365   6.553  1.3339 -0.4839 -0.3244
15258TIP3    H267266   3.232   0.241   6.625  3.3597 -1.1066 -0.0175
15259TIP3   OH267267   5.979   4.678   1.340  0.1260  0.1969  0.3490
15259TIP3    H167268   5.917   4.703   1.409 -0.6630 -2.1958  0.5834
15259TIP3    H267269   5.925   4.640   1.272  1.2279 -0.9802  0.0909
15260TIP3   OH267270   6.499   6.473   6.250 -0.7937 -0.2513  0.2337
15260TIP3    H167271   6.540   6.499   6.332 -0.1373 -0.1225 -0.1215
15260TIP3    H267272   6.409   6.505   6.256 -0.5475  0.3785  0.6124
15261TIP3   OH267273   6.239   1.065   0.357 -0.1698 -0.0645  0.2209
15261TIP3    H167274   6.205   1.030   0.439  1.7486 -0.5708  0.8679
15261TIP3    H267275   6.333   1.075   0.373 -0.2581  3.4504 -0.6504
15262TIP3   OH267276   2.816   2.365   8.447 -0.1508  0.0852  0.1077
15262TIP3    H167277   2.852   2.322   8.526 -2.3139 -1.5423  0.2867
15262TIP3    H267278   2.721   2.361   8.458 -0.5243 -0.0832 -2.5459
15263TIP3   OH267279   0.514   2.731  14.993 -0.1051 -0.1799 -0.4226
15263TIP3    H167280   0.586   2.734  14.930 -0.9536 -0.5238 -1.4514
15263TIP3    H267281   0.522   2.646  15.036 -0.0032 -0.2930 -0.6657
15264TIP3   OH267282   2.519   5.366   4.578  0.2052 -0.0363 -0.5550
15264TIP3    H167283   2.542   5.373   4.670 -1.7981 -1.1409  0.0759
15264TIP3    H267284   2.550   5.448   4.539 -1.4404  1.7662  1.6785
15265TIP3   OH267285   1.198   6.456  15.741 -0.6309  0.4959  0.2962
15265TIP3    H167286   1.143   6.418  15.810 -1.7408  0.7684 -0.4148
15265TIP3    H267287   1.271   6.496  15.789 -0.9900  0.0434  1.2598
15266TIP3   OH267288   5.596   5.292   6.960  0.4315 -0.2662  0.1507
15266TIP3    H167289   5.653   5.343   6.903 -0.8805 -0.1098 -1.0896
15266TIP3    H267290   5.610   5.201   6.933  1.2376 -0.3953  0.9443
15267TIP3   OH267291   5.180   1.853   4.350 -0.1649  0.1197  0.8288
15267TIP3    H167292   5.101   1.872   4.300 -0.6131 -1.4809  0.8707
15267TIP3    H267293   5.226   1.937   4.356 -1.7898  1.0611  0.6931
15268TIP3   OH267294   2.103   0.553  17.004 -0.0711 -0.5033 -0.1810
15268TIP3    H167295   2.063   0.630  17.045 -2.4515 -1.3006 -0.8644
15268TIP3    H267296   2.113   0.577  16.912 -2.2733 -1.4724 -0.7287
15269TIP3   OH267297   4.771   6.236   1.105 -0.2825  0.7080  0.3112
15269TIP3    H167298   4.809   6.149   1.113 -0.0521  0.9766  3.6653
15269TIP3    H267299   4.811   6.272   1.026  0.5466 -1.7482 -0.4842
15270TIP3   OH267300   0.230   0.326   2.145  0.1291 -0.5375  0.2243
15270TIP3    H167301   0.214   0.374   2.226  0.4367 -0.8822  0.4905
15270TIP3    H267302   0.322   0.345   2.124 -0.4478  1.1360 -1.0987
15271TIP3   OH267303   2.189   3.521   2.121 -0.1266 -0.0769  1.0068
15271TIP3    H167304   2.243   3.523   2.042  1.5056 -0.7818  2.0477
15271TIP3    H267305   2.141   3.439   2.115 -0.5981  0.2303  0.4054
15272TIP3   OH267306   5.389   5.810  16.019 -0.1657 -0.2413  0.0813
15272TIP3    H167307   5.371   5.848  15.934 -1.9356 -1.9473 -0.3606
15272TIP3    H267308   5.462   5.862  16.053 -1.3002  2.3553 -1.1887
15273TIP3   OH267309   4.335   0.651   4.593 -0.5083  0.4713  0.7872
15273TIP3    H167310   4.323   0.583   4.660  0.2435 -0.2316  0.2411
15273TIP3    H267311   4.422   0.633   4.557 -1.1559  0.3972 -0.8392
15274TIP3   OH267312   1.130   3.643  16.154 -0.6503  0.1601  0.1075
15274TIP3    H167313   1.169   3.701  16.089 -0.8564  0.0974 -0.0718
15274TIP3    H267314   1.194   3.641  16.226 -1.7524  2.6423  1.2626
15275TIP3   OH267315   6.128   1.950  15.586 -0.2580  0.1184  0.3249
15275TIP3    H167316   6.033   1.941  15.578 -0.2294  0.1583 -0.0658
15275TIP3    H267317   6.160   1.947  15.496  0.2632 -1.5919  0.5334
15276TIP3   OH267318   4.997   5.823   4.355  0.3550  0.0338  0.3264
15276TIP3    H167319   4.989   5.837   4.449 -1.2817 -0.3872  0.2842
15276TIP3    H267320   5.001   5.911   4.318  0.3303  0.2110  0.7442
15277TIP3   OH267321   0.022   0.076  13.178  0.5506 -0.1133  0.6735
15277TIP3    H167322   0.030   0.134  13.254  3.1608  0.7063 -0.0916
15277TIP3    H267323   0.092   0.011  13.191  1.6459  0.5618 -1.3674
15278TIP3   OH267324   0.028   5.087  16.788  0.1527 -0.3599 -0.2893
15278TIP3    H167325   0.030   5.000  16.828 -0.4152  0.3211  1.2896
15278TIP3    H267326  -0.043   5.081  16.723  2.0366 -1.9118 -2.3892
15279TIP3   OH267327   3.557   1.393   3.396 -0.0601  0.2676 -0.2935
15279TIP3    H167328   3.585   1.394   3.488  2.6080 -2.2376 -0.9102
15279TIP3    H267329   3.564   1.301   3.370 -0.8680  0.8857 -2.9866
15280TIP3   OH267330   1.022   3.079  17.199 -0.0586 -0.2418 -0.7586
15280TIP3    H167331   0.928   3.083  17.184 -0.2955 -1.8956  0.0483
15280TIP3    H267332   1.056   3.031  17.123  0.0105 -0.4258 -0.6111
15281TIP3   OH267333   4.528   0.175  11.923 -1.0048 -0.0153 -0.4518
15281TIP3    H167334   4.468   0.183  11.997  1.0729 -0.3849  1.3664
15281TIP3    H267335   4.522   0.259  11.878 -1.3731  0.7205  0.9124
15282TIP3   OH267336   0.120   5.083  14.189  0.4881 -0.0529 -0.1176
15282TIP3    H167337   0.031   5.116  14.176  0.7219 -0.1323 -2.1171
15282TIP3    H267338   0.118   5.043  14.277 -0.9234  1.5519  0.6303
15283TIP3   OH267339   0.113   4.656   0.843 -0.2758 -0.3755 -0.2959
15283TIP3    H167340   0.062   4.736   0.851 -1.7353 -1.1937 -1.0055
15283TIP3    H267341   0.085   4.618   0.760  1.6534 -0.7778 -0.8248
15284TIP3   OH267342   3.593   1.270   2.212  0.2051 -0.5410 -0.1374
15284TIP3    H167343   3.655   1.332   2.175  0.7294 -1.6106 -1.0950
15284TIP3    H267344   3.628   1.249   2.298 -0.1896  0.7647  0.3714
15285TIP3   OH267345   0.027   0.469   4.645  0.0115  0.0912  0.3146
15285TIP3    H167346   0.025   0.379   4.613 -0.2239  0.4886 -0.8433
15285TIP3    H267347   0.111   0.477   4.692 -0.6363 -1.1487  1.7828
15286TIP3   OH267348   5.699   5.029  15.425 -0.5408 -0.7594 -0.1862
15286TIP3    H167349   5.635   4.975  15.471 -1.1922 -0.1119 -0.3231
15286TIP3    H267350   5.753   4.966  15.377 -0.1746 -1.4097  1.0366
15287TIP3   OH267351   1.402   6.754  15.490 -0.4145 -0.0952 -0.4028
15287TIP3    H167352   1.433   6.727  15.404  0.0598  1.1159 -0.6369
15287TIP3    H267353   1.476   6.737  15.548  0.4918  2.0828 -0.8289
15288TIP3   OH267354   3.255   5.257   0.981  0.1895  0.1372  0.1031
15288TIP3    H167355   3.215   5.246   0.895  0.3462 -2.7242  0.2804
15288TIP3    H267356   3.182   5.271   1.040  0.0792  2.1001 -0.4370
15289TIP3   OH267357   0.988   3.955   2.753  0.1183 -0.2705  0.0642
15289TIP3    H167358   0.959   3.877   2.705 -0.9872  0.9362 -1.3366
15289TIP3    H267359   1.038   4.006   2.689  0.3554  0.4283  0.7871
15290TIP3   OH267360   6.022   1.844   0.452  0.5731  0.0662 -0.6267
15290TIP3    H167361   5.932   1.835   0.422  0.0594  0.2330  0.8160
15290TIP3    H267362   6.073   1.796   0.387 -0.6964 -1.2475 -0.7222
15291TIP3   OH267363   5.218   0.635   2.553  0.1807  0.2941  0.2814
15291TIP3    H167364   5.302   0.662   2.591  0.6838  0.3912 -0.8677
15291TIP3    H267365   5.178   0.580   2.620  0.6993  1.0709  1.2606
15292TIP3   OH267366   6.035   3.063   6.214  0.1879 -0.2199 -0.2113
15292TIP3    H167367   6.023   3.131   6.280  1.4719 -0.0139 -0.1733
15292TIP3    H267368   5.953   3.014   6.215 -0.9533  1.5867 -0.5477
15293TIP3   OH267369   0.639   3.271  15.514 -0.4327 -0.0482  0.0509
15293TIP3    H167370   0.607   3.238  15.430 -1.7172 -0.2966  0.6043
15293TIP3    H267371   0.612   3.205  15.578 -1.9466  1.3945  1.0109
15294TIP3   OH267372   2.875   2.078   1.290  0.0843  0.4482  0.9978
15294TIP3    H167373   2.784   2.105   1.277 -0.3401 -1.5589 -0.7794
15294TIP3    H267374   2.884   2.068   1.385 -1.2998  1.3636  1.2640
15295TIP3   OH267375   5.389   6.722  10.956  0.5317  0.1971 -0.0718
15295TIP3    H167376   5.315   6.771  10.921  0.6978  0.6047  0.1328
15295TIP3    H267377   5.414   6.769  11.036  0.0761 -0.7980  0.6750
15296TIP3   OH267378   0.504   3.325   4.645 -0.1152  0.3786 -0.0181
15296TIP3    H167379   0.445   3.312   4.720  0.7442  0.9728  0.7838
15296TIP3    H267380   0.474   3.261   4.580 -1.2857  0.2858  0.5763
15297TIP3   OH267381   4.053   0.734   2.649  0.1531  0.3435  0.1520
15297TIP3    H167382   4.082   0.644   2.664  0.6760  0.4120 -0.4248
15297TIP3    H267383   4.078   0.753   2.559 -0.3564  0.9184  0.1265
15298TIP3   OH267384   1.967   4.265   0.946 -0.1766 -0.3917 -0.6664
15298TIP3    H167385   1.894   4.277   1.007 -1.6564  3.1823 -2.8163
15298TIP3    H267386   1.993   4.354   0.922  3.1881 -1.5711 -2.0528
15299TIP3   OH267387   3.700   2.922  13.303  0.1352 -0.1677 -0.2057
15299TIP3    H167388   3.733   3.004  13.268  1.8755 -1.6657 -2.3854
15299TIP3    H267389   3.778   2.869  13.318 -0.9943 -2.0556 -0.6422
15300TIP3   OH267390   0.497   6.678  11.686 -0.3353  0.3749 -0.3987
15300TIP3    H167391   0.437   6.674  11.761 -1.4006  2.1921 -1.0995
15300TIP3    H267392   0.576   6.719  11.720 -0.6787  0.8619 -0.1811
15301TIP3   OH267393   1.796   0.511   5.274  0.1866  0.7312 -0.7621
15301TIP3    H167394   1.725   0.449   5.257 -1.2012  1.6314  1.3314
15301TIP3    H267395   1.752   0.595   5.287  1.3410  0.9958  2.4156
15302TIP3   OH267396   5.150   4.564  13.146 -0.1271 -0.0701 -0.1717
15302TIP3    H167397   5.113   4.522  13.069  0.0946 -0.5777 -0.0021
15302TIP3    H267398   5.075   4.605  13.190 -0.3112 -0.1240 -0.4366
15303TIP3   OH267399   5.860   2.649  12.716 -0.1071  0.3941  0.2237
15303TIP3    H167400   5.893   2.564  12.687  1.9943  1.3182 -0.2772
15303TIP3    H267401   5.805   2.679  12.644  0.8145  0.3357 -0.5309
15304TIP3   OH267402   0.296   2.357  14.022 -0.2369  0.1272  0.0469
15304TIP3    H167403   0.292   2.452  14.025  0.9676  0.2385 -1.2154
15304TIP3    H267404   0.205   2.329  14.027 -0.5485  1.2816  1.5931
15305TIP3   OH267405   4.083   2.360   2.621  0.4508  0.2746 -0.2386
15305TIP3    H167406   4.030   2.287   2.588  0.6162  0.6582 -1.4213
15305TIP3    H267407   4.166   2.351   2.575  1.1393  0.1627  0.9858
15306TIP3   OH267408   3.879   2.770  17.316 -0.3686  0.3528 -0.0769
15306TIP3    H167409   3.836   2.686  17.297 -1.2752  1.0414 -1.1948
15306TIP3    H267410   3.859   2.825  17.239  2.2067  0.8398 -0.4779
15307TIP3   OH267411   2.333   5.692   0.071  0.1783  0.0183 -0.0203
15307TIP3    H167412   2.348   5.645  -0.011  0.5041 -0.2146  0.1684
15307TIP3    H267413   2.267   5.757   0.050 -1.8117 -1.8370  0.1996
15308TIP3   OH267414   0.730   3.743  16.260  0.0504 -0.3230 -0.5540
15308TIP3    H167415   0.675   3.728  16.337  1.9895 -2.3781  0.5443
15308TIP3    H267416   0.783   3.664  16.253  3.7116  1.9399 -0.7921
15309TIP3   OH267417   5.085   2.618   4.996  0.3528  0.0285 -0.1617
15309TIP3    H167418   5.127   2.704   5.005  0.6570 -0.0704 -0.6124
15309TIP3    H267419   5.020   2.616   5.066  2.2874 -0.5153  1.6989
15310TIP3   OH267420   5.294   0.740   5.437 -0.0444  0.3004  0.1124
15310TIP3    H167421   5.318   0.653   5.469 -1.7427 -0.3395 -0.2305
15310TIP3    H267422   5.234   0.723   5.365 -1.8342  1.7285  1.1740
15311TIP3   OH267423   4.032   2.350  14.485  0.3073 -0.3102 -0.5338
15311TIP3    H167424   3.961   2.351  14.550  0.7693  1.4337 -0.0159
15311TIP3    H267425   4.033   2.260  14.454 -1.7951 -0.5284 -0.1772
15312TIP3   OH267426   3.501   1.579  14.819  0.0073 -0.8338 -0.6992
15312TIP3    H167427   3.416   1.592  14.776  0.3279 -0.2062 -1.1593
15312TIP3    H267428   3.528   1.491  14.793 -0.1019 -0.7020 -1.2648
15313TIP3   OH267429   6.239   6.579   2.303  0.2917  0.0923  0.1412
15313TIP3    H167430   6.231   6.487   2.327  0.2618  0.5027  1.8190
15313TIP3    H267431   6.170   6.593   2.238 -1.4642 -0.4651  1.7983
15314TIP3   OH267432   3.917   1.340   2.693  0.5721 -0.7777 -0.2214
15314TIP3    H167433   3.881   1.311   2.777 -0.8657  0.1595 -0.4707
15314TIP3    H267434   3.930   1.434   2.704  0.2157 -0.6186 -1.0857
15315TIP3   OH267435   2.866   1.856   4.156  0.4180  0.6208 -0.2026
15315TIP3    H167436   2.950   1.811   4.154  0.5714  0.9300 -1.3646
15315TIP3    H267437   2.889   1.949   4.167  0.3177  0.8408 -1.6061
15316TIP3   OH267438   1.432   0.217  16.646  0.2712 -0.5828 -0.1284
15316TIP3    H167439   1.383   0.159  16.705  2.8228 -1.6718  1.0547
15316TIP3    H267440   1.481   0.275  16.705  2.5706 -1.4167 -1.1212
15317TIP3   OH267441   1.072   6.480  14.123  0.3407 -0.4353  0.6517
15317TIP3    H167442   1.121   6.543  14.069  1.0544 -1.0737  0.5332
15317TIP3    H267443   1.033   6.420  14.060 -0.5839  0.0385  0.7490
15318TIP3   OH267444   5.938   1.221  13.966  0.2043  0.0875  0.3498
15318TIP3    H167445   5.929   1.142  13.913 -1.8625  1.1820 -1.0917
15318TIP3    H267446   5.848   1.250  13.980  0.8515  1.4009  2.1020
15319TIP3   OH267447   4.291   0.811  12.882 -0.4219 -0.2139 -0.1873
15319TIP3    H167448   4.247   0.893  12.860 -0.3465 -0.0357  0.3123
15319TIP3    H267449   4.371   0.811  12.829  1.2487  1.5939  2.1126
15320TIP3   OH267450   2.731   3.184  13.292  0.1817 -0.2423  0.3239
15320TIP3    H167451   2.647   3.221  13.265 -0.2805 -1.4512  0.0202
15320TIP3    H267452   2.710   3.136  13.373  0.7088 -0.0533  0.5744
15321TIP3   OH267453   6.686   5.573   5.497  0.2281 -0.8090  0.1314
15321TIP3    H167454   6.611   5.619   5.536 -0.1522 -1.7294  0.5165
15321TIP3    H267455   6.648   5.521   5.426  1.0193  1.4032 -2.0256
15322TIP3   OH267456   5.814   4.488   2.568 -0.6578 -0.4738  0.9106
15322TIP3    H167457   5.799   4.394   2.576  1.5222 -0.8779  0.7208
15322TIP3    H267458   5.846   4.500   2.479  1.0702  0.1262  1.5679
15323TIP3   OH267459   1.455   0.824   4.560 -0.3621  0.0504 -0.0251
15323TIP3    H167460   1.422   0.763   4.494 -0.0915  0.0814 -0.1892
15323TIP3    H267461   1.430   0.910   4.529 -0.9043  0.0175  0.2973
15324TIP3   OH267462   2.448   6.226   5.131 -0.5445  0.2069  0.5622
15324TIP3    H167463   2.523   6.175   5.162 -0.4303 -1.7946 -2.5624
15324TIP3    H267464   2.487   6.306   5.095  0.2032 -0.7884 -0.9786
15325TIP3   OH267465   4.733   5.695  13.197 -0.4081  0.7880 -0.2541
15325TIP3    H167466   4.821   5.691  13.160 -0.4011 -1.0048 -0.1342
15325TIP3    H267467   4.699   5.779  13.169  1.0705  1.1965 -0.9255
15326TIP3   OH267468   4.374   2.892  14.845 -0.0974 -0.0121 -0.0848
15326TIP3    H167469   4.439   2.840  14.796 -1.3633 -1.7771  0.0368
15326TIP3    H267470   4.303   2.831  14.863 -1.1121  1.4742  1.1634
15327TIP3   OH267471   6.302   3.570  14.510 -0.2916 -0.0470 -0.2193
15327TIP3    H167472   6.396   3.566  14.491 -0.4602 -2.1897 -0.8348
15327TIP3    H267473   6.265   3.620  14.437  0.2808  0.1916 -0.3500
15328TIP3   OH267474   0.514   5.709  13.074 -0.7440 -0.0807 -0.4754
15328TIP3    H167475   0.608   5.701  13.090 -0.3537  4.7360  1.1177
15328TIP3    H267476   0.505   5.700  12.979  1.3978 -0.0315 -0.7325
15329TIP3   OH267477   0.013   1.677  12.111 -1.0569  0.2406  0.1756
15329TIP3    H167478   0.094   1.644  12.073  0.0485  0.5400  2.0981
15329TIP3    H267479  -0.050   1.677  12.039  0.7511  0.3865 -1.4883
15330TIP3   OH267480   4.273   5.730  13.673 -0.0548 -0.2519  0.0351
15330TIP3    H167481   4.303   5.677  13.599  3.3691 -1.2113  1.8696
15330TIP3    H267482   4.290   5.675  13.750 -0.9541  1.6827  1.7019
15331TIP3   OH267483   2.875   6.647  11.867  0.1777  0.3098  0.2307
15331TIP3    H167484   2.950   6.684  11.913 -0.1980  1.4120 -0.0139
15331TIP3    H267485   2.835   6.722  11.822 -0.4441 -0.4451 -0.5095
15332TIP3   OH267486   3.273   1.807   5.867  0.0503 -0.4363  0.3131
15332TIP3    H167487   3.278   1.898   5.895 -2.3543  0.2368 -1.1152
15332TIP3    H267488   3.259   1.757   5.947  1.7594  0.3597  1.1562
15333TIP3   OH267489   4.602   2.033   5.120  0.4946  0.4904  0.2747
15333TIP3    H167490   4.528   2.073   5.074 -0.1406  0.2766  1.0809
15333TIP3    H267491   4.679   2.076   5.083 -0.0932  1.5208  0.1893
15334TIP3   OH267492   4.785   0.903  13.744 -0.0095  0.3216 -0.3415
15334TIP3    H167493   4.821   0.961  13.677 -0.1368 -0.0987 -0.7844
15334TIP3    H267494   4.747   0.961  13.809 -1.0488  0.7232 -1.2883
15335TIP3   OH267495   2.376   6.222   1.520  0.1707 -0.0235 -0.1775
15335TIP3    H167496   2.296   6.170   1.508 -1.0624  1.6848  0.1806
15335TIP3    H267497   2.446   6.157   1.525 -1.2217 -1.6147 -0.1602
15336TIP3   OH267498   5.481   6.690   3.019 -0.3520  0.1355 -0.2315
15336TIP3    H167499   5.526   6.756   3.072 -0.9162  0.3060  0.0411
15336TIP3    H267500   5.409   6.660   3.074  1.4334 -2.7006  0.7729
15337TIP3   OH267501   5.529   6.522   0.198 -0.7462  0.1997 -0.1893
15337TIP3    H167502   5.466   6.479   0.256 -0.6366  1.4763  0.9255
15337TIP3    H267503   5.568   6.591   0.252  0.3844  0.5295 -1.3752
15338TIP3   OH267504   1.330   2.462   5.280  0.4461  0.0662 -0.4283
15338TIP3    H167505   1.307   2.555   5.273  2.5853  0.6946 -0.0148
15338TIP3    H267506   1.409   2.453   5.226  0.2854 -1.5055 -0.4393
15339TIP3   OH267507   0.363   3.808   6.162  0.0919  0.4583  0.1470
15339TIP3    H167508   0.333   3.748   6.230 -0.2293 -2.1597 -2.1700
15339TIP3    H267509   0.453   3.781   6.145  0.4649  1.6778  0.0769
15340TIP3   OH267510   6.012   1.630   5.459 -0.2811  0.0505 -0.4055
15340TIP3    H167511   6.048   1.576   5.530 -2.5617  0.0524  0.8269
15340TIP3    H267512   6.012   1.571   5.383  0.4003 -0.5714  0.0522
15341TIP3   OH267513   6.008   5.469  16.510  0.6232  0.5024  0.0952
15341TIP3    H167514   6.059   5.457  16.590 -0.0082  0.6218  0.5220
15341TIP3    H267515   5.919   5.485  16.541  0.1703 -0.4824 -0.6589
15342TIP3   OH267516   1.853   1.021  13.661  0.7816 -0.0800  0.8694
15342TIP3    H167517   1.865   1.020  13.566  0.3666 -2.4746  0.7551
15342TIP3    H267518   1.784   1.086  13.676  1.0747  0.5625 -0.4177
15343TIP3   OH267519   5.142   5.663   6.131 -0.0886 -0.1045  0.1074
15343TIP3    H167520   5.154   5.733   6.195  2.8268 -1.5158  1.2932
15343TIP3    H267521   5.161   5.582   6.179  1.6105 -1.2866 -2.3137
15344TIP3   OH267522   0.109   2.403  14.525  0.4952  0.0583 -0.0117
15344TIP3    H167523   0.095   2.391  14.431  0.2362  2.2799 -0.2987
15344TIP3    H267524   0.023   2.388  14.564  0.6640 -1.1676 -0.0481
15345TIP3   OH267525   5.690   4.688  14.081  0.5398  0.1105  0.2749
15345TIP3    H167526   5.768   4.653  14.038 -0.9719  0.5261 -3.1360
15345TIP3    H267527   5.688   4.780  14.054 -1.5078 -0.0920 -0.3683
15346TIP3   OH267528   4.743   3.266   6.146 -0.5040  0.1114  0.1723
15346TIP3    H167529   4.796   3.187   6.145 -0.9305 -0.2082  1.0977
15346TIP3    H267530   4.652   3.235   6.146 -0.6865  0.6243 -0.4759
15347TIP3   OH267531   6.393   2.777   3.644 -0.0831  0.0701 -0.0661
15347TIP3    H167532   6.304   2.809   3.632  1.0929  3.3170 -1.1789
15347TIP3    H267533   6.446   2.833   3.587  2.3918 -3.6706 -1.8413
15348TIP3   OH267534   5.614   5.390   5.945 -0.2086 -0.1231  0.3458
15348TIP3    H167535   5.560   5.371   5.868  0.3462 -0.4141  0.0173
15348TIP3    H267536   5.554   5.381   6.019 -1.1094  1.6082 -0.1196
15349TIP3   OH267537   6.782   0.146  14.451 -0.3126 -0.0946  0.0694
15349TIP3    H167538   6.697   0.156  14.494  0.5927  0.5730  1.7951
15349TIP3    H267539   6.846   0.145  14.522  1.1297 -0.8120 -1.1644
15350TIP3   OH267540   5.602   5.432   5.521 -0.3614  0.0902 -0.2870
15350TIP3    H167541   5.570   5.435   5.611 -1.9385 -1.8817 -0.7058
15350TIP3    H267542   5.610   5.338   5.501 -0.0733  0.4781 -2.2096
15351TIP3   OH267543   5.930   1.525   1.550 -0.2756 -0.8110 -0.1168
15351TIP3    H167544   5.867   1.588   1.515 -0.5725 -1.8414 -1.5343
15351TIP3    H267545   5.896   1.502   1.636 -0.2741  0.7881  0.3376
15352TIP3   OH267546   1.601   0.063   3.056 -0.1367  0.1279 -0.1839
15352TIP3    H167547   1.580   0.027   2.969  0.8320  0.5951 -0.6156
15352TIP3    H267548   1.518   0.101   3.086 -0.8110 -1.1482 -0.3490
15353TIP3   OH267549   5.194   5.194   3.286 -0.3873 -0.6077 -0.3261
15353TIP3    H167550   5.111   5.223   3.249 -0.8705 -0.8326  0.5575
15353TIP3    H267551   5.225   5.268   3.338 -1.2036 -1.3166  1.2397
15354TIP3   OH267552   2.756   2.904  16.869  0.0145  0.3254 -0.1401
15354TIP3    H167553   2.821   2.910  16.938 -0.5319 -3.0933  0.8369
15354TIP3    H267554   2.678   2.947  16.905  0.0937 -0.3954  0.9257
15355TIP3   OH267555   1.710   3.503   0.641 -0.0355  0.5926  0.5864
15355TIP3    H167556   1.689   3.523   0.550  1.2106  1.2492  0.4215
15355TIP3    H267557   1.632   3.459   0.674  0.4746 -2.2579 -1.5859
15356TIP3   OH267558   5.918   4.475  13.781  0.7477 -0.1378  0.4503
15356TIP3    H167559   5.881   4.530  13.712  1.8714  0.0022 -0.0652
15356TIP3    H267560   6.012   4.478  13.766  0.9977 -0.3016  1.8541
15357TIP3   OH267561   0.267   0.187   4.560  0.1105 -0.0312  0.1329
15357TIP3    H167562   0.315   0.145   4.489  0.8985  1.5646 -0.3476
15357TIP3    H267563   0.295   0.141   4.639  3.3037  1.4196  0.0157
15358TIP3   OH267564   3.074   2.567   1.126 -0.2730 -0.5802  0.8651
15358TIP3    H167565   3.095   2.488   1.077  0.3145  0.2940 -0.3449
15358TIP3    H267566   2.978   2.570   1.126 -0.3010 -0.2494 -0.8655
15359TIP3   OH267567   5.380   4.227  14.397 -0.8061  0.3008 -0.3952
15359TIP3    H167568   5.298   4.223  14.348 -0.5527 -0.5184 -0.7613
15359TIP3    H267569   5.420   4.142  14.384  0.7272  1.1198 -1.2921
15360TIP3   OH267570   3.055   0.016  14.594  0.4469  0.0221  0.2973
15360TIP3    H167571   2.983   0.042  14.652  0.5833  2.0524 -0.3433
15360TIP3    H267572   3.104  -0.049  14.644  0.8143  1.9997  2.7222
15361TIP3   OH267573   4.191   1.920  15.637 -0.7395  0.6795  0.4067
15361TIP3    H167574   4.257   1.986  15.619 -0.9374  0.7236 -0.1877
15361TIP3    H267575   4.223   1.873  15.713  0.7020 -0.2518 -0.7297
15362TIP3   OH267576   1.265   5.776   1.492 -0.4592 -0.0490  0.1006
15362TIP3    H167577   1.219   5.856   1.467 -2.1571 -0.8328  0.5800
15362TIP3    H267578   1.257   5.719   1.415  1.5379  0.5041 -0.5959
15363TIP3   OH267579   3.412   6.309   0.208  0.1068 -0.4070 -0.2795
15363TIP3    H167580   3.336   6.260   0.177 -0.0946 -1.7950  2.1051
15363TIP3    H267581   3.452   6.251   0.274  2.4469  0.8514 -0.4822
15364TIP3   OH267582   4.377   1.092   5.587  0.8892  0.5083 -0.0863
15364TIP3    H167583   4.368   1.058   5.676  0.0833  1.5362  0.2520
15364TIP3    H267584   4.463   1.063   5.558  1.4321  0.6999  1.2676
15365TIP3   OH267585   4.356   3.056   4.738  0.2836 -0.2464  0.0980
15365TIP3    H167586   4.357   2.974   4.788 -1.3616  0.7491  1.9046
15365TIP3    H267587   4.267   3.062   4.703  0.4829  0.6291 -0.2907
15366TIP3   OH267588   4.880   0.241   0.743 -0.4284 -0.6760  0.0791
15366TIP3    H167589   4.821   0.166   0.750  1.0171 -1.7680  1.0167
15366TIP3    H267590   4.863   0.292   0.822 -0.2662 -0.8730  0.2408
15367TIP3   OH267591   6.766   1.937  11.968 -0.0222  0.2436  0.5136
15367TIP3    H167592   6.743   1.994  11.894  0.0402  1.0145  1.0795
15367TIP3    H267593   6.744   1.989  12.045  0.3397 -0.3850  1.0418
15368TIP3   OH267594   4.205   3.401   5.115 -0.1766 -0.1011  0.4076
15368TIP3    H167595   4.208   3.309   5.142  1.1522  0.4313  2.3197
15368TIP3    H267596   4.265   3.407   5.041  3.9056 -0.0011  3.3543
15369TIP3   OH267597   2.213   2.522   5.037  0.8707  0.0304  0.9341
15369TIP3    H167598   2.209   2.504   5.131  1.4108  0.2004  0.9946
15369TIP3    H267599   2.229   2.436   4.998 -2.2538 -0.5693  0.7265
15370TIP3   OH267600   3.614   4.200   6.097  0.1135  0.3129 -0.6924
15370TIP3    H167601   3.691   4.238   6.140  1.1098 -1.9452 -0.3318
15370TIP3    H267602   3.610   4.244   6.012 -0.0247  2.5974  0.4264
15371TIP3   OH267603   0.188   2.897   1.521 -0.0447  0.2474  0.2216
15371TIP3    H167604   0.188   2.965   1.588  0.2065 -0.2908  0.7881
15371TIP3    H267605   0.134   2.932   1.450 -1.9615  0.0870  1.5029
15372TIP3   OH267606   3.549   0.890   5.695  0.4773 -0.9439 -0.2441
15372TIP3    H167607   3.529   0.843   5.614 -2.7891 -1.8308  0.9368
15372TIP3    H267608   3.559   0.821   5.760 -2.2165 -0.2005  1.0885
15373TIP3   OH267609   0.025   5.820   5.059  0.6686 -0.1493 -0.2620
15373TIP3    H167610   0.031   5.786   5.149 -0.9072 -1.9256 -0.7674
15373TIP3    H267611   0.086   5.766   5.009 -0.4477 -1.0278 -0.7200
15374TIP3   OH267612   6.568   1.979   3.937  0.0369  0.0549 -0.0505
15374TIP3    H167613   6.481   1.977   3.979  1.1457  1.7517  2.6193
15374TIP3    H267614   6.569   2.061   3.888  0.5481  0.7104  1.0245
15375TIP3   OH267615   3.636   1.827   3.155 -0.1555  0.1639  0.6900
15375TIP3    H167616   3.562   1.797   3.102 -0.6391 -1.1483  2.0310
15375TIP3    H267617   3.713   1.801   3.105 -0.4844  2.9722 -1.5203
15376TIP3   OH267618   1.037   2.614  15.358  0.2588 -0.4838  0.1806
15376TIP3    H167619   1.087   2.561  15.421 -0.5977 -1.2407  0.2475
15376TIP3    H267620   1.068   2.703  15.372  0.1503 -0.6491  1.6256
15377TIP3   OH267621   3.694   0.663  11.828 -0.0212 -0.2232 -0.7932
15377TIP3    H167622   3.640   0.721  11.882  1.1788 -0.4321  0.7043
15377TIP3    H267623   3.635   0.594  11.799 -0.5420 -0.6078  1.0568
15378TIP3   OH267624   3.064   4.215   3.936  0.3351 -0.7947 -0.0638
15378TIP3    H167625   3.004   4.141   3.946 -0.0301 -0.3092  1.4635
15378TIP3    H267626   3.039   4.255   3.852 -0.3129 -1.6274 -0.2785
15379TIP3   OH267627   1.220   1.274  15.944  0.0799 -0.2870 -0.1538
15379TIP3    H167628   1.128   1.298  15.942 -0.0611 -0.7805  0.2518
15379TIP3    H267629   1.243   1.260  15.852  0.0038  0.7548 -0.3441
15380TIP3   OH267630   0.313   4.788   1.222  0.0129 -0.5737  0.0689
15380TIP3    H167631   0.338   4.833   1.303  1.0025  2.1192 -1.5763
15380TIP3    H267632   0.393   4.787   1.170 -1.4486  1.7306 -2.5155
15381TIP3   OH267633   2.860   2.269  17.323 -0.1146 -0.1851 -0.3017
15381TIP3    H167634   2.787   2.324  17.294 -0.6196 -1.0844 -0.7768
15381TIP3    H267635   2.887   2.307  17.406 -1.9237 -0.5559  0.5012
15382TIP3   OH267636   1.691   1.566   5.259 -0.6226 -0.1887 -0.4521
15382TIP3    H167637   1.698   1.631   5.329  0.2389 -1.1454  0.3729
15382TIP3    H267638   1.781   1.554   5.228 -0.9782  0.1646 -1.6917
15383TIP3   OH267639   5.368   1.240   3.136  0.0778  0.2128  0.6930
15383TIP3    H167640   5.348   1.283   3.053 -2.3805 -0.0591  1.0602
15383TIP3    H267641   5.414   1.160   3.111  2.0537  1.5542 -0.1698
15384TIP3   OH267642   0.288   2.077   2.789  0.3485 -0.0692 -0.1300
15384TIP3    H167643   0.222   2.118   2.734  0.3765 -1.3836 -1.1689
15384TIP3    H267644   0.254   1.990   2.807  1.4510 -0.5016 -0.0603
15385TIP3   OH267645   4.589   4.492  16.448  0.0966  0.1521  0.1217
15385TIP3    H167646   4.546   4.574  16.470 -1.8799 -1.1565  1.3773
15385TIP3    H267647   4.553   4.468  16.362 -0.0120  0.1312  0.1738
15386TIP3   OH267648   4.194   2.077  15.959  0.6258  0.4090 -0.5139
15386TIP3    H167649   4.212   2.025  16.038  0.2900 -0.9981 -1.3377
15386TIP3    H267650   4.102   2.104  15.969  0.6039  0.2916 -0.3886
15387TIP3   OH267651   3.869   0.566   3.949  0.7248 -0.2044 -0.0397
15387TIP3    H167652   3.855   0.538   3.858  0.4435 -0.2547  0.0166
15387TIP3    H267653   3.870   0.484   3.999  2.1639 -0.2814 -0.1493
15388TIP3   OH267654   4.096   2.624  13.298 -0.7685  0.3131 -0.3433
15388TIP3    H167655   4.143   2.673  13.366 -0.7662 -1.1474  0.7681
15388TIP3    H267656   4.092   2.535  13.333 -1.6678 -0.2476 -1.8315
15389TIP3   OH267657   2.633   5.410   3.762 -0.6611  0.3744 -0.0006
15389TIP3    H167658   2.729   5.412   3.756 -0.6096  0.6547  0.8083
15389TIP3    H267659   2.609   5.324   3.728  0.1105 -0.8754  2.3879
15390TIP3   OH267660   3.070   2.416  10.347 -0.1005  0.8284 -0.6781
15390TIP3    H167661   3.097   2.379  10.431 -1.5107  1.4172  0.0699
15390TIP3    H267662   3.110   2.359  10.281  0.6268  0.0673  0.3886
15391TIP3   OH267663   4.455   3.025  15.722 -0.5355  0.0839  0.6980
15391TIP3    H167664   4.452   3.113  15.760 -4.0241  1.4692 -2.2473
15391TIP3    H267665   4.510   3.034  15.645  1.2236 -1.1075  1.7313
15392TIP3   OH267666   4.406   2.445   0.346 -0.3327  1.1091 -0.3116
15392TIP3    H167667   4.361   2.361   0.359 -0.2025  0.6409 -2.4862
15392TIP3    H267668   4.353   2.508   0.394 -1.7509  0.1218 -0.5058
15393TIP3   OH267669   1.740   3.519  12.388  0.5748 -0.0900 -0.4610
15393TIP3    H167670   1.689   3.439  12.379 -0.4195  0.3992  0.6003
15393TIP3    H267671   1.675   3.588  12.402  1.4608  0.7654 -0.4269
15394TIP3   OH267672   6.461   3.086  14.141 -0.4562  0.0427 -0.0203
15394TIP3    H167673   6.557   3.096  14.145 -0.4302  0.1335 -0.8401
15394TIP3    H267674   6.438   3.050  14.227  0.0933  1.8070  0.9196
15395TIP3   OH267675   6.737   2.657  16.783 -0.3090  0.5765  0.3361
15395TIP3    H167676   6.750   2.609  16.865  1.0374  2.6405  1.4053
15395TIP3    H267677   6.803   2.620  16.723  1.3777  1.6573  1.4462
15396TIP3   OH267678   6.445   1.744   2.508 -0.0944 -0.0882  0.1886
15396TIP3    H167679   6.376   1.810   2.506 -1.3325 -1.3069  0.5907
15396TIP3    H267680   6.401   1.663   2.480  1.4636 -0.6733 -0.6965
15397TIP3   OH267681   2.103   5.110   3.854  0.0074 -0.6624 -0.6999
15397TIP3    H167682   2.095   5.197   3.894 -0.0947 -1.2810  0.7042
15397TIP3    H267683   2.183   5.115   3.802 -0.2440  0.4115 -1.0092
15398TIP3   OH267684   3.439   4.552   1.914 -0.3600 -0.0731  0.9639
15398TIP3    H167685   3.484   4.541   1.831  0.4587  2.8650  0.9256
15398TIP3    H267686   3.455   4.469   1.960  3.1851 -0.0759  0.0519
15399TIP3   OH267687   0.161   5.287   3.868  0.0075 -0.2859  0.1115
15399TIP3    H167688   0.255   5.288   3.888  0.2961  0.2621 -1.1635
15399TIP3    H267689   0.119   5.319   3.947  1.0450  1.2972  0.0525
15400TIP3   OH267690   5.221   5.110  13.759 -0.9208  0.8460 -0.3199
15400TIP3    H167691   5.195   5.157  13.680  0.3835 -1.3150 -2.1532
15400TIP3    H267692   5.301   5.063  13.734  0.7249  1.6366  2.9048
15401TIP3   OH267693   4.190   2.541  13.919  1.2093  0.0461 -0.2898
15401TIP3    H167694   4.159   2.506  13.835  1.9962  0.6274 -0.8333
15401TIP3    H267695   4.224   2.628  13.898  2.6851 -0.3384  0.3870
15402TIP3   OH267696   2.882   2.253   5.996  0.1258 -0.8531  0.0356
15402TIP3    H167697   2.872   2.255   6.091  1.8078 -1.7079  0.2803
15402TIP3    H267698   2.835   2.175   5.967 -1.7315  0.2477 -0.0767
15403TIP3   OH267699   2.823   1.656   2.314 -0.3738 -0.1123 -0.6739
15403TIP3    H167700   2.887   1.682   2.379  1.0466 -0.5482 -1.8432
15403TIP3    H267701   2.825   1.725   2.248  0.1806 -0.9451 -1.5670
15404TIP3   OH267702   0.689   3.361   3.804 -0.1812  0.3693  0.1939
15404TIP3    H167703   0.650   3.278   3.831 -0.3522  1.2495  2.9334
15404TIP3    H267704   0.749   3.337   3.734 -1.0950 -1.8881  0.0875
15405TIP3   OH267705   3.599   6.166   5.830 -0.0131 -0.3005 -0.3608
15405TIP3    H167706   3.617   6.210   5.914  1.4393 -2.3754  0.4790
15405TIP3    H267707   3.569   6.079   5.855  1.8903 -1.4896 -1.9775
15406TIP3   OH267708   2.571   6.663   2.911 -0.6523 -0.7434  0.4784
15406TIP3    H167709   2.645   6.709   2.951  0.6620 -1.2998 -1.1899
15406TIP3    H267710   2.504   6.661   2.979  0.1912  1.3641  1.4470
15407TIP3   OH267711   4.476   4.910  14.446 -0.1409 -0.2006  0.3951
15407TIP3    H167712   4.419   4.845  14.488 -0.0982 -0.8593 -0.5470
15407TIP3    H267713   4.562   4.895  14.487 -0.4013  0.1101  1.0763
15408TIP3   OH267714   6.685   6.350  14.384 -0.1960  0.2671  0.1083
15408TIP3    H167715   6.668   6.439  14.353 -1.9311 -0.3299 -0.8631
15408TIP3    H267716   6.711   6.303  14.305  1.4180  0.0515  0.7495
15409TIP3   OH267717   2.055   0.398   5.433 -0.1497  0.4412 -0.1406
15409TIP3    H167718   2.083   0.328   5.374 -1.9410 -0.7592  0.3568
15409TIP3    H267719   1.966   0.419   5.405 -0.7223  0.4359  1.5738
15410TIP3   OH267720   0.125   4.144  14.067  0.0933  0.5901 -0.0404
15410TIP3    H167721   0.045   4.185  14.100 -0.3084 -1.2609  1.4230
15410TIP3    H267722   0.116   4.051  14.088  2.5113  0.2757 -0.0505
15411TIP3   OH267723   4.153   0.477  13.286 -0.5875  0.2768  1.2264
15411TIP3    H167724   4.213   0.550  13.274 -3.0708  2.2401 -0.6401
15411TIP3    H267725   4.121   0.486  13.375  0.6113  0.2061  1.6787
15412TIP3   OH267726   4.470   0.194  13.729 -0.5743 -0.4159  0.2771
15412TIP3    H167727   4.414   0.217  13.654  1.0620  0.0898 -0.8612
15412TIP3    H267728   4.492   0.103  13.715  0.0366 -0.2168 -0.0734
15413TIP3   OH267729   5.274   4.878  16.769  0.0735  0.2084 -0.0343
15413TIP3    H167730   5.219   4.953  16.745 -0.2418 -0.1216 -0.3395
15413TIP3    H267731   5.321   4.908  16.848 -0.1101  0.6948 -0.1045
15414TIP3   OH267732   1.365   3.878   1.337 -0.0810 -0.0604 -0.3040
15414TIP3    H167733   1.445   3.929   1.326 -0.9069  0.9483 -1.8888
15414TIP3    H267734   1.308   3.934   1.390  0.3683 -0.9570  1.1992
15415TIP3   OH267735   1.215   0.108  12.891  0.3926 -0.4540 -0.2645
15415TIP3    H167736   1.153   0.080  12.823 -0.6893  1.4821 -0.1466
15415TIP3    H267737   1.296   0.061  12.870 -0.7613 -2.1432 -1.1292
15416TIP3   OH267738   6.606   6.686  16.407  0.5946 -0.0621  0.1525
15416TIP3    H167739   6.528   6.639  16.380 -0.0084  0.5951  0.7123
15416TIP3    H267740   6.639   6.725  16.326  0.0464  0.0832 -0.0055
15417TIP3   OH267741   0.095   0.831   0.288 -0.1197  0.0632 -0.4708
15417TIP3    H167742   0.171   0.867   0.243 -0.3181  0.0559 -0.8198
15417TIP3    H267743   0.114   0.738   0.299  1.2218  0.5671  2.1191
15418TIP3   OH267744   0.601   3.379  13.233 -0.6423  0.0536  0.1907
15418TIP3    H167745   0.665   3.373  13.161 -0.9763 -1.0490 -0.0239
15418TIP3    H267746   0.534   3.314  13.212 -2.3174  1.7772 -0.0303
15419TIP3   OH267747   6.655   4.603   4.472 -0.0263  0.5101 -0.8434
15419TIP3    H167748   6.628   4.596   4.381  1.0558 -1.2075 -1.0649
15419TIP3    H267749   6.703   4.686   4.476 -1.3070  1.3269 -1.4576
15420TIP3   OH267750   2.064   5.064   4.966 -0.1702 -0.6791  0.6091
15420TIP3    H167751   2.055   5.031   5.055  0.1246  2.1358  1.8012
15420TIP3    H267752   2.045   5.158   4.974 -0.9192 -0.4684 -2.4554
15421TIP3   OH267753   2.699   5.623  16.983  0.2107 -0.2317  0.5925
15421TIP3    H167754   2.729   5.533  16.996  0.1246 -0.3759 -0.1902
15421TIP3    H267755   2.779   5.676  16.992  0.5274 -0.5205 -0.3904
15422TIP3   OH267756   5.227   0.280  12.264  0.3355 -0.4940 -0.4176
15422TIP3    H167757   5.259   0.191  12.250 -0.8910 -0.8526 -1.1755
15422TIP3    H267758   5.145   0.284  12.213  1.6716  1.8670 -2.6535
15423TIP3   OH267759   3.200   2.375  13.590  0.0799  0.6964 -0.1885
15423TIP3    H167760   3.198   2.364  13.685 -2.3181 -2.6726 -0.4248
15423TIP3    H267761   3.135   2.443  13.572 -1.4517 -0.5067  0.5306
15424TIP3   OH267762   0.384   4.795  15.945  1.0176  0.0722 -0.1645
15424TIP3    H167763   0.478   4.800  15.926  0.9510  0.2037 -0.4658
15424TIP3    H267764   0.360   4.704  15.924  1.5006 -0.5831  1.9216
15425TIP3   OH267765   1.218   4.410  13.046  0.1293 -0.0620  0.0003
15425TIP3    H167766   1.308   4.440  13.056 -0.4393  1.6807  0.3292
15425TIP3    H267767   1.214   4.328  13.095  1.1634  0.6156  1.2754
15426TIP3   OH267768   1.143   3.305  10.741 -0.0972  1.0576  0.0260
15426TIP3    H167769   1.210   3.342  10.799 -0.2341  0.9304  0.2674
15426TIP3    H267770   1.154   3.352  10.659  1.9762 -0.6701 -0.7892
15427TIP3   OH267771   3.291   2.790   3.056  0.1854  0.2846 -0.3026
15427TIP3    H167772   3.221   2.848   3.088  0.4589  1.1903 -1.2718
15427TIP3    H267773   3.358   2.793   3.125 -1.4259 -2.0765  1.5523
15428TIP3   OH267774   6.362   6.411   4.080  0.6702  0.6983  0.0744
15428TIP3    H167775   6.406   6.442   4.159 -0.0769  1.3942  0.2335
15428TIP3    H267776   6.331   6.491   4.038 -1.2157  0.1826  0.4319
15429TIP3   OH267777   4.111   0.853   4.507  0.9246  0.8854 -0.2926
15429TIP3    H167778   4.169   0.790   4.552  0.8290  1.9437  1.4132
15429TIP3    H267779   4.171   0.916   4.467  1.0536  2.2595  1.8830
15430TIP3   OH267780   2.070   1.890  14.799 -0.7484  0.2764 -0.4863
15430TIP3    H167781   2.158   1.908  14.766 -0.9556  1.0723 -0.6201
15430TIP3    H267782   2.036   1.975  14.826 -0.2893 -0.3830  2.6224
15431TIP3   OH267783   5.017   6.666   3.557  0.3493  0.1566  0.4106
15431TIP3    H167784   5.002   6.757   3.530  1.4666  0.8265  1.9103
15431TIP3    H267785   5.036   6.620   3.476  0.9606  1.5249 -0.2646
15432TIP3   OH267786   4.072   3.559  15.542  0.0894  0.0233  0.1827
15432TIP3    H167787   4.031   3.472  15.543  0.1207  0.0071  1.0783
15432TIP3    H267788   4.160   3.543  15.505  0.0451 -0.3009  0.2120
15433TIP3   OH267789   1.983   1.275  17.063  0.3865 -0.0525  0.4229
15433TIP3    H167790   2.062   1.299  17.015  0.3802 -0.0994  0.3891
15433TIP3    H267791   2.014   1.240  17.146  0.3806  0.4228  0.6263
15434TIP3   OH267792   2.579   1.064   5.472 -0.4188  0.3798  0.1592
15434TIP3    H167793   2.660   1.046   5.520 -0.5600  1.1116  0.6900
15434TIP3    H267794   2.511   1.066   5.539 -1.0193 -0.9626 -0.3687
15435TIP3   OH267795   0.156   1.491   0.386 -0.4307  0.0271  0.4474
15435TIP3    H167796   0.248   1.500   0.358 -0.1385 -2.3574  0.4040
15435TIP3    H267797   0.161   1.481   0.481 -0.8506  1.7111  0.6747
15436TIP3   OH267798   3.865   0.818  11.653 -0.2982 -0.3964  0.5634
15436TIP3    H167799   3.787   0.812  11.709 -0.8036  1.0276  0.0376
15436TIP3    H267800   3.850   0.754  11.584 -2.3541  1.7066 -1.0982
15437TIP3   OH267801   2.126   6.132   5.694  0.4039 -0.5451  0.5016
15437TIP3    H167802   2.100   6.049   5.654  1.1754  0.5759 -2.6173
15437TIP3    H267803   2.064   6.196   5.658  1.1664  0.5559  1.1100
15438TIP3   OH267804   6.633   2.161  17.037  0.3524 -0.0336 -0.4999
15438TIP3    H167805   6.596   2.140  17.123  0.8323  1.5935  0.1457
15438TIP3    H267806   6.588   2.242  17.010  2.3540  1.2264 -0.3146
15439TIP3   OH267807   5.343   6.716   5.435  0.0195  0.0855  0.6201
15439TIP3    H167808   5.362   6.686   5.346 -1.9359  1.7241 -0.4402
15439TIP3    H267809   5.252   6.689   5.449 -0.1875  1.1902  1.5096
15440TIP3   OH267810   5.712   0.540   5.845 -0.4782 -0.2048 -0.1459
15440TIP3    H167811   5.710   0.452   5.805  1.5874 -0.9589  1.2567
15440TIP3    H267812   5.758   0.594   5.780 -0.9852 -0.3426 -0.6343
15441TIP3   OH267813   0.317   3.166   2.596 -0.0068  0.0287 -0.2018
15441TIP3    H167814   0.394   3.127   2.556  1.2734  2.9485 -0.8056
15441TIP3    H267815   0.305   3.249   2.550 -2.9643  0.1422  0.5356
15442TIP3   OH267816   4.969   0.661   0.307 -0.1879  0.5709 -0.1365
15442TIP3    H167817   4.954   0.588   0.246  1.5281  1.5652 -1.8444
15442TIP3    H267818   4.895   0.656   0.368 -0.3626 -2.3191 -0.4348
15443TIP3   OH267819   3.680   5.327   0.789  0.0537 -0.2615  0.0656
15443TIP3    H167820   3.686   5.232   0.781 -0.1680 -0.2885  0.2033
15443TIP3    H267821   3.731   5.361   0.716 -0.2049 -0.4900 -0.2249
15444TIP3   OH267822   5.539   4.312   0.400 -0.2380  0.0036  0.1160
15444TIP3    H167823   5.597   4.256   0.451  0.7436 -0.7426 -1.7065
15444TIP3    H267824   5.451   4.289   0.430  0.2947 -0.4038  1.4236
15445TIP3   OH267825   3.010   5.828   5.464  0.1769  0.1961  0.0793
15445TIP3    H167826   2.996   5.745   5.420 -0.8558 -0.4660  1.5935
15445TIP3    H267827   3.046   5.885   5.396 -0.8738 -0.9129 -1.4774
15446TIP3   OH267828   4.412   6.614   5.858 -0.5763  0.4807 -0.0992
15446TIP3    H167829   4.335   6.634   5.911 -1.3193 -0.6764 -0.6866
15446TIP3    H267830   4.451   6.699   5.838 -0.2058  0.9503  2.3427
15447TIP3   OH267831   4.746   6.320   0.404 -0.8922 -0.4708 -0.1488
15447TIP3    H167832   4.702   6.405   0.407  0.9370  0.4890  1.5209
15447TIP3    H267833   4.692   6.263   0.459  0.2568  0.9190  2.6198
15448TIP3   OH267834   4.091   2.129   5.199  0.5858 -0.4324 -0.0555
15448TIP3    H167835   4.180   2.157   5.221  0.7173  0.2277 -1.3226
15448TIP3    H267836   4.102   2.045   5.155  0.5560 -0.5165  0.0990
15449TIP3   OH267837   1.263   4.709   2.263  0.1800  0.6746 -0.1169
15449TIP3    H167838   1.279   4.659   2.183 -0.9488  0.3596 -0.1614
15449TIP3    H267839   1.274   4.800   2.237 -2.6905  0.7632 -1.3030
15450TIP3   OH267840   5.408   2.739  14.145  1.2724 -0.4849  0.6137
15450TIP3    H167841   5.485   2.793  14.128  0.3583  1.3571  1.9798
15450TIP3    H267842   5.356   2.748  14.065  2.1440 -1.2250 -0.0631
15451TIP3   OH267843   0.715   2.569  13.432 -0.1028  0.0385  0.0652
15451TIP3    H167844   0.790   2.526  13.473  0.2818 -1.3266 -1.9003
15451TIP3    H267845   0.643   2.506  13.443  0.1904 -0.7012 -1.8777
15452TIP3   OH267846   4.015   6.121  13.652 -0.1376 -0.8692 -0.1656
15452TIP3    H167847   4.016   6.136  13.558  0.6654 -0.2011 -0.0604
15452TIP3    H267848   3.998   6.027  13.661  0.2370 -1.0210 -0.9853
15453TIP3   OH267849   0.724   2.592   2.948 -0.0719  0.0723  0.5865
15453TIP3    H167850   0.782   2.521   2.919  1.3778  1.3398  0.2360
15453TIP3    H267851   0.714   2.648   2.871  0.4515  1.2913  1.3672
15454TIP3   OH267852   3.111   0.182   6.296  0.3512 -0.0464 -0.2939
15454TIP3    H167853   3.154   0.208   6.377  0.8962 -0.6803 -0.3765
15454TIP3    H267854   3.183   0.164   6.235  0.0037 -1.5316 -0.3037
15455TIP3   OH267855   3.641   5.263   4.273 -0.2036 -0.3062 -0.1059
15455TIP3    H167856   3.555   5.222   4.265 -0.7364 -0.0779  3.1171
15455TIP3    H267857   3.646   5.323   4.199 -2.0461 -1.6165 -1.3796
15456TIP3   OH267858   3.895   0.572   1.889  0.1737 -0.5657 -0.2447
15456TIP3    H167859   3.921   0.630   1.818  1.7331 -0.2047  0.5892
15456TIP3    H267860   3.895   0.484   1.849  0.5924 -0.3191 -0.8035
15457TIP3   OH267861   5.004   2.018   6.312 -0.4610  0.4375 -0.3427
15457TIP3    H167862   5.056   1.942   6.287 -1.1429 -0.2156  0.1920
15457TIP3    H267863   5.061   2.068   6.370 -0.2847 -0.0491 -0.0991
15458TIP3   OH267864   6.733   5.498   2.257 -0.4657 -0.1160  0.1969
15458TIP3    H167865   6.752   5.499   2.163  0.7831 -2.3945  0.3424
15458TIP3    H267866   6.690   5.414   2.271  1.4384 -0.8929  1.9637
15459TIP3   OH267867   5.887   6.772  14.188 -0.0566 -0.7426 -0.1414
15459TIP3    H167868   5.977   6.748  14.210  0.0058 -1.5943 -1.2350
15459TIP3    H267869   5.877   6.861  14.221  1.4347 -0.3524 -0.6571
15460TIP3   OH267870   6.052   4.828  11.993 -0.7172  0.1683 -0.1383
15460TIP3    H167871   6.139   4.787  11.998 -0.7980 -0.0253 -0.3129
15460TIP3    H267872   5.991   4.755  11.991 -0.9174  0.3135  0.5247
15461TIP3   OH267873   5.675   6.487   2.660 -0.0104 -0.4032  0.4001
15461TIP3    H167874   5.707   6.398   2.649 -1.0160 -0.8735  1.0947
15461TIP3    H267875   5.732   6.541   2.605  0.5024 -1.4938 -0.1522
15462TIP3   OH267876   4.690   1.818   0.626 -0.1704 -0.2509 -0.0132
15462TIP3    H167877   4.710   1.910   0.640 -0.9363 -0.3573  2.3206
15462TIP3    H267878   4.775   1.774   0.627  0.0722  0.0465  2.9889
15463TIP3   OH267879   2.046   2.102   5.223 -0.0508 -0.4297 -0.3524
15463TIP3    H167880   2.077   2.171   5.164 -0.4725 -0.2226 -0.3364
15463TIP3    H267881   1.985   2.051   5.170 -2.8465  1.5729  0.6987
15464TIP3   OH267882   3.004   5.282   1.113  0.1171 -0.0064 -0.3427
15464TIP3    H167883   2.940   5.348   1.139  0.3621  0.0599  0.0963
15464TIP3    H267884   3.058   5.269   1.190  0.8371  0.1712 -0.8079
15465TIP3   OH267885   1.123   6.516  10.583  0.0645  0.2677  0.2533
15465TIP3    H167886   1.172   6.538  10.504  0.6558  0.0922  0.5687
15465TIP3    H267887   1.174   6.552  10.655  0.2348 -0.7340  0.6563
15466TIP3   OH267888   3.836   4.044  17.131  0.3122 -0.6107  0.0836
15466TIP3    H167889   3.743   4.044  17.153  0.5316 -0.2030  1.0948
15466TIP3    H267890   3.878   4.091  17.204  1.0062  1.6911 -1.6598
15467TIP3   OH267891   3.122   3.928   1.306 -0.0408 -0.0099  0.8418
15467TIP3    H167892   3.175   3.888   1.375 -1.5808  0.0390  2.1122
15467TIP3    H267893   3.079   3.854   1.263  0.0522  0.0337  0.6739
15468TIP3   OH267894   1.609   6.145   4.428  0.3320  0.1927 -0.0197
15468TIP3    H167895   1.588   6.168   4.337 -1.1546  0.9588  0.4825
15468TIP3    H267896   1.543   6.081   4.453  1.1870 -0.5872  0.3130
15469TIP3   OH267897   2.656   3.447  16.141 -0.2571  1.0294 -0.0112
15469TIP3    H167898   2.704   3.464  16.060 -1.3483  2.5537 -0.3994
15469TIP3    H267899   2.714   3.393  16.193  0.6206  0.2976 -1.6751
15470TIP3   OH267900   3.240   1.548   1.650 -0.0730 -0.3784 -0.1840
15470TIP3    H167901   3.281   1.588   1.726 -0.8042 -0.3982  0.2335
15470TIP3    H267902   3.243   1.616   1.583 -2.7140  1.0394  0.9899
15471TIP3   OH267903   0.836   5.748  15.056  0.1599  0.8116 -0.0852
15471TIP3    H167904   0.765   5.685  15.068  1.2568 -0.4455  0.0300
15471TIP3    H267905   0.796   5.820  15.007 -0.5355 -1.1392 -2.5977
15472TIP3   OH267906   2.385   2.535   3.795  0.0608 -0.4092 -0.0535
15472TIP3    H167907   2.293   2.523   3.773  0.1991 -0.0474 -0.8646
15472TIP3    H267908   2.419   2.446   3.806 -0.4962 -0.5261  0.7344
15473TIP3   OH267909   3.286   1.002   3.230 -0.1307  0.7076 -0.1728
15473TIP3    H167910   3.196   1.000   3.263 -0.3007 -2.5327 -0.4755
15473TIP3    H267911   3.277   1.013   3.136 -0.3604 -1.0040 -0.3808
15474TIP3   OH267912   0.258   3.083   6.621  0.3163  0.0001 -0.1142
15474TIP3    H167913   0.189   3.037   6.670  2.1889 -0.7392  1.9758
15474TIP3    H267914   0.278   3.160   6.675  0.5092  0.7210 -1.1820
15475TIP3   OH267915   4.047   5.237  16.456 -0.8002 -0.0492  0.2948
15475TIP3    H167916   4.013   5.156  16.494  1.1655 -1.7903 -1.3996
15475TIP3    H267917   4.014   5.237  16.366  1.2792 -0.3407 -0.5068
15476TIP3   OH267918   3.622   5.482   0.112 -0.1579 -0.0790 -0.0330
15476TIP3    H167919   3.623   5.520   0.024 -2.0671  1.1882  0.4309
15476TIP3    H267920   3.691   5.530   0.159  0.9131 -0.8021 -0.8111
15477TIP3   OH267921   2.461   1.794   2.477 -0.0013  0.2014 -0.3057
15477TIP3    H167922   2.455   1.868   2.538  0.3535  0.3225 -0.4138
15477TIP3    H267923   2.371   1.782   2.444  0.0714  1.0831 -0.8661
15478TIP3   OH267924   4.343   0.711  16.746  0.5322  0.4983 -0.1843
15478TIP3    H167925   4.256   0.735  16.779  0.7292 -1.6952  2.2892
15478TIP3    H267926   4.381   0.794  16.716 -1.3723  1.9901  1.2538
15479TIP3   OH267927   3.562   4.855   1.096  0.0603  0.1840 -0.2768
15479TIP3    H167928   3.546   4.823   1.007 -1.4577 -0.2436  0.1258
15479TIP3    H267929   3.544   4.949   1.090 -2.6756 -0.2483  0.1158
15480TIP3   OH267930   3.506   4.322  12.784  0.4160  0.6046  0.2651
15480TIP3    H167931   3.478   4.323  12.692  0.7458  1.1391  0.1643
15480TIP3    H267932   3.497   4.231  12.811 -1.6471  0.7719  0.3099
15481TIP3   OH267933   4.529   6.101  15.341 -0.0529  0.4659  0.4437
15481TIP3    H167934   4.474   6.037  15.386  0.8229 -0.4736  0.2067
15481TIP3    H267935   4.551   6.165  15.409 -0.6628  0.3441  0.7648
15482TIP3   OH267936   2.868   0.367   6.432 -0.4815 -0.4104 -0.4006
15482TIP3    H167937   2.843   0.332   6.347 -1.8919  0.0355 -0.1982
15482TIP3    H267938   2.926   0.301   6.469 -0.3934 -0.9262 -1.4146
15483TIP3   OH267939   1.036   1.056  15.751  0.9254 -1.0576 -0.3992
15483TIP3    H167940   1.103   1.114  15.788 -0.2140  1.4240 -1.9792
15483TIP3    H267941   1.005   1.004  15.826  3.4773 -1.2003  0.6551
15484TIP3   OH267942   4.145   1.779  15.374  1.0582  0.3607 -0.1417
15484TIP3    H167943   4.226   1.791  15.323  1.4848  0.6005  0.5677
15484TIP3    H267944   4.175   1.749  15.459  0.3015 -0.7918 -0.2540
15485TIP3   OH267945   6.407   5.255  11.764  0.4894  0.0177  0.2924
15485TIP3    H167946   6.414   5.161  11.746 -0.4641 -0.2974  1.4770
15485TIP3    H267947   6.374   5.292  11.682 -1.2447 -1.0130  0.4738
15486TIP3   OH267948   4.572   1.121   3.049  0.0022  0.0153 -0.4029
15486TIP3    H167949   4.517   1.200   3.050  0.3722  0.3391  2.2800
15486TIP3    H267950   4.646   1.142   3.106  0.6523 -1.9406 -0.4349
15487TIP3   OH267951   2.160   2.764  14.101 -0.0724  0.0710  0.2466
15487TIP3    H167952   2.174   2.717  14.183 -2.0577 -2.5604 -0.7547
15487TIP3    H267953   2.237   2.819  14.091  3.3897 -4.1580  0.8369
15488TIP3   OH267954   2.438   2.886  16.121 -0.0082  0.3884  0.3724
15488TIP3    H167955   2.501   2.957  16.114  1.9047 -1.2034  0.8142
15488TIP3    H267956   2.367   2.911  16.062  1.0007  2.2518 -0.1104
15489TIP3   OH267957   4.795   3.470   0.038 -0.5891  0.4963 -0.0077
15489TIP3    H167958   4.872   3.472  -0.017 -0.3738  1.6917  0.3025
15489TIP3    H267959   4.811   3.399   0.100 -0.9114 -0.9726 -1.5493
15490TIP3   OH267960   3.071   2.216   2.372 -0.3665 -0.4750 -0.3028
15490TIP3    H167961   2.982   2.184   2.391  0.2298 -2.0586 -0.0461
15490TIP3    H267962   3.059   2.275   2.298 -1.8247  0.5113  0.6554
15491TIP3   OH267963   0.736   1.097   6.024 -0.4045 -0.1179  0.1096
15491TIP3    H167964   0.705   1.160   6.089 -0.9653  0.9304 -1.1097
15491TIP3    H267965   0.745   1.149   5.944  0.0362 -1.4132 -0.7085
15492TIP3   OH267966   5.522   2.702  13.755  0.7208 -0.0110 -0.1669
15492TIP3    H167967   5.570   2.635  13.803 -1.0214  0.1238  1.9229
15492TIP3    H267968   5.581   2.778  13.755  0.6264  0.1254  2.2321
15493TIP3   OH267969   3.032   1.852   3.319  0.6047 -0.6962  0.3626
15493TIP3    H167970   3.095   1.909   3.275  0.6823 -0.4513  0.7851
15493TIP3    H267971   3.006   1.901   3.397  2.4411 -2.1794  2.0195
15494TIP3   OH267972   1.109   6.698   3.622 -0.2125 -0.2068  0.0274
15494TIP3    H167973   1.072   6.758   3.558 -0.7979 -0.1514  0.4125
15494TIP3    H267974   1.034   6.669   3.674  0.2375 -0.3488  0.6084
15495TIP3   OH267975   5.230   2.668  10.841  0.4343 -0.3173 -0.4841
15495TIP3    H167976   5.276   2.633  10.764 -0.4305 -1.3799 -0.5423
15495TIP3    H267977   5.294   2.659  10.913  1.4359  1.1606 -1.1319
15496TIP3   OH267978   3.852   1.784   3.675 -0.1747 -0.3142 -0.3467
15496TIP3    H167979   3.858   1.757   3.767 -3.2744  0.4582  0.1981
15496TIP3    H267980   3.888   1.710   3.626  0.2606 -1.3326  1.4265
15497TIP3   OH267981   2.004   5.278   4.521  0.0900 -0.0420 -0.4590
15497TIP3    H167982   2.070   5.210   4.531 -0.2089 -0.1361  1.0614
15497TIP3    H267983   1.920   5.231   4.527 -0.1711  0.0273 -2.6718
15498TIP3   OH267984   3.456   4.764  11.040  0.5575 -0.0318  0.3594
15498TIP3    H167985   3.475   4.827  11.109  0.3299  1.8548 -1.2104
15498TIP3    H267986   3.466   4.813  10.959 -0.6009 -1.7708 -0.9233
15499TIP3   OH267987   3.641   5.113   3.216  0.1519 -1.0130  0.9700
15499TIP3    H167988   3.719   5.158   3.183  0.5757 -1.1701  1.7492
15499TIP3    H267989   3.647   5.025   3.178 -0.6572 -0.4735 -0.5227
15500TIP3   OH267990   4.242   5.879   1.931  0.1015  0.5176 -0.0058
15500TIP3    H167991   4.190   5.960   1.937 -1.2978 -0.3740  0.3270
15500TIP3    H267992   4.232   5.839   2.017  2.4077  0.9151  0.5049
15501TIP3   OH267993   1.169   5.159  15.331 -0.3367 -0.4074  0.0161
15501TIP3    H167994   1.138   5.076  15.368 -0.5754 -0.2372  0.1995
15501TIP3    H267995   1.257   5.169  15.367 -0.8139  0.0856  1.0911
15502TIP3   OH267996   4.914   4.257   4.568  0.1963  0.2887 -0.4828
15502TIP3    H167997   4.942   4.308   4.491 -0.4170  0.0789 -0.8482
15502TIP3    H267998   4.885   4.174   4.532 -1.3064  0.6538 -0.1672
15503TIP3   OH267999   3.614   3.093   0.089  0.5662  0.3164 -0.0366
15503TIP3    H168000   3.612   3.007   0.131 -0.8550  0.9900  1.3734
15503TIP3    H268001   3.540   3.091   0.028 -1.4873  1.5289  2.2387
15504TIP3   OH268002   5.010   2.108   0.376  0.4711  0.1832  0.1917
15504TIP3    H168003   4.965   2.148   0.301  0.6895 -1.2888 -0.7534
15504TIP3    H268004   5.083   2.059   0.337 -0.4382 -2.0535  1.1640
15505TIP3   OH268005   4.946   1.669  11.182  0.6549 -0.8325 -0.0146
15505TIP3    H168006   4.869   1.651  11.237 -0.3390  3.7961  0.4811
15505TIP3    H268007   5.020   1.668  11.243  0.2213 -0.2437  0.5316
15506TIP3   OH268008   0.758   6.504  15.857 -0.0273  0.0952  0.0858
15506TIP3    H168009   0.832   6.539  15.807  0.9834 -2.1657 -0.1301
15506TIP3    H268010   0.778   6.528  15.948  1.2086 -0.7722  0.0752
15507TIP3   OH268011   3.454   5.245  17.296 -0.0436  0.4452  0.1288
15507TIP3    H168012   3.393   5.306  17.338  1.5680  1.4806  1.0656
15507TIP3    H268013   3.492   5.195  17.368 -0.7399 -1.1661 -0.5596
15508TIP3   OH268014   6.194   0.365   4.487 -0.4068 -0.7188  0.0325
15508TIP3    H168015   6.243   0.399   4.412 -1.1255 -0.2712 -0.2477
15508TIP3    H268016   6.102   0.370   4.460 -0.5995 -1.8364  0.4284
15509TIP3   OH268017   4.602   2.644  14.867  0.3501 -0.2956  0.1691
15509TIP3    H168018   4.556   2.657  14.784 -2.2719 -2.2162  1.1663
15509TIP3    H268019   4.607   2.731  14.906  1.2935  0.5847 -1.7557
15510TIP3   OH268020   3.079   3.560  10.754  0.5853  0.5991  0.8998
15510TIP3    H168021   3.026   3.490  10.715 -0.8300  1.6996  0.7627
15510TIP3    H268022   3.158   3.516  10.785 -0.0954 -0.9865  0.4822
15511TIP3   OH268023   3.514   5.639   4.253 -0.2201 -0.1876 -0.3028
15511TIP3    H168024   3.466   5.722   4.253  0.1156  0.0116  0.3917
15511TIP3    H268025   3.470   5.586   4.186 -1.1268  0.1421  0.0209
15512TIP3   OH268026   3.729   1.832   0.688  0.2598 -0.0552 -0.1655
15512TIP3    H168027   3.724   1.749   0.641  1.2389 -0.9105  1.1591
15512TIP3    H268028   3.639   1.853   0.710  0.0273 -0.9607 -0.2181
15513TIP3   OH268029   3.698   1.440   3.095  0.3130 -0.2762 -0.0350
15513TIP3    H168030   3.653   1.359   3.120 -0.4647 -0.8596 -2.9495
15513TIP3    H268031   3.648   1.474   3.021  2.4372  1.2016 -0.9123
15514TIP3   OH268032   6.097   1.747   2.420  0.7758 -0.0520 -0.0009
15514TIP3    H168033   6.078   1.687   2.492  0.2583 -0.9097 -0.8329
15514TIP3    H268034   6.163   1.806   2.455 -0.8146  0.7669  1.8173
15515TIP3   OH268035   6.266   0.292   1.681  0.1124  0.3629 -0.3578
15515TIP3    H168036   6.317   0.322   1.756 -0.9525  0.7155  0.2536
15515TIP3    H268037   6.263   0.197   1.689 -1.3955  0.4785  1.0417
15516TIP3   OH268038   6.760   0.312  11.936  0.3680  0.6299  0.1833
15516TIP3    H168039   6.834   0.373  11.928 -0.0409  1.1774  0.5135
15516TIP3    H268040   6.799   0.231  11.970  0.7452  1.0641  0.8023
15517TIP3   OH268041   1.894   6.379  15.335 -0.0999 -0.0116  0.0202
15517TIP3    H168042   1.845   6.443  15.284 -1.2214  0.1697  1.2710
15517TIP3    H268043   1.827   6.319  15.370  0.4906  0.4240  2.0261
15518TIP3   OH268044   2.036   4.026   4.705 -0.2026  0.3665 -0.1886
15518TIP3    H168045   1.971   4.096   4.700  0.7375  1.2353 -0.4499
15518TIP3    H268046   2.087   4.035   4.625  0.6238  0.0856  0.3031
15519TIP3   OH268047   6.298   5.055  13.574  0.2179  0.8649 -0.2473
15519TIP3    H168048   6.212   5.014  13.579  1.3062 -1.7125 -1.0107
15519TIP3    H268049   6.284   5.133  13.520 -2.0248  1.8662  1.6154
15520TIP3   OH268050   5.643   1.879   2.636 -0.3445 -0.4704  0.0018
15520TIP3    H168051   5.655   1.842   2.548 -2.9380  1.1778 -1.1753
15520TIP3    H268052   5.722   1.930   2.652 -0.1869 -0.0773 -1.7855
15521TIP3   OH268053   3.329   1.040   0.385  0.0316 -0.6873 -0.2226
15521TIP3    H168054   3.242   1.080   0.395  0.1367 -0.2432 -1.0148
15521TIP3    H268055   3.313   0.946   0.388 -0.7224 -0.6626 -2.0571
15522TIP3   OH268056   5.815   0.155   4.620 -0.1273 -0.5802 -0.3908
15522TIP3    H168057   5.892   0.123   4.572  2.0222 -0.0227  2.4130
15522TIP3    H268058   5.818   0.250   4.611 -0.1937 -0.5257  0.1303
15523TIP3   OH268059   2.356   6.383   0.112  0.2732 -0.0918  0.5369
15523TIP3    H168060   2.438   6.350   0.076  0.2380 -0.4184  0.7585
15523TIP3    H268061   2.332   6.321   0.180  0.3429  0.5277  1.1379
15524TIP3   OH268062   4.241   6.057  12.235  0.2571  0.2052  0.9544
15524TIP3    H168063   4.256   6.151  12.235  1.1897  0.0852 -0.1257
15524TIP3    H268064   4.257   6.030  12.145  1.0107 -1.1225  1.4436
15525TIP3   OH268065   0.430   5.197  11.344 -0.3162  0.5078  0.1115
15525TIP3    H168066   0.392   5.132  11.403  2.6372 -2.3291 -0.7904
15525TIP3    H268067   0.436   5.153  11.260 -0.8985  3.0893 -1.4040
15526TIP3   OH268068   4.399   1.915   3.573  0.0387  0.6954 -0.1138
15526TIP3    H168069   4.336   1.845   3.588 -0.5961  1.1555 -0.6144
15526TIP3    H268070   4.412   1.917   3.478  0.0068  1.2904 -0.1132
15527TIP3   OH268071   4.015   1.867  16.815 -1.0164  0.7796  0.1703
15527TIP3    H168072   3.969   1.792  16.777 -1.0617  1.1426 -0.5202
15527TIP3    H268073   4.108   1.848  16.799 -1.0285  0.8722 -0.0128
15528TIP3   OH268074   0.252   4.458   0.959 -0.5202 -0.8134  0.2814
15528TIP3    H168075   0.228   4.370   0.932  2.7872 -0.8161 -3.6634
15528TIP3    H268076   0.190   4.515   0.913 -1.8095 -0.9465  1.7675
15529TIP3   OH268077   5.933   5.654   0.214  0.0044 -0.3045 -0.0581
15529TIP3    H168078   5.982   5.603   0.150 -1.8574 -1.2279 -0.8163
15529TIP3    H268079   5.851   5.676   0.170 -0.5576  0.6427  1.3790
15530TIP3   OH268080   3.814   1.616  16.982 -0.6517 -0.2366 -0.5602
15530TIP3    H168081   3.852   1.637  17.067  1.7845 -0.2806 -1.5744
15530TIP3    H268082   3.789   1.524  16.988 -0.5194 -0.2306  0.0930
15531TIP3   OH268083   1.524   0.207  13.685 -0.2016  0.1155 -0.4168
15531TIP3    H168084   1.538   0.294  13.723  2.7488 -0.6364  0.5479
15531TIP3    H268085   1.560   0.214  13.596  0.2120 -0.1525 -0.2714
15532TIP3   OH268086   3.497   4.408   4.704  0.3961  0.2123 -0.2911
15532TIP3    H168087   3.529   4.327   4.664 -0.8904  0.3831 -1.7306
15532TIP3    H268088   3.420   4.431   4.653 -0.7249  1.0105  1.6556
15533TIP3   OH268089   5.793   6.546  14.084 -0.2926 -1.1892  0.3933
15533TIP3    H168090   5.851   6.551  14.008 -0.9140 -1.2254 -0.0876
15533TIP3    H268091   5.801   6.632  14.125 -3.4215  0.6312 -2.3181
15534TIP3   OH268092   1.858   5.699   3.228 -0.2028  0.0345 -0.4604
15534TIP3    H168093   1.837   5.624   3.173 -0.5536  0.0152 -0.3001
15534TIP3    H268094   1.874   5.770   3.167  0.3800 -0.2307 -0.6248
15535TIP3   OH268095   5.582   5.560  16.448  0.3372 -0.1481 -0.2387
15535TIP3    H168096   5.603   5.653  16.459  0.5985 -0.1784 -0.4994
15535TIP3    H268097   5.496   5.560  16.406 -0.9482 -0.0168  2.1689
15536TIP3   OH268098   4.202   5.105   5.735  0.2730 -0.0999  0.5701
15536TIP3    H168099   4.168   5.178   5.787  0.1146  0.3024 -0.0817
15536TIP3    H268100   4.297   5.111   5.744  0.4924  2.0018 -1.7757
15537TIP3   OH268101   1.076   1.187   2.200  0.3622 -0.4928 -0.0559
15537TIP3    H168102   1.111   1.103   2.230  4.9481  1.1941  0.1411
15537TIP3    H268103   1.109   1.197   2.111 -0.5620  0.8941 -0.2812
15538TIP3   OH268104   3.451   5.891  13.529  0.4827 -0.3901  0.2712
15538TIP3    H168105   3.449   5.799  13.555  0.6441 -0.4305  0.1415
15538TIP3    H268106   3.359   5.916  13.525  0.3882 -0.8255 -0.6798
15539TIP3   OH268107   2.071   3.566  15.504 -0.0719 -0.0536 -0.1661
15539TIP3    H168108   2.023   3.612  15.574  1.0816  0.7084  0.1430
15539TIP3    H268109   2.009   3.499  15.474 -1.5684  1.2702 -0.1989
15540TIP3   OH268110   2.928   6.210   4.984  0.0716 -0.3516  0.4217
15540TIP3    H168111   2.874   6.148   5.033 -0.2490  0.3014  0.9072
15540TIP3    H268112   3.002   6.229   5.042  0.8997 -1.3262 -0.2830
15541TIP3   OH268113   2.114   2.829  15.850 -0.1702 -0.4581  0.2986
15541TIP3    H168114   2.185   2.792  15.797  1.0658  0.0737  1.5298
15541TIP3    H268115   2.135   2.803  15.940 -1.1402  0.3273  0.7680
15542TIP3   OH268116   0.781   2.714   6.080 -0.4316  0.3988  0.0701
15542TIP3    H168117   0.691   2.742   6.069 -0.4673  0.4274  0.4092
15542TIP3    H268118   0.797   2.653   6.008 -1.4825 -1.4805  1.3447
15543TIP3   OH268119   5.227   5.552  12.357 -0.0279  0.1900 -0.3685
15543TIP3    H168120   5.196   5.639  12.332 -0.7371 -0.0464 -0.3284
15543TIP3    H268121   5.304   5.537  12.302  0.8385  1.3290  0.4724
15544TIP3   OH268122   1.351   3.401  16.531 -0.3312 -0.1712 -0.8315
15544TIP3    H168123   1.382   3.482  16.571 -1.6141  0.9254 -1.9250
15544TIP3    H268124   1.273   3.378  16.582  0.1492 -0.8412 -0.3930
15545TIP3   OH268125   2.670   2.794  15.416 -0.0010  0.1790 -0.3874
15545TIP3    H168126   2.591   2.834  15.379  0.5230  0.5954 -1.0748
15545TIP3    H268127   2.708   2.745  15.344 -0.1797 -0.9029  0.2263
15546TIP3   OH268128   1.613   3.635   0.396 -0.0793 -0.2968 -0.3308
15546TIP3    H168129   1.577   3.723   0.407 -1.8673 -1.2185  1.8337
15546TIP3    H268130   1.681   3.646   0.329 -0.5253  2.6246 -0.4536
15547TIP3   OH268131   5.932   6.559   1.152 -0.0455  0.2248  0.0085
15547TIP3    H168132   6.004   6.511   1.111  0.4357 -0.4813  1.6011
15547TIP3    H268133   5.873   6.580   1.080  0.7347 -0.9974 -1.0288
15548TIP3   OH268134   4.056   0.601  10.359  0.7931 -0.0161  0.6139
15548TIP3    H168135   4.147   0.601  10.329  0.2297 -2.7971 -1.4369
15548TIP3    H268136   4.047   0.520  10.408 -0.8570 -0.3597 -0.2079
15549TIP3   OH268137   3.533   6.129   5.165  0.0445 -0.3593  0.0798
15549TIP3    H168138   3.542   6.120   5.260  1.1665  1.0819  0.1443
15549TIP3    H268139   3.611   6.087   5.129  1.1311  1.6312 -0.0144
15550TIP3   OH268140   3.279   5.573  13.635 -0.5418  0.3889  0.1625
15550TIP3    H168141   3.264   5.479  13.641 -0.9930  0.5245  1.9430
15550TIP3    H268142   3.371   5.581  13.608 -0.9500 -0.5147 -1.6359
15551TIP3   OH268143   1.198   0.619   6.455 -0.3928 -0.1111  0.4249
15551TIP3    H168144   1.219   0.648   6.366  2.2687 -2.1303  0.2802
15551TIP3    H268145   1.145   0.540   6.442  1.7897 -1.6647  0.4825
15552TIP3   OH268146   2.976   4.600  11.743  0.6967  0.8908 -0.3482
15552TIP3    H168147   3.062   4.586  11.783 -0.0051  1.1392  1.3204
15552TIP3    H268148   2.972   4.535  11.673  2.2043  0.8247 -0.4128
15553TIP3   OH268149   3.221   1.503  14.472  0.0012 -0.0762  0.0091
15553TIP3    H168150   3.140   1.552  14.455  0.2462  0.0667 -0.7800
15553TIP3    H268151   3.210   1.470  14.561 -1.2520 -0.6664 -0.3382
15554TIP3   OH268152   4.496   0.987  11.023 -0.1006 -0.8506  0.2125
15554TIP3    H168153   4.516   1.062  10.967 -0.5467 -0.6015  0.3807
15554TIP3    H268154   4.485   0.914  10.962 -0.0233 -0.7018  0.0203
15555TIP3   OH268155   3.359   3.018   1.324  0.2428  0.1804  0.1121
15555TIP3    H168156   3.413   3.083   1.369  0.3378 -0.1989  0.5560
15555TIP3    H268157   3.320   2.966   1.395 -1.2719  0.8826 -0.1572
15556TIP3   OH268158   5.359   0.976  13.236 -0.2684 -0.8617 -0.2475
15556TIP3    H168159   5.319   0.892  13.258 -1.7404 -0.1741 -0.1403
15556TIP3    H268160   5.298   1.016  13.173  0.2578  0.2289 -0.0915
15557TIP3   OH268161   5.228   5.357  14.884  0.0043  0.2381  0.3349
15557TIP3    H168162   5.191   5.442  14.907  0.1621  0.4827 -0.2907
15557TIP3    H268163   5.288   5.337  14.956  0.2423  0.8325  0.3110
15558TIP3   OH268164   3.390   4.564  13.202  0.5428 -0.1383  0.0725
15558TIP3    H168165   3.410   4.483  13.248  0.5736 -0.1969 -0.0429
15558TIP3    H268166   3.394   4.540  13.109 -1.0476 -0.4142  0.0335
15559TIP3   OH268167   1.411   6.109  15.467  0.3378 -0.0811 -0.8341
15559TIP3    H168168   1.370   6.042  15.521  0.4153  0.6775  0.1965
15559TIP3    H268169   1.350   6.182  15.468  1.3407  0.7866  0.1124
15560TIP3   OH268170   0.315   2.137   0.755  0.2837  0.4682  0.0321
15560TIP3    H168171   0.385   2.078   0.726 -0.3179  0.3885 -1.3638
15560TIP3    H268172   0.282   2.099   0.835  2.2045  0.8125  1.0445
15561TIP3   OH268173   6.494   0.414  16.028 -1.0700 -0.0102 -0.6851
15561TIP3    H168174   6.451   0.329  16.029 -4.0106  1.3464 -0.2496
15561TIP3    H268175   6.430   0.472  15.987  1.3484  1.7844 -2.1215
15562TIP3   OH268176   0.111   4.030  16.045  0.6537  0.0734  0.1563
15562TIP3    H168177   0.068   4.113  16.067 -1.8461 -0.8932 -0.7723
15562TIP3    H268178   0.072   3.966  16.104  1.1254 -0.7956 -0.4505
15563TIP3   OH268179   2.470   4.040   4.208 -0.2189 -0.5266  0.2754
15563TIP3    H168180   2.459   4.072   4.297 -1.7496  0.7291 -0.3169
15563TIP3    H268181   2.535   4.098   4.169  0.2724 -0.9263  0.4863
15564TIP3   OH268182   6.489   5.268   1.840 -0.1778 -0.3025  0.1350
15564TIP3    H168183   6.468   5.182   1.879  3.0834 -0.1175  2.8047
15564TIP3    H268184   6.532   5.247   1.757  1.1207 -1.3995  1.0287
15565TIP3   OH268185   6.281   0.304  16.719 -0.4006  0.5626  0.3982
15565TIP3    H168186   6.355   0.284  16.662 -1.6076  2.2964 -1.9476
15565TIP3    H268187   6.225   0.227  16.712 -0.0186  0.3061  0.1219
15566TIP3   OH268188   5.398   5.320   3.066 -0.0858 -0.1996  0.7586
15566TIP3    H168189   5.340   5.395   3.064 -1.5811 -1.1864  2.9128
15566TIP3    H268190   5.362   5.258   3.002  0.3569  0.3451 -0.0317
15567TIP3   OH268191   6.338   6.308  12.882 -0.5782  0.5519  1.0017
15567TIP3    H168192   6.406   6.261  12.932 -0.6488  1.0802  1.6120
15567TIP3    H268193   6.383   6.385  12.849 -0.4777  0.0945  0.0458
15568TIP3   OH268194   2.150   2.520  11.946  0.1040 -0.0315 -0.4835
15568TIP3    H168195   2.159   2.449  12.010  1.6564 -0.2919 -0.9520
15568TIP3    H268196   2.193   2.595  11.987  1.7486 -0.3904 -1.4622
15569TIP3   OH268197   1.301   5.372  14.867 -0.2039 -0.5685 -0.6078
15569TIP3    H168198   1.335   5.436  14.804 -2.6934  1.3355 -0.1818
15569TIP3    H268199   1.340   5.397  14.950 -0.8888  0.2438 -0.5103
15570TIP3   OH268200   2.880   4.133  16.652  0.2597 -0.1894 -0.3415
15570TIP3    H168201   2.965   4.094  16.672  0.2943 -0.5908 -1.2431
15570TIP3    H268202   2.887   4.224  16.682  1.1048 -0.1469 -0.6593
15571TIP3   OH268203   6.639   0.557   4.860 -0.1413  0.2702 -0.0505
15571TIP3    H168204   6.663   0.481   4.913 -2.6094  0.4927  1.5881
15571TIP3    H268205   6.655   0.530   4.770  0.0411 -1.8063  0.5466
15572TIP3   OH268206   6.313   3.202   2.608 -0.3825 -0.2403  0.2508
15572TIP3    H168207   6.236   3.151   2.581  0.6514 -2.6571  1.5066
15572TIP3    H268208   6.283   3.254   2.682 -0.8538 -1.1881  0.7484
15573TIP3   OH268209   0.675   3.020  13.324  0.0735  0.3486 -0.9356
15573TIP3    H168210   0.584   2.991  13.315  0.1445 -0.9878  1.7858
15573TIP3    H268211   0.727   2.946  13.293  0.2461  0.6145 -1.2845
15574TIP3   OH268212   5.800   2.021   5.611 -0.5842  0.5390 -0.3665
15574TIP3    H168213   5.784   1.946   5.555 -2.6401  0.6122  0.0406
15574TIP3    H268214   5.714   2.063   5.620  0.5794  3.2623 -1.0298
15575TIP3   OH268215   6.231   2.784  10.852  1.0646 -0.5044 -0.2748
15575TIP3    H168216   6.253   2.693  10.875  1.6569 -0.3370 -0.1526
15575TIP3    H268217   6.136   2.786  10.850  0.9999 -0.7278  1.3707
15576TIP3   OH268218   4.420   4.871   3.267  0.1601 -0.6341 -0.0645
15576TIP3    H168219   4.455   4.833   3.186 -1.0125  1.2599 -1.5559
15576TIP3    H268220   4.497   4.901   3.315  0.8704 -1.5714 -0.5806
15577TIP3   OH268221   0.737   3.011  13.764 -0.0968 -0.4265  0.1172
15577TIP3    H168222   0.787   2.958  13.702 -1.2815 -0.2880 -1.0095
15577TIP3    H268223   0.663   2.955  13.790  0.1501 -0.3214  1.0776
15578TIP3   OH268224   6.647   2.348   5.337  0.3418 -0.1625 -0.5872
15578TIP3    H168225   6.579   2.329   5.401 -0.9920  1.0726 -1.5868
15578TIP3    H268226   6.653   2.268   5.284  0.0926 -0.4907 -0.1287
15579TIP3   OH268227   1.704   1.908  16.600  0.4292 -0.4041  0.1405
15579TIP3    H168228   1.694   1.854  16.678  0.5970  0.7679  0.9940
15579TIP3    H268229   1.788   1.879  16.562  1.4532  0.4916  1.6117
15580TIP3   OH268230   0.844   0.531   4.509  0.1262 -0.3643  0.3443
15580TIP3    H168231   0.782   0.589   4.552  1.1733  1.2882 -0.2755
15580TIP3    H268232   0.840   0.450   4.559 -2.6898 -0.4293  0.1696
15581TIP3   OH268233   2.694   5.541   3.032 -0.3172 -0.6408  0.2804
15581TIP3    H168234   2.727   5.625   3.064  4.2482 -2.5618  1.4105
15581TIP3    H268235   2.689   5.486   3.110  0.1779 -2.3719 -0.8620
15582TIP3   OH268236   6.128   1.634  16.892 -0.3756 -0.0459 -0.0656
15582TIP3    H168237   6.107   1.688  16.968 -3.1153  0.7323 -1.2220
15582TIP3    H268238   6.149   1.697  16.823  1.1989 -0.6976 -0.2055
15583TIP3   OH268239   1.479   1.478   6.153 -0.2949 -0.4242 -0.2243
15583TIP3    H168240   1.477   1.474   6.249  1.5609  1.5556 -0.0225
15583TIP3    H268241   1.552   1.423   6.128 -0.9264 -1.1323 -0.5451
15584TIP3   OH268242   3.242   3.624  14.949 -0.1652 -0.4123 -0.2060
15584TIP3    H168243   3.207   3.679  15.019  0.2702  2.5470 -2.1411
15584TIP3    H268244   3.184   3.548  14.947 -2.4560  1.1801  0.9563
15585TIP3   OH268245   6.021   6.479  13.548 -0.3148  0.0754 -1.0224
15585TIP3    H168246   5.991   6.528  13.471 -0.4305 -0.3023 -1.2190
15585TIP3    H268247   6.031   6.389  13.517 -1.3041 -0.2792 -0.3605
15586TIP3   OH268248   6.597   3.670  12.884  0.1503 -0.1801 -0.0413
15586TIP3    H168249   6.575   3.589  12.838 -0.4078  0.0112 -0.1149
15586TIP3    H268250   6.657   3.715  12.824 -0.6273  0.1012 -0.6280
15587TIP3   OH268251   4.654   5.321   2.379 -0.2687  0.3987 -0.3047
15587TIP3    H168252   4.647   5.408   2.341 -0.8375  0.3007 -0.4234
15587TIP3    H268253   4.609   5.328   2.464  1.7080  0.8466  0.7677
15588TIP3   OH268254   1.474   1.953  11.660 -0.4066  0.4165 -0.1134
15588TIP3    H168255   1.405   1.888  11.679  0.5671 -0.8191 -0.6770
15588TIP3    H268256   1.542   1.903  11.616  0.4750  1.8079 -0.3748
15589TIP3   OH268257   3.376   5.259  11.989 -0.8264 -0.2767  0.2036
15589TIP3    H168258   3.321   5.337  11.993 -1.2160 -0.4683 -1.0466
15589TIP3    H268259   3.445   5.275  12.054 -0.0562  1.7650 -1.0241
15590TIP3   OH268260   1.758   0.482   3.944  0.0940 -0.1730  0.2105
15590TIP3    H168261   1.730   0.408   3.890 -0.0015 -0.9971  1.3610
15590TIP3    H268262   1.727   0.461   4.032 -0.0592  1.3114  0.5353
15591TIP3   OH268263   3.707   1.270  16.079 -0.6366  0.0435  0.4385
15591TIP3    H168264   3.632   1.280  16.137 -0.2634  2.2886  0.6066
15591TIP3    H268265   3.691   1.332  16.008  1.2425  0.9056  0.7120
15592TIP3   OH268266   3.220   1.624  16.509  0.1310  0.2336  0.1668
15592TIP3    H168267   3.208   1.701  16.454  2.3625  0.7974  0.3925
15592TIP3    H268268   3.192   1.653  16.596  0.2441  0.5582  0.0982
15593TIP3   OH268269   1.401   4.206  15.774 -0.2420 -0.3146 -0.3978
15593TIP3    H168270   1.377   4.135  15.713  0.0694 -0.2433 -0.6075
15593TIP3    H268271   1.436   4.160  15.850 -1.4210 -0.4355  0.0875
15594TIP3   OH268272   1.179   3.196  11.429 -0.2611  1.0715 -0.4578
15594TIP3    H168273   1.144   3.234  11.510  2.3152  1.8103  0.4026
15594TIP3    H268274   1.119   3.226  11.360 -1.5463  1.8303  0.9327
15595TIP3   OH268275   5.138   3.454   1.991 -0.2490  0.4168 -0.1426
15595TIP3    H168276   5.198   3.458   1.916  1.0143  0.0069  0.7911
15595TIP3    H268277   5.051   3.464   1.953  0.3362  0.0408 -1.6827
15596TIP3   OH268278   0.005   1.008   4.538 -0.0877  0.4127  0.1290
15596TIP3    H168279  -0.022   0.916   4.544 -2.1602  0.8426 -1.3297
15596TIP3    H268280   0.096   1.009   4.566  0.2369 -2.2221 -0.6313
15597TIP3   OH268281   6.242   0.744   2.869 -0.5739  0.4883 -0.5895
15597TIP3    H168282   6.328   0.714   2.899 -0.3495 -0.4607 -2.0526
15597TIP3    H268283   6.214   0.808   2.934  1.1330  0.6286  0.0450
15598TIP3   OH268284   4.595   6.038   0.900 -0.4322  0.5132  0.1678
15598TIP3    H168285   4.681   5.999   0.916 -0.6093 -0.4994 -1.1881
15598TIP3    H268286   4.614   6.122   0.858 -0.0871 -0.2032 -1.1598
15599TIP3   OH268287   4.694   3.168   5.536 -0.3470 -0.4476 -0.0261
15599TIP3    H168288   4.750   3.091   5.545  0.7583  0.4560  1.2816
15599TIP3    H268289   4.739   3.237   5.586 -1.1557  1.1299 -1.3482
15600TIP3   OH268290   4.714   2.644  11.387 -0.2064  0.2843  0.4695
15600TIP3    H168291   4.634   2.649  11.439  0.2607  2.4343  1.0917
15600TIP3    H268292   4.741   2.736  11.376  1.2594 -0.2885 -1.1496
15601TIP3   OH268293   5.866   4.697   0.643  0.3306  1.2689 -0.5626
15601TIP3    H168294   5.935   4.655   0.694 -0.4457  0.7345  0.0810
15601TIP3    H268295   5.909   4.772   0.601  1.7781 -0.2197 -1.8452
15602TIP3   OH268296   5.975   2.884   5.943  0.0786 -0.0374  0.9349
15602TIP3    H168297   5.965   2.873   6.038 -0.1685 -4.9314  0.6065
15602TIP3    H268298   6.070   2.886   5.929  0.1189  1.6416  1.2731
15603TIP3   OH268299   3.249   6.065  13.954  0.4400  0.2818  0.0372
15603TIP3    H168300   3.325   6.019  13.920  0.6792  0.0827  0.8236
15603TIP3    H268301   3.180   6.048  13.890  1.4665  1.9007 -1.6169
15604TIP3   OH268302   6.300   4.906  13.179  0.3990 -1.0587 -0.0452
15604TIP3    H168303   6.338   4.993  13.191 -0.0373 -1.0372  1.2940
15604TIP3    H268304   6.215   4.911  13.222 -1.3728 -1.0096 -3.2260
15605TIP3   OH268305   0.638   1.695  16.925 -0.1085  0.2183  0.1901
15605TIP3    H168306   0.684   1.647  16.993 -0.9595 -0.0181  0.6093
15605TIP3    H268307   0.654   1.787  16.946 -1.3255  0.1801  1.4117
15606TIP3   OH268308   5.793   4.594   3.462 -0.0805 -0.6564  0.1471
15606TIP3    H168309   5.796   4.685   3.431  0.8945 -1.3735 -2.0172
15606TIP3    H268310   5.762   4.601   3.552  0.7934  1.9089  0.3338
15607TIP3   OH268311   4.870   2.543   1.776  0.0625  0.1913  0.3146
15607TIP3    H168312   4.889   2.516   1.686 -0.0658 -0.1333  0.3865
15607TIP3    H268313   4.780   2.515   1.791 -0.0273  0.5376  0.4340
15608TIP3   OH268314   1.713   6.411  16.742 -0.4387 -0.0018  0.1659
15608TIP3    H168315   1.623   6.429  16.712 -0.8442 -0.5666  0.9909
15608TIP3    H268316   1.702   6.344  16.810  0.6826 -0.5838 -0.2070
15609TIP3   OH268317   2.854   1.311   3.028  0.7136 -0.0620  0.8808
15609TIP3    H168318   2.795   1.242   3.000  1.7875 -1.1505  1.1769
15609TIP3    H268319   2.880   1.355   2.947 -0.0509  0.0488  0.6956
15610TIP3   OH268320   3.524   4.560  14.016  0.0360 -0.0148 -0.3842
15610TIP3    H168321   3.565   4.500  13.953  0.1824 -2.6831  2.0533
15610TIP3    H268322   3.440   4.584  13.975 -0.5162 -2.8090 -1.0856
15611TIP3   OH268323   3.031   0.403  16.365  0.0363  0.1210  0.0522
15611TIP3    H168324   2.939   0.415  16.389 -0.1847  2.2281 -1.5825
15611TIP3    H268325   3.058   0.487  16.328  2.1707 -0.9252 -0.9799
15612TIP3   OH268326   3.410   3.684  16.895 -0.0948 -0.2058 -0.5185
15612TIP3    H168327   3.389   3.596  16.864  1.2414 -0.5929 -0.4202
15612TIP3    H268328   3.505   3.690  16.885 -0.2580  1.5835 -1.4360
15613TIP3   OH268329   2.737   6.310   5.933  0.1198  0.2462 -0.6322
15613TIP3    H168330   2.673   6.363   5.886 -1.4597 -0.9271  0.1088
15613TIP3    H268331   2.748   6.354   6.017 -0.7395 -0.2695 -0.2459
15614TIP3   OH268332   2.347   5.710  14.515  0.0615 -0.0484  0.5199
15614TIP3    H168333   2.430   5.715  14.468 -0.8661  0.2666 -1.1429
15614TIP3    H268334   2.339   5.796  14.557  0.2396  0.1744  0.1013
15615TIP3   OH268335   0.539   2.634   2.579  0.1061 -0.3680 -0.6672
15615TIP3    H168336   0.555   2.540   2.592  3.3497 -0.0450 -1.3358
15615TIP3    H268337   0.561   2.649   2.486 -1.1615  0.9300 -0.7873
15616TIP3   OH268338   1.959   2.459   5.821  0.4780  0.0543 -0.1791
15616TIP3    H168339   1.919   2.519   5.884 -0.0967  0.5144 -0.9614
15616TIP3    H268340   1.892   2.393   5.805  0.8525 -0.4076  0.1565
15617TIP3   OH268341   2.988   2.757   3.261  0.2676  0.1015  0.0672
15617TIP3    H168342   3.053   2.711   3.314 -1.1937 -1.1728  0.8250
15617TIP3    H268343   2.925   2.790   3.325 -0.3407  0.4892 -0.7289
15618TIP3   OH268344   5.056   4.546   0.038  0.5042  0.3159  0.4091
15618TIP3    H168345   5.106   4.623   0.063  0.9459  0.6569 -1.4159
15618TIP3    H268346   4.966   4.566   0.064  0.9207  0.6415  1.6420
15619TIP3   OH268347   5.403   5.376   6.750 -0.0079  0.1226  0.3871
15619TIP3    H168348   5.437   5.295   6.790  0.3160 -0.0377 -0.2002
15619TIP3    H268349   5.471   5.441   6.767 -0.6102  0.4814  1.5356
15620TIP3   OH268350   4.545   2.088  16.994 -0.1992  0.1015 -0.2129
15620TIP3    H168351   4.555   2.001  17.034 -1.0408  0.0164 -0.1664
15620TIP3    H268352   4.452   2.108  17.004  0.2528  1.6802  1.1504
15621TIP3   OH268353   4.926   4.579  16.136 -0.0434  0.2465  0.6130
15621TIP3    H168354   4.886   4.627  16.063  0.1609 -2.3269 -1.3013
15621TIP3    H268355   5.011   4.620  16.148 -0.5094  1.3993  0.1517
15622TIP3   OH268356   0.912   2.477   1.259 -0.1151 -0.1454  0.5509
15622TIP3    H168357   0.886   2.491   1.168  0.0049 -1.9181  0.2110
15622TIP3    H268358   0.999   2.436   1.253 -0.6604 -1.4888  1.3870
15623TIP3   OH268359   1.462   5.503   5.982  0.3593 -0.3444  0.0639
15623TIP3    H168360   1.387   5.540   5.935  0.7724  0.8486  0.3198
15623TIP3    H268361   1.423   5.444   6.047 -0.3797  0.4955  0.3989
15624TIP3   OH268362   1.743   5.704   2.292  0.0101  0.3350  0.0330
15624TIP3    H168363   1.772   5.759   2.364  0.4666  1.5823 -1.0555
15624TIP3    H268364   1.817   5.645   2.275 -0.1083  0.0253  0.5837
15625TIP3   OH268365   0.921   6.311   3.391 -0.5110 -0.3618  0.0771
15625TIP3    H168366   0.861   6.259   3.339 -1.0404 -0.2205  0.5417
15625TIP3    H268367   0.948   6.382   3.333 -0.4895 -0.6470 -0.2598
15626TIP3   OH268368   5.739   6.255   5.683  1.1431 -0.1650 -0.1924
15626TIP3    H168369   5.691   6.232   5.604  0.9032 -0.2113 -0.0320
15626TIP3    H268370   5.688   6.326   5.722  0.4792 -1.1009  0.6806
15627TIP3   OH268371   6.583   3.765   4.209 -0.2850  0.2940  0.2785
15627TIP3    H168372   6.537   3.843   4.239 -2.4323 -0.2688 -1.3588
15627TIP3    H268373   6.649   3.797   4.148 -0.2966  0.9175  0.5948
15628TIP3   OH268374   3.472   3.049   4.416  0.0105 -0.1790  0.0123
15628TIP3    H168375   3.474   3.107   4.492 -3.6513  1.5427 -0.9944
15628TIP3    H268376   3.505   2.965   4.449  0.9653  1.1694  2.7724
15629TIP3   OH268377   4.263   4.279   0.134 -0.2411 -0.1551 -0.1276
15629TIP3    H168378   4.174   4.310   0.117 -0.3572 -0.8276 -0.7969
15629TIP3    H268379   4.308   4.355   0.171  0.3527  1.9245 -4.4783
15630TIP3   OH268380   5.659   5.931  13.352 -0.0330 -0.1611  0.3738
15630TIP3    H168381   5.666   5.943  13.257 -0.7925  0.0849  0.3463
15630TIP3    H268382   5.592   5.994  13.380  0.4181 -0.0042  1.1224
15631TIP3   OH268383   6.119   5.757   4.012  0.0979 -0.1117  0.6621
15631TIP3    H168384   6.214   5.761   3.998  0.2604  0.7799  1.7941
15631TIP3    H268385   6.090   5.681   3.962  1.3071 -0.0161 -0.2349
15632TIP3   OH268386   4.540   1.556  11.617 -0.6101  0.2480 -0.0805
15632TIP3    H168387   4.480   1.610  11.668  0.0312  1.9874 -1.0968
15632TIP3    H268388   4.496   1.471  11.611 -1.1907  0.3252  2.3832
15633TIP3   OH268389   3.016   3.853   2.202 -0.9160  0.0259 -0.4768
15633TIP3    H168390   3.061   3.778   2.164 -0.4639 -0.3372  0.7157
15633TIP3    H268391   3.005   3.914   2.130 -1.5512 -1.2912 -1.5506
15634TIP3   OH268392   3.889   4.038  14.038  0.1399  0.0504  0.4403
15634TIP3    H168393   3.841   4.118  14.061  1.5765  1.1427 -0.1912
15634TIP3    H268394   3.960   4.033  14.102  0.3771 -0.4342  0.1486
15635TIP3   OH268395   1.315   5.402  11.509 -0.3453  0.0195  0.1563
15635TIP3    H168396   1.229   5.359  11.506  0.3431 -1.3794 -0.8874
15635TIP3    H268397   1.295   5.495  11.510 -1.8894 -0.2853  1.1491
15636TIP3   OH268398   2.133   2.119  14.953 -0.3862  0.0340  0.0096
15636TIP3    H168399   2.204   2.137  14.892  0.4505 -0.8570  0.6832
15636TIP3    H268400   2.090   2.203  14.966  0.3977  0.5392 -0.6059
15637TIP3   OH268401   1.948   1.500   1.920  0.1308 -0.9727 -0.7895
15637TIP3    H168402   1.973   1.474   2.008 -0.9080 -0.2312 -0.2458
15637TIP3    H268403   1.901   1.425   1.885 -0.2185 -0.9520 -0.3741
15638TIP3   OH268404   3.603   5.556   1.110  0.4381  0.1176  0.7987
15638TIP3    H168405   3.542   5.502   1.060  0.4738  1.5227 -0.8638
15638TIP3    H268406   3.688   5.516   1.096  0.4994  0.6773 -0.6232
15639TIP3   OH268407   6.557   4.317   5.557  0.0572 -0.3341 -0.0945
15639TIP3    H168408   6.606   4.379   5.612  0.4057 -0.1419 -0.6139
15639TIP3    H268409   6.570   4.232   5.599  0.2079 -0.1697  0.1959
15640TIP3   OH268410   3.777   5.089   1.973 -0.2575 -0.1500 -0.4377
15640TIP3    H168411   3.788   4.997   1.947 -0.3538 -0.0184 -0.9669
15640TIP3    H268412   3.757   5.134   1.891  0.5938  0.4806 -0.3075
15641TIP3   OH268413   3.989   3.165  12.926 -0.0991  0.3231  0.4669
15641TIP3    H168414   3.921   3.232  12.932  0.3557  0.6811  1.9456
15641TIP3    H268415   4.051   3.199  12.860 -1.6759 -0.3620 -1.4660
15642TIP3   OH268416   2.865   5.336  11.624  0.5957  0.2921  0.3129
15642TIP3    H168417   2.799   5.267  11.633  0.5921  0.4154  1.2892
15642TIP3    H268418   2.814   5.417  11.623  0.7155  0.3829  0.9959
15643TIP3   OH268419   6.666   4.170  14.405 -0.4828 -0.2044  0.0826
15643TIP3    H168420   6.746   4.218  14.426 -0.6383  0.2838 -0.4205
15643TIP3    H268421   6.595   4.231  14.424 -0.7380 -0.5959  0.4196
15644TIP3   OH268422   4.369   3.895   4.035  0.2294 -0.0890  0.6416
15644TIP3    H168423   4.283   3.875   4.000  0.3999 -0.2064  0.2823
15644TIP3    H268424   4.401   3.968   3.981 -0.5751  1.5001  2.2226
15645TIP3   OH268425   2.663   4.034  15.212 -0.0622 -0.0839 -0.1317
15645TIP3    H168426   2.751   4.070  15.225  0.0122 -0.5593  0.7574
15645TIP3    H268427   2.625   4.089  15.143  0.0574  1.6784  1.1200
15646TIP3   OH268428   5.413   5.190  11.859 -0.1324 -0.1112  0.1021
15646TIP3    H168429   5.490   5.157  11.905 -0.6106  1.0179  1.8070
15646TIP3    H268430   5.445   5.265  11.809 -0.0199  0.0642  0.4311
15647TIP3   OH268431   6.445   3.479   1.280  0.2696  0.3141 -0.6017
15647TIP3    H168432   6.476   3.570   1.282 -0.2577  0.4933 -0.3144
15647TIP3    H268433   6.382   3.474   1.352  0.2107 -0.2521 -0.6891
15648TIP3   OH268434   1.686   6.109   1.471 -0.2138  0.4321 -0.2812
15648TIP3    H168435   1.772   6.107   1.511 -0.4879  0.4965  0.3180
15648TIP3    H268436   1.649   6.022   1.488 -0.9487  0.9564  1.0108
15649TIP3   OH268437   5.527   4.101   2.916  0.7155  0.3077  0.3234
15649TIP3    H168438   5.561   4.148   2.992 -0.5867  0.3316  0.9163
15649TIP3    H268439   5.515   4.168   2.849  0.1170  0.6091  0.7250
15650TIP3   OH268440   3.684   2.506   2.497  0.0283  0.1289  0.0839
15650TIP3    H168441   3.600   2.460   2.486  0.3773 -0.6116  0.4318
15650TIP3    H268442   3.691   2.520   2.592  1.6509 -2.4967  0.4456
15651TIP3   OH268443   1.167   0.426  16.617  0.3623  0.7407 -0.6265
15651TIP3    H168444   1.263   0.429  16.612  0.5229 -1.0006  0.4275
15651TIP3    H268445   1.146   0.482  16.692  0.6185  0.5896 -0.4381
15652TIP3   OH268446   5.652   3.791  12.530  0.0875 -0.0258 -0.0794
15652TIP3    H168447   5.694   3.838  12.602 -1.3744  2.5384 -0.7554
15652TIP3    H268448   5.680   3.838  12.451  0.5336 -1.9003 -1.1017
15653TIP3   OH268449   2.872   2.703   2.264  0.5769  0.2918  0.6272
15653TIP3    H168450   2.838   2.787   2.295  0.5446  0.5824 -0.1753
15653TIP3    H268451   2.936   2.726   2.197 -1.3730 -0.3416 -1.5816
15654TIP3   OH268452   3.766   4.959  11.930  0.1333 -0.2812  0.2716
15654TIP3    H168453   3.837   5.022  11.943 -0.8071  0.7567  0.5499
15654TIP3    H268454   3.689   5.002  11.969 -0.4836 -1.7148  0.6917
15655TIP3   OH268455   0.815   6.251  14.386  0.4233 -0.3959  0.2621
15655TIP3    H168456   0.855   6.334  14.410  0.1077 -0.4638  1.0625
15655TIP3    H268457   0.789   6.261  14.295  2.1417 -0.3010 -0.2545
15656TIP3   OH268458   1.704   2.713  14.910 -0.1433  0.3689  0.3208
15656TIP3    H168459   1.724   2.806  14.896  1.9287 -0.1288 -0.4969
15656TIP3    H268460   1.625   2.713  14.963 -0.3900  2.5963  0.0681
15657TIP3   OH268461   4.886   0.747  15.596  0.3987  0.5733  0.4485
15657TIP3    H168462   4.815   0.684  15.583 -0.2967  1.3071  0.5944
15657TIP3    H268463   4.949   0.702  15.651 -0.8496  0.5534  1.9211
15658TIP3   OH268464   3.894   4.759  17.228 -0.1516 -0.4454  0.6781
15658TIP3    H168465   3.853   4.684  17.185 -1.1579  1.2476 -1.5017
15658TIP3    H268466   3.868   4.835  17.176  0.2874  1.5540  3.1227
15659TIP3   OH268467   6.347   5.916  17.095  0.2570  0.3932 -0.3324
15659TIP3    H168468   6.253   5.931  17.083  0.0451 -1.8881 -2.3347
15659TIP3    H268469   6.387   5.951  17.015  1.0790  0.9222  0.2957
15660TIP3   OH268470   1.507   4.668   3.345  0.2345 -0.0336 -0.3450
15660TIP3    H168471   1.461   4.669   3.429  0.1692  0.9123 -0.3872
15660TIP3    H268472   1.510   4.575   3.321  2.7331 -0.6844  2.0290
15661TIP3   OH268473   4.417   6.259   4.633  0.0450  0.5314  0.1192
15661TIP3    H168474   4.449   6.273   4.721  0.3125  0.9314 -0.0403
15661TIP3    H268475   4.343   6.319   4.624  1.0488  1.7206 -0.4851
15662TIP3   OH268476   0.150   3.283   1.582 -0.2384 -0.0119  0.0040
15662TIP3    H168477   0.221   3.290   1.518  1.1132 -0.1494  1.4296
15662TIP3    H268478   0.084   3.228   1.539  0.0263  0.9702 -1.7591
15663TIP3   OH268479   0.366   3.915   6.672  0.3838 -0.1450  0.4525
15663TIP3    H168480   0.364   3.841   6.611  1.5257 -0.5564  0.8918
15663TIP3    H268481   0.297   3.894   6.736 -1.4583  0.7294 -1.1285
15664TIP3   OH268482   4.149   2.436   4.831 -0.1137  0.0516  0.1646
15664TIP3    H168483   4.227   2.451   4.885  1.1625 -0.0784 -1.5566
15664TIP3    H268484   4.162   2.347   4.796 -0.8527  0.1677 -0.4198
15665TIP3   OH268485   0.662   0.574  10.819  0.1448  0.0260 -0.3447
15665TIP3    H168486   0.695   0.654  10.778 -2.4449  2.1937  1.4735
15665TIP3    H268487   0.659   0.510  10.748  0.0575  2.2455 -2.4657
15666TIP3   OH268488   1.745   5.001   4.862 -0.3080  0.1086 -0.1967
15666TIP3    H168489   1.747   5.096   4.874 -1.2102  0.0369  0.6263
15666TIP3    H268490   1.657   4.983   4.829  0.6053 -0.2138 -2.7028
15667TIP3   OH268491   6.149   4.058  14.375 -0.5361  0.8118  0.6735
15667TIP3    H168492   6.139   4.147  14.408 -1.0556  0.6156  1.0562
15667TIP3    H268493   6.183   4.070  14.286  0.9459  1.3353  1.2790
15668TIP3   OH268494   6.797   3.796   3.585 -0.4568  0.7852 -0.3552
15668TIP3    H168495   6.778   3.738   3.512  0.2816  1.1383 -0.8331
15668TIP3    H268496   6.884   3.831   3.567 -0.4591  1.2399  0.4524
15669TIP3   OH268497   4.777   4.386  11.408 -0.0061  0.4544 -0.2988
15669TIP3    H168498   4.727   4.432  11.341 -0.8023 -3.0717 -2.3607
15669TIP3    H268499   4.866   4.419  11.397 -0.4467  1.2305 -1.9329
15670TIP3   OH268500   4.028   5.438   0.739  0.3328 -0.3872  0.7452
15670TIP3    H168501   4.062   5.360   0.696 -0.8482 -1.1539  1.1808
15670TIP3    H268502   4.099   5.502   0.731 -0.5385  0.2947 -4.2819
15671TIP3   OH268503   2.336   4.842  15.122  0.3003 -0.1202  1.4632
15671TIP3    H168504   2.252   4.832  15.078  0.6768  1.0092  0.4197
15671TIP3    H268505   2.379   4.757  15.113  0.4966  0.1470 -0.6929
15672TIP3   OH268506   2.658   3.163  17.224  0.0943 -0.0305  1.0823
15672TIP3    H168507   2.670   3.193  17.314 -2.1786 -0.5660  1.6244
15672TIP3    H268508   2.593   3.093  17.230 -1.7497  1.3314 -1.1560
15673TIP3   OH268509   3.809   2.975   1.523  0.1598 -0.0977  0.0591
15673TIP3    H168510   3.759   3.054   1.503 -0.5356 -0.5015  0.1747
15673TIP3    H268511   3.846   2.991   1.609 -0.5217 -0.1529  0.3706
15674TIP3   OH268512   1.195   1.216  11.759 -0.4265  0.1889  0.3616
15674TIP3    H168513   1.102   1.214  11.781 -0.3504 -0.2492  0.6583
15674TIP3    H268514   1.225   1.127  11.774  0.5246  0.8051  2.3759
15675TIP3   OH268515   6.564   6.221  16.724 -0.1992  0.8855  0.5724
15675TIP3    H168516   6.507   6.290  16.759 -0.6599  0.3084  0.9876
15675TIP3    H268517   6.633   6.212  16.790 -1.6643 -0.9674  1.9824
15676TIP3   OH268518   3.767   0.987   1.903 -0.0771  0.3790  0.5143
15676TIP3    H168519   3.746   0.946   1.987 -1.2951 -0.9422 -0.3691
15676TIP3    H268520   3.706   1.060   1.896 -0.5980 -0.0501  0.4221
15677TIP3   OH268521   0.987   5.396  16.691 -0.0608 -0.1761  0.6463
15677TIP3    H168522   0.895   5.410  16.712 -0.1816 -0.2249  0.1762
15677TIP3    H268523   1.033   5.469  16.732 -0.4669  0.5971 -0.2189
15678TIP3   OH268524   3.864   2.948  16.660 -0.7419  0.6034 -0.3360
15678TIP3    H168525   3.782   2.903  16.640 -1.6871  0.4545  3.2833
15678TIP3    H268526   3.928   2.877  16.669 -0.6243  0.5771 -1.2442
15679TIP3   OH268527   2.075   1.718  12.911  0.5905  0.2000  0.4035
15679TIP3    H168528   2.063   1.812  12.920 -1.2536  0.0221  0.2739
15679TIP3    H268529   2.069   1.685  13.001 -1.2271  0.0208  0.2698
15680TIP3   OH268530   1.177   4.616   5.729 -0.1932 -0.2451  0.6465
15680TIP3    H168531   1.095   4.655   5.759 -0.5387 -0.6839  0.2904
15680TIP3    H268532   1.158   4.522   5.724  0.4746 -0.4053  1.0197
15681TIP3   OH268533   2.517   2.880  13.722  0.0100 -0.3421 -0.0648
15681TIP3    H168534   2.519   2.789  13.695 -0.0780  0.0759 -1.5681
15681TIP3    H268535   2.451   2.920  13.665 -0.1137  0.6166  0.7244
15682TIP3   OH268536   5.133   1.979  17.266  0.3370 -0.3011 -0.1473
15682TIP3    H168537   5.199   1.914  17.289 -0.3630 -0.9369  0.0845
15682TIP3    H268538   5.132   2.040  17.341  0.7314 -0.2311 -0.1994
15683TIP3   OH268539   5.435   1.636  15.810 -0.5375 -0.3210 -0.1677
15683TIP3    H168540   5.387   1.555  15.828 -0.5920 -0.8304 -2.4381
15683TIP3    H268541   5.512   1.609  15.762  0.3936  0.8396  0.6086
15684TIP3   OH268542   3.521   2.308  16.393  0.1798 -0.1367  0.3110
15684TIP3    H168543   3.474   2.314  16.476 -0.3933 -0.1874 -0.0041
15684TIP3    H268544   3.460   2.344  16.328  0.2720 -0.9214 -0.2213
15685TIP3   OH268545   2.025   2.649   3.143  0.3218 -0.2377 -0.3907
15685TIP3    H168546   2.043   2.558   3.119  0.6508 -0.0867 -0.7291
15685TIP3    H268547   2.051   2.655   3.235  1.2128 -0.2485 -0.6276
15686TIP3   OH268548   1.912   3.940  16.366 -0.4268 -0.0451 -0.0130
15686TIP3    H168549   1.841   3.989  16.408 -0.4293  0.9654 -1.1625
15686TIP3    H268550   1.979   4.006  16.348 -0.1921 -0.5624 -1.0788
15687TIP3   OH268551   0.862   3.632   1.587 -0.1342 -0.5880 -0.3825
15687TIP3    H168552   0.924   3.560   1.581  2.1164  1.2355 -0.4482
15687TIP3    H268553   0.840   3.654   1.497 -0.5127 -0.9145 -0.3735
15688TIP3   OH268554   1.228   5.517  13.777  0.1214 -0.0752  0.3403
15688TIP3    H168555   1.195   5.443  13.828  0.6106  0.0222  0.7959
15688TIP3    H268556   1.150   5.555  13.737 -0.1405 -0.8128  0.1358
15689TIP3   OH268557   1.120   0.008   0.200 -0.1819 -0.3888 -0.1289
15689TIP3    H168558   1.205  -0.023   0.233 -0.3396  1.1411  1.9143
15689TIP3    H268559   1.132   0.102   0.189 -1.7239 -0.0594  0.6799
15690TIP3   OH268560   6.746   3.839  17.148  0.6212 -0.4066 -0.4006
15690TIP3    H168561   6.813   3.835  17.080  0.9300  1.2373 -0.2328
15690TIP3    H268562   6.745   3.930  17.176  0.8564 -1.1066  2.1715
15691TIP3   OH268563   2.791   5.684  16.227 -0.3313 -0.5118 -0.1296
15691TIP3    H168564   2.720   5.620  16.223 -1.5118  0.7111  0.3366
15691TIP3    H268565   2.814   5.688  16.320  0.4465 -0.9958 -0.2989
15692TIP3   OH268566   2.229   1.893  16.552  0.2076  0.3498  0.3442
15692TIP3    H168567   2.305   1.951  16.561  1.1080 -0.7127 -0.2167
15692TIP3    H268568   2.252   1.815  16.603  0.0216 -0.4756 -0.7962
15693TIP3   OH268569   3.787   5.132  14.886  0.0754 -0.1047  0.2089
15693TIP3    H168570   3.693   5.114  14.884 -0.1401  0.8951  0.3216
15693TIP3    H268571   3.829   5.046  14.887 -0.8339 -0.5622 -0.0032
15694TIP3   OH268572   2.570   3.025   0.260  0.7181 -0.3718 -0.2813
15694TIP3    H168573   2.600   3.091   0.197 -0.5091  0.0327 -0.4558
15694TIP3    H268574   2.482   3.052   0.283  0.3868 -1.6746  0.0450
15695TIP3   OH268575   0.538   2.913  12.232 -0.0065 -0.0330  0.4845
15695TIP3    H168576   0.453   2.872  12.222 -1.8473  3.3419  0.8958
15695TIP3    H268577   0.565   2.933  12.142 -1.3609  1.9131  0.4533
15696TIP3   OH268578   4.225   2.906   0.432  0.1699 -0.4318 -0.1005
15696TIP3    H168579   4.254   2.983   0.482 -0.4946 -0.4741  0.3679
15696TIP3    H268580   4.137   2.888   0.466  1.1864 -2.8094  1.5005
15697TIP3   OH268581   0.708   6.320   1.721  0.6642  0.4461  0.6100
15697TIP3    H168582   0.803   6.323   1.715  0.6421 -0.8070 -1.7301
15697TIP3    H268583   0.678   6.345   1.634 -1.0491 -1.2102  0.6637
15698TIP3   OH268584   5.011   5.014   2.225 -0.6876 -0.1452 -0.1536
15698TIP3    H168585   4.937   4.976   2.177 -1.5019  0.6143  0.4785
15698TIP3    H268586   4.991   5.107   2.230 -0.5880 -0.1934  1.5845
15699TIP3   OH268587   6.491   2.409  13.913  0.2842 -0.1399  0.3277
15699TIP3    H168588   6.449   2.446  13.991 -1.7787 -0.2547 -0.6656
15699TIP3    H268589   6.462   2.466  13.841  2.1667 -0.0250 -0.3940
15700TIP3   OH268590   6.205   0.193  13.462  0.3167  0.0505 -0.1232
15700TIP3    H168591   6.143   0.182  13.390 -1.2038  3.0554  0.5328
15700TIP3    H268592   6.183   0.123  13.524 -1.0550 -0.1901 -0.8398
15701TIP3   OH268593   0.321   1.808   5.321  0.6000 -0.4541  0.5023
15701TIP3    H168594   0.321   1.901   5.299 -0.0214 -0.6584 -0.3861
15701TIP3    H268595   0.269   1.803   5.402 -1.1176 -0.2625 -0.5442
15702TIP3   OH268596   0.960   5.904   4.594 -0.0465 -0.4071  0.6086
15702TIP3    H168597   0.916   5.832   4.547 -0.3957 -1.4429  2.4198
15702TIP3    H268598   0.990   5.864   4.675  0.3943  1.3540  1.3562
15703TIP3   OH268599   5.798   1.442   4.060  0.1596 -0.1409  0.6710
15703TIP3    H168600   5.705   1.461   4.049  0.4669  1.6194  0.7418
15703TIP3    H268601   5.821   1.386   3.986 -0.5704  0.9620 -0.4169
15704TIP3   OH268602   0.611   3.195   6.321 -0.0940 -0.2884  0.2573
15704TIP3    H168603   0.665   3.139   6.377 -1.3579 -0.0699  1.7799
15704TIP3    H268604   0.667   3.216   6.247  1.7599 -0.4255  1.5416
15705TIP3   OH268605   5.880   1.086  15.282  0.4814 -0.3743 -0.3585
15705TIP3    H168606   5.888   1.070  15.188 -1.7875  0.1239 -0.7051
15705TIP3    H268607   5.886   1.181  15.290 -0.9994 -0.2635 -0.2597
15706TIP3   OH268608   3.662   3.546   1.908  0.0589  0.2861  0.4856
15706TIP3    H168609   3.668   3.482   1.836  0.0509  2.2703 -1.3868
15706TIP3    H268610   3.740   3.529   1.961  1.2346  0.0950 -1.2156
15707TIP3   OH268611   5.806   3.561  12.499 -0.6991 -0.2500 -0.4544
15707TIP3    H168612   5.750   3.633  12.472 -1.9487 -1.3434 -0.8997
15707TIP3    H268613   5.836   3.521  12.417 -0.5303 -0.6196 -0.2176
15708TIP3   OH268614   0.158   4.753  14.610  0.4724  0.3210 -0.6027
15708TIP3    H168615   0.143   4.765  14.703  0.1533 -0.2202 -0.5789
15708TIP3    H268616   0.251   4.729  14.604  0.2639 -0.6050 -0.3220
15709TIP3   OH268617   2.255   6.250  15.478  0.2098 -0.0372 -0.8665
15709TIP3    H168618   2.221   6.338  15.462  1.2913  0.1194 -2.5728
15709TIP3    H268619   2.349   6.257  15.458  0.6675 -1.1823  0.6637
15710TIP3   OH268620   2.152   1.256  15.545  0.2735 -0.0130 -0.2793
15710TIP3    H168621   2.080   1.249  15.482  1.9396  0.2774 -2.3478
15710TIP3    H268622   2.113   1.295  15.623 -1.9971 -0.8241 -0.9367
15711TIP3   OH268623   1.913   2.129   0.931 -0.4972  0.1427  0.0162
15711TIP3    H168624   1.894   2.040   0.902  1.9041 -0.6039  0.5158
15711TIP3    H268625   1.913   2.123   1.027 -0.0153  0.5907  0.0508
15712TIP3   OH268626   1.405   5.962  16.524  0.0045  0.0685  0.1907
15712TIP3    H168627   1.403   6.013  16.605 -2.9732  2.1336 -1.0336
15712TIP3    H268628   1.378   6.023  16.456  2.7256 -1.4802 -2.5506
15713TIP3   OH268629   4.875   1.798   6.596 -0.2929 -0.2440 -0.0510
15713TIP3    H168630   4.937   1.806   6.668  0.1461 -1.0638 -0.3256
15713TIP3    H268631   4.873   1.704   6.577  0.0393  0.0154 -1.4794
15714TIP3   OH268632   1.024   6.787   5.824 -0.1077  0.6921 -0.6935
15714TIP3    H168633   1.029   6.882   5.819 -1.5443  0.8797  0.6108
15714TIP3    H268634   0.930   6.768   5.819 -0.1564 -0.3882  2.3759
15715TIP3   OH268635   5.507   4.908   3.433  0.1370 -0.0368 -0.9004
15715TIP3    H168636   5.430   4.858   3.407  1.5923 -2.2148 -1.2388
15715TIP3    H268637   5.495   4.994   3.392 -2.2362 -0.1894 -0.6475
15716TIP3   OH268638   1.459   0.644   5.296 -0.4438 -0.1659 -0.1362
15716TIP3    H168639   1.384   0.681   5.248 -1.0879 -0.3877  0.6680
15716TIP3    H268640   1.480   0.564   5.247 -0.4335  0.1300 -0.6294
15717TIP3   OH268641   1.971   0.631  11.454  0.0972 -0.0816  0.1293
15717TIP3    H168642   1.877   0.636  11.475  0.4634  2.7588  1.6185
15717TIP3    H268643   1.977   0.669  11.366 -0.2361 -1.3302 -0.4492
15718TIP3   OH268644   4.291   2.258  16.276  0.2541 -0.7235  0.2124
15718TIP3    H168645   4.211   2.234  16.323  0.0290  1.7454  1.2525
15718TIP3    H268646   4.358   2.200  16.311 -0.6745 -1.4848  0.7823
15719TIP3   OH268647   3.515   3.873  17.266  0.2551 -0.0533  0.6391
15719TIP3    H168648   3.527   3.853  17.359  1.5362 -2.0100  0.1035
15719TIP3    H268649   3.445   3.813  17.238 -0.5702  0.9698  0.4431
15720TIP3   OH268650   1.893   4.287  12.884  0.3906  0.5230 -0.4199
15720TIP3    H168651   1.957   4.350  12.917  0.3902  0.4361 -0.2523
15720TIP3    H268652   1.865   4.238  12.961  0.1927  0.4962 -0.5072
15721TIP3   OH268653   1.270   1.072   1.112  0.3539 -0.2264 -0.5527
15721TIP3    H168654   1.296   1.046   1.201  0.0793  1.4363  0.0387
15721TIP3    H268655   1.353   1.092   1.068  0.5150 -1.3606 -0.7965
15722TIP3   OH268656   6.677   5.063  10.724 -0.3898 -0.1779 -0.2549
15722TIP3    H168657   6.706   5.013  10.648 -2.7592 -1.2808 -0.5310
15722TIP3    H268658   6.617   5.128  10.688 -0.4738  0.1822  0.5243
15723TIP3   OH268659   5.928   4.854   0.218  0.1046  0.1452  0.3919
15723TIP3    H168660   5.998   4.804   0.176  0.1256 -0.2789  0.9267
15723TIP3    H268661   5.971   4.934   0.249 -0.0367  0.7711 -0.9359
15724TIP3   OH268662   0.532   1.390   5.710  0.3581  0.5835  0.5845
15724TIP3    H168663   0.466   1.331   5.672  0.2306  1.0540  0.0615
15724TIP3    H268664   0.570   1.434   5.634  2.1517 -0.5635  0.7586
15725TIP3   OH268665   6.320   4.795  14.235  0.2009  0.2759 -0.3562
15725TIP3    H168666   6.243   4.740  14.240  0.5680 -0.1732  0.5512
15725TIP3    H268667   6.352   4.784  14.146  0.5180 -1.3362 -0.0692
15726TIP3   OH268668   1.271   4.663   4.991 -0.4530  0.0741 -0.1262
15726TIP3    H168669   1.186   4.644   4.952  0.4984  0.4898 -2.5800
15726TIP3    H268670   1.281   4.758   4.980  0.4208 -0.0099 -0.1109
15727TIP3   OH268671   1.404   3.830   6.145  0.5941  0.0331  0.4128
15727TIP3    H168672   1.396   3.794   6.057  0.4084 -0.4300  0.6145
15727TIP3    H268673   1.445   3.916   6.132 -0.0259  0.2465 -0.1788
15728TIP3   OH268674   4.627   5.965  14.924  0.5227  0.5122  0.1023
15728TIP3    H168675   4.537   5.937  14.939  0.3624  0.3516 -1.0479
15728TIP3    H268676   4.664   5.896  14.868  0.8077  1.4502 -0.8886
15729TIP3   OH268677   0.625   3.393   2.404 -0.3668 -0.2497 -0.9174
15729TIP3    H168678   0.632   3.352   2.318  1.7468 -0.0721 -0.8805
15729TIP3    H268679   0.645   3.323   2.466 -1.5888 -0.3047 -0.5625
15730TIP3   OH268680   2.934   1.560  16.391 -0.0792 -0.1500  0.1908
15730TIP3    H168681   2.973   1.480  16.357  0.3359  0.2397 -0.2773
15730TIP3    H268682   3.006   1.624  16.389 -0.6159  0.4564 -0.2552
15731TIP3   OH268683   6.011   2.023  14.750 -0.4348  0.0755  0.1889
15731TIP3    H168684   6.098   2.058  14.730 -0.6406  0.2684 -0.3990
15731TIP3    H268685   5.985   1.976  14.670 -1.0356  0.3626  0.2109
15732TIP3   OH268686   3.970   1.066  16.748 -0.5818 -0.4652 -0.2613
15732TIP3    H168687   3.958   0.998  16.814  2.0128 -2.4333 -1.6173
15732TIP3    H268688   4.003   1.142  16.796  0.7322 -1.6677  0.8193
15733TIP3   OH268689   4.983   5.100  10.666 -0.3211  0.3479  0.0973
15733TIP3    H168690   4.941   5.022  10.702  0.0494  0.1907  0.2017
15733TIP3    H268691   4.938   5.115  10.583 -1.6337  1.1169  0.9197
15734TIP3   OH268692   3.511   6.746  16.887 -0.4677 -0.0288  0.5949
15734TIP3    H168693   3.524   6.791  16.803 -0.8864 -2.7241 -1.0248
15734TIP3    H268694   3.427   6.780  16.919 -0.1771  1.2428  0.0866
15735TIP3   OH268695   3.400   2.386  14.442  0.7750  0.2053 -0.2198
15735TIP3    H168696   3.332   2.322  14.464  2.2003 -1.4310 -0.3572
15735TIP3    H268697   3.426   2.423  14.527 -1.3013  2.0206 -0.2916
15736TIP3   OH268698   5.982   1.551  15.337  0.5861 -0.2518  0.3206
15736TIP3    H168699   5.931   1.632  15.337 -0.4141 -0.8191  2.2053
15736TIP3    H268700   5.998   1.532  15.245  0.3449  1.7736 -0.1665
15737TIP3   OH268701   0.510   6.019   6.159  0.0393  0.4661  0.2431
15737TIP3    H168702   0.435   6.078   6.162  0.1751  0.7025 -0.5645
15737TIP3    H268703   0.576   6.067   6.108  0.4160 -0.0884  0.1961
15738TIP3   OH268704   4.197   5.030   2.476 -0.0938 -0.7320 -0.2723
15738TIP3    H168705   4.220   5.032   2.383  0.8489  1.9461 -0.0875
15738TIP3    H268706   4.269   4.983   2.518  0.1595 -0.7735 -0.7505
15739TIP3   OH268707   2.422   2.252  13.711  0.0443 -0.1051  0.3790
15739TIP3    H168708   2.458   2.186  13.770 -0.9749 -0.8260  0.1960
15739TIP3    H268709   2.498   2.282  13.660  1.0629  0.9093  2.3592
15740TIP3   OH268710   0.727   0.843   0.089  0.1282 -0.2563 -0.6536
15740TIP3    H168711   0.646   0.834   0.140 -1.2683 -0.1301 -2.7118
15740TIP3    H268712   0.794   0.867   0.153 -1.5092 -0.1240  1.0897
15741TIP3   OH268713   4.634   1.926  13.940 -0.1496  0.3715 -0.3108
15741TIP3    H168714   4.544   1.951  13.922 -0.5102 -0.7085 -0.0508
15741TIP3    H268715   4.678   2.008  13.962 -0.7150  1.1171 -1.8160
15742TIP3   OH268716   3.340   1.375   2.114 -0.0149 -0.0128 -0.0036
15742TIP3    H168717   3.357   1.311   2.045 -1.2910 -2.1396  1.5157
15742TIP3    H268718   3.411   1.363   2.176  0.1124  0.5702 -0.0277
15743TIP3   OH268719   0.122   4.501  16.436  0.6732 -0.2694  0.3749
15743TIP3    H168720   0.186   4.455  16.381  1.0172 -1.3553  1.6131
15743TIP3    H268721   0.061   4.542  16.374  1.2871 -1.0893 -0.8038
15744TIP3   OH268722   1.291   4.575   4.075 -0.0842 -0.9153 -0.1118
15744TIP3    H168723   1.275   4.539   3.988 -0.5429  0.0601 -0.4434
15744TIP3    H268724   1.225   4.535   4.131 -0.1851 -1.0702 -0.3402
15745TIP3   OH268725   2.345   3.290   0.012  0.3786 -0.1479 -0.2131
15745TIP3    H168726   2.389   3.281   0.097 -1.0862 -1.6702  0.4673
15745TIP3    H268727   2.306   3.377   0.014  1.0239  0.1373  0.3331
15746TIP3   OH268728   4.573   5.144  13.501  0.1521  0.0152 -0.1316
15746TIP3    H168729   4.620   5.096  13.569  0.3468  0.0245 -0.2607
15746TIP3    H268730   4.532   5.076  13.448 -0.5668  0.0240  0.3971
15747TIP3   OH268731   5.396   0.082   4.016  0.3738  0.2067  0.0986
15747TIP3    H168732   5.394  -0.012   4.031  3.0600  0.3538  1.8924
15747TIP3    H268733   5.316   0.115   4.057  0.0601 -1.1335  0.5851
15748TIP3   OH268734   5.922   6.354   2.929  0.1641  0.1264 -0.4437
15748TIP3    H168735   5.847   6.409   2.904  0.7311  0.5866 -1.1664
15748TIP3    H268736   5.994   6.386   2.876  0.2440 -2.1221 -1.8744
15749TIP3   OH268737   3.427   6.710  14.143 -0.4872 -0.7782  0.5280
15749TIP3    H168738   3.470   6.791  14.115  1.3351 -1.5804  0.8592
15749TIP3    H268739   3.337   6.737  14.165  0.0683  1.1449  0.6456
15750TIP3   OH268740   3.258   2.865  12.717  0.2262 -0.1083 -0.7529
15750TIP3    H168741   3.232   2.823  12.798  0.5201  1.6996  0.3349
15750TIP3    H268742   3.211   2.818  12.648 -1.5008 -0.4818  0.6303
15751TIP3   OH268743   2.973   4.157   2.435  0.0229  0.8150 -0.2825
15751TIP3    H168744   2.953   4.207   2.515  0.8765  1.2352 -0.3206
15751TIP3    H268745   3.027   4.084   2.466 -0.8161  0.1728 -0.2945
15752TIP3   OH268746   3.434   2.472   1.974 -0.1650 -0.7679 -0.1680
15752TIP3    H168747   3.345   2.492   1.942  0.2322  0.2110 -0.7224
15752TIP3    H268748   3.428   2.383   2.007 -0.4190 -2.3228 -3.8708
15753TIP3   OH268749   3.097   2.672  14.024 -0.2494 -0.0765 -0.5040
15753TIP3    H168750   3.097   2.633  14.111  1.7324 -1.3688 -1.0071
15753TIP3    H268751   3.010   2.652  13.988 -0.2408 -1.7034  0.2907
15754TIP3   OH268752   3.800   3.108  13.930  0.1708  0.5032 -0.2756
15754TIP3    H168753   3.847   3.114  14.013 -0.4194  0.8128  0.0413
15754TIP3    H268754   3.820   3.021  13.897  0.2009  0.2810  0.3222
15755TIP3   OH268755   5.031   6.074   1.162  0.2828 -0.0108  0.1200
15755TIP3    H168756   5.038   6.020   1.242 -0.9848 -1.2725 -0.5765
15755TIP3    H268757   5.019   6.163   1.195 -0.5986 -0.5534  1.3625
15756TIP3   OH268758   5.470   0.074  10.667 -0.7669  0.3980  0.8204
15756TIP3    H168759   5.539   0.019  10.704  0.3714  1.1007 -0.2065
15756TIP3    H268760   5.459   0.144  10.731 -3.0688 -1.5184  2.7554
15757TIP3   OH268761   4.404   2.699   2.162  0.0998 -0.1269  0.0813
15757TIP3    H168762   4.350   2.696   2.083 -0.0613 -3.2343  0.1638
15757TIP3    H268763   4.487   2.738   2.134 -0.9175  1.4029 -0.8978
15758TIP3   OH268764   2.183   5.201   1.904 -0.3869  0.2242  0.0550
15758TIP3    H168765   2.226   5.130   1.951  1.1711  0.7451 -0.5059
15758TIP3    H268766   2.090   5.178   1.904 -0.1525 -0.8371  1.5181
15759TIP3   OH268767   6.064   0.229  15.638  0.4523 -0.8809 -0.3963
15759TIP3    H168768   5.978   0.198  15.666  0.6034 -0.7003  0.2971
15759TIP3    H268769   6.046   0.301  15.578  0.1141 -0.7203 -0.1065
15760TIP3   OH268770   2.366   1.473   1.632 -0.4026  0.6551 -0.0895
15760TIP3    H168771   2.319   1.442   1.555 -0.4148  0.9311 -0.1919
15760TIP3    H268772   2.389   1.393   1.679 -1.2369  0.5247  0.1212
15761TIP3   OH268773   4.022   4.970  14.656 -0.3197 -0.6294 -0.3591
15761TIP3    H168774   3.999   4.877  14.649  1.5659 -1.1092 -0.6732
15761TIP3    H268775   4.068   4.989  14.574 -0.9197  0.6689 -0.4187
15762TIP3   OH268776   0.153   6.567  13.520 -0.1007 -0.4963  0.1965
15762TIP3    H168777   0.242   6.535  13.532 -0.0914 -1.5298 -2.0304
15762TIP3    H268778   0.097   6.500  13.558  0.0378 -0.0192  1.2712
15763TIP3   OH268779   4.767   2.797  14.008  0.1229  0.0677  0.0513
15763TIP3    H168780   4.822   2.863  13.966  1.4515 -0.7822  0.3974
15763TIP3    H268781   4.829   2.739  14.053 -1.1783  0.4609  2.5275
15764TIP3   OH268782   5.566   0.482   1.904 -0.3055  0.2358 -0.6854
15764TIP3    H168783   5.577   0.409   1.965  1.4100 -0.1044 -1.3291
15764TIP3    H268784   5.475   0.509   1.914 -0.5072 -0.8848  0.8022
15765TIP3   OH268785   2.185   1.420  11.573 -0.5998 -0.0282  0.4201
15765TIP3    H168786   2.238   1.386  11.501  0.6188  0.0645  1.2375
15765TIP3    H268787   2.181   1.515  11.557 -1.9610 -0.2220 -0.5459
15766TIP3   OH268788   0.185   3.383  17.027 -0.2249 -0.0891 -0.1574
15766TIP3    H168789   0.223   3.468  17.051  0.3320  0.0839 -1.5447
15766TIP3    H268790   0.097   3.404  16.996  0.8148  0.4521 -3.1429
15767TIP3   OH268791   0.483   3.571   2.131  0.0772  0.3203  0.4485
15767TIP3    H168792   0.576   3.582   2.151  0.3717  1.1401 -1.1197
15767TIP3    H268793   0.468   3.477   2.133  1.5173 -0.0076 -1.4308
15768TIP3   OH268794   5.357   1.301  17.173 -0.3014  0.9502  0.2836
15768TIP3    H168795   5.436   1.348  17.196 -0.1059 -0.0641  1.8859
15768TIP3    H268796   5.321   1.271  17.257 -0.4943 -1.5659 -0.5865
15769TIP3   OH268797   3.083   5.486  11.898 -0.1787  0.2156  0.1561
15769TIP3    H168798   3.125   5.402  11.880  0.0430 -0.2800  2.6150
15769TIP3    H268799   3.155   5.543  11.926 -0.4621  0.9534 -0.5846
15770TIP3   OH268800   2.038   4.893  12.563  0.1555 -0.0736  0.2044
15770TIP3    H168801   1.959   4.886  12.509  0.5973 -1.1570 -0.3337
15770TIP3    H268802   2.047   4.808  12.604  0.2262  0.5197  1.4619
15771TIP3   OH268803   1.942   4.963   2.896 -0.3247  0.3558 -0.6004
15771TIP3    H168804   1.851   4.988   2.880 -0.6085 -1.0697 -1.3472
15771TIP3    H268805   1.958   4.889   2.838  1.2537  0.4179 -0.3098
15772TIP3   OH268806   1.551   2.915   1.346  0.2229  0.3191 -0.1183
15772TIP3    H168807   1.636   2.958   1.353 -0.2013  1.1537 -0.0043
15772TIP3    H268808   1.487   2.986   1.349 -0.5298 -0.3637  0.8459
15773TIP3   OH268809   4.756   6.708  17.240  0.0438  0.5779  0.2596
15773TIP3    H168810   4.839   6.661  17.242  0.0775  0.6416  0.3703
15773TIP3    H268811   4.778   6.798  17.265 -0.4967 -0.0924  3.6317
15774TIP3   OH268812   0.074   0.483  15.000 -0.3949  0.1971 -0.1224
15774TIP3    H168813   0.087   0.578  15.008  0.2240  0.2383 -1.3260
15774TIP3    H268814   0.152   0.445  15.042  0.2243  0.2773 -1.1704
15775TIP3   OH268815   4.747   5.655  16.783 -0.0521 -0.1023 -0.1965
15775TIP3    H168816   4.772   5.727  16.725 -0.1300  0.3178  0.2930
15775TIP3    H268817   4.672   5.687  16.832 -0.0853 -0.5145  0.0315
15776TIP3   OH268818   0.163   4.710   5.485 -0.1108  0.3289 -0.2854
15776TIP3    H168819   0.162   4.615   5.499  2.1012  0.5243  1.9216
15776TIP3    H268820   0.084   4.741   5.528 -0.2894 -0.4281 -0.0428
15777TIP3   OH268821   5.624   3.173   3.649  0.0147  0.0998  0.0245
15777TIP3    H168822   5.583   3.183   3.563 -0.5706 -1.5066  0.0793
15777TIP3    H268823   5.658   3.084   3.648  2.1546  0.8609  0.5828
15778TIP3   OH268824   2.165   1.400  12.552 -0.1166 -0.1096 -0.5047
15778TIP3    H168825   2.174   1.428  12.644 -1.5784 -0.4759 -0.2243
15778TIP3    H268826   2.094   1.337  12.553 -0.0550 -0.2318 -1.8916
15779TIP3   OH268827   1.238   4.306  17.133 -0.4706 -0.3370  0.3497
15779TIP3    H168828   1.327   4.277  17.113 -0.9814 -1.4933 -0.3588
15779TIP3    H268829   1.225   4.281  17.225 -0.5934 -1.5847  0.0035
15780TIP3   OH268830   1.437   1.952   1.819  0.7391  0.0159 -0.4286
15780TIP3    H168831   1.376   1.985   1.753 -0.4297 -0.1069  0.5430
15780TIP3    H268832   1.523   1.953   1.776  0.2728  1.4850 -1.3947
15781TIP3   OH268833   0.487   5.241  15.538  0.7412 -0.2248  0.5762
15781TIP3    H168834   0.469   5.147  15.535  1.8512 -0.4717  0.8596
15781TIP3    H268835   0.535   5.252  15.620 -0.0533  0.7231  0.9187
15782TIP3   OH268836   6.555   0.483  16.810  0.3978  0.2762 -0.4689
15782TIP3    H168837   6.553   0.483  16.714 -0.7185  1.2944 -0.4630
15782TIP3    H268838   6.644   0.454  16.831 -0.1803 -2.9053 -1.7417
15783TIP3   OH268839   2.777   2.452   2.852 -0.0227  0.1030  0.3407
15783TIP3    H168840   2.743   2.387   2.913 -0.8470 -0.4908 -0.7186
15783TIP3    H268841   2.711   2.522   2.853 -1.0463 -0.7871 -1.2822
15784TIP3   OH268842   5.659   2.086   3.371  0.4407 -0.5081 -0.5885
15784TIP3    H168843   5.741   2.129   3.345  0.7930 -0.4157  0.6224
15784TIP3    H268844   5.676   1.993   3.359  1.6004 -0.6857  1.8817
15785TIP3   OH268845   6.073   4.614   0.779  0.5052  0.1019  0.5979
15785TIP3    H168846   6.096   4.522   0.768  1.4630  0.5141 -1.1985
15785TIP3    H268847   6.136   4.661   0.725 -1.1495  1.6849 -0.0483
15786TIP3   OH268848   3.533   5.097  16.147  0.6216 -0.4577  0.1048
15786TIP3    H168849   3.566   5.090  16.057 -0.5807 -0.0535 -0.3933
15786TIP3    H268850   3.572   5.178  16.180 -0.5582  0.5307 -0.8090
15787TIP3   OH268851   5.872   4.168  14.335  0.2156 -0.6477  0.3335
15787TIP3    H168852   5.928   4.205  14.404  0.2406 -2.0597  1.1102
15787TIP3    H268853   5.816   4.105  14.381  0.1513 -1.5385 -0.9174
15788TIP3   OH268854   1.357   2.119  11.457 -0.0648 -0.6039 -0.4555
15788TIP3    H168855   1.396   2.072  11.530  0.9668 -0.0198 -0.6038
15788TIP3    H268856   1.267   2.087  11.452  0.4327 -2.1286 -0.1976
15789TIP3   OH268857   5.263   1.984  11.953 -0.0252 -0.1304 -0.0742
15789TIP3    H168858   5.285   1.911  11.895  1.1906  0.5187 -0.4565
15789TIP3    H268859   5.216   2.046  11.898 -2.3444 -1.1991  0.5780
15790TIP3   OH268860   1.667   6.060   1.024  0.3881  0.4687 -0.1165
15790TIP3    H168861   1.706   6.004   0.958  1.1961  1.9072 -0.9213
15790TIP3    H268862   1.688   6.149   0.995  0.1617  1.1596  1.7019
15791TIP3   OH268863   3.349   0.061  13.491  0.4971 -0.6105 -0.2102
15791TIP3    H168864   3.298   0.056  13.411 -2.4813  0.1533  1.4741
15791TIP3    H268865   3.288   0.035  13.560  2.1271  1.1386  2.0614
15792TIP3   OH268866   3.465   2.627  11.356 -0.1296 -0.1934 -0.6629
15792TIP3    H168867   3.545   2.649  11.404 -0.3980 -0.0284 -0.2891
15792TIP3    H268868   3.459   2.693  11.287 -0.0229 -0.1150 -0.5959
15793TIP3   OH268869   2.486   3.933  15.794 -0.1175 -0.0566  0.1819
15793TIP3    H168870   2.428   3.861  15.767 -1.3534  1.6343 -2.0369
15793TIP3    H268871   2.501   3.982  15.714  0.6151  2.2246  1.6395
15794TIP3   OH268872   6.740   2.636  15.465 -0.1549  0.1292 -0.0228
15794TIP3    H168873   6.651   2.643  15.498  0.3531 -1.1072  1.7572
15794TIP3    H268874   6.782   2.717  15.495 -0.5081  0.4182 -0.3031
15795TIP3   OH268875   6.651   1.889   3.584 -1.1146 -0.6993  0.4998
15795TIP3    H168876   6.610   1.926   3.506  0.7255 -2.0326 -1.2242
15795TIP3    H268877   6.581   1.842   3.629 -2.5386  1.3458  0.5109
15796TIP3   OH268878   2.573   5.759   1.466  0.2478  0.0336 -0.1885
15796TIP3    H168879   2.492   5.716   1.494  0.5362 -1.9982 -2.1513
15796TIP3    H268880   2.626   5.765   1.545 -0.6286 -1.4646  0.5453
15797TIP3   OH268881   0.318   3.136  15.890 -0.3110  0.4877  0.3181
15797TIP3    H168882   0.312   3.117  15.984  0.9216 -4.4323 -0.3014
15797TIP3    H268883   0.239   3.097  15.853 -0.5101  1.8767 -0.8068
15798TIP3   OH268884   6.158   6.484  16.721  0.4079  0.3273 -0.1189
15798TIP3    H168885   6.072   6.487  16.763 -0.1676 -0.3395 -1.1904
15798TIP3    H268886   6.168   6.570  16.681 -0.1007  0.1573 -0.6202
15799TIP3   OH268887   0.159   5.064  12.384 -0.1822 -0.3660 -0.1513
15799TIP3    H168888   0.253   5.080  12.374 -0.1088 -0.3789  0.5093
15799TIP3    H268889   0.119   5.152  12.382 -0.5648 -0.4449 -4.0814
15800TIP3   OH268890   0.210   1.125  15.330  0.3162  0.1087  0.2946
15800TIP3    H168891   0.298   1.108  15.298 -0.6299 -1.6115 -1.6848
15800TIP3    H268892   0.181   1.202  15.281  0.1511 -0.3287 -0.3038
15801TIP3   OH268893   0.426   3.297   6.147 -0.2480  0.3420  0.0922
15801TIP3    H168894   0.472   3.267   6.225  0.8287 -0.1222 -0.6942
15801TIP3    H268895   0.460   3.242   6.076 -0.3749  1.4912 -0.9001
15802TIP3   OH268896   3.971   6.118  12.338  0.2715  0.0222  0.4009
15802TIP3    H168897   3.959   6.136  12.432 -1.2330  2.7816 -0.1953
15802TIP3    H268898   4.058   6.079  12.332  0.9986  1.0408  2.8258
15803TIP3   OH268899   0.492   5.821  12.801 -0.3380 -0.0397 -0.2014
15803TIP3    H168900   0.456   5.896  12.753  0.7316  2.7916  2.9737
15803TIP3    H268901   0.585   5.820  12.777 -0.4441 -0.7267 -0.6151
15804TIP3   OH268902   4.655   2.836   2.994 -0.0172  0.1094  0.0863
15804TIP3    H168903   4.733   2.884   3.021  0.2406 -0.3723  0.1940
15804TIP3    H268904   4.653   2.846   2.898  0.2168  0.0554  0.0751
15805TIP3   OH268905   5.569   0.539  16.483  0.2607  0.2669  0.0786
15805TIP3    H168906   5.655   0.540  16.525 -0.7176 -0.6700  2.2660
15805TIP3    H268907   5.523   0.613  16.521 -0.6351 -0.5594  0.6439
15806TIP3   OH268908   3.183   5.884   3.218  0.2117 -0.5069 -0.4301
15806TIP3    H168909   3.143   5.966   3.189 -4.1755 -2.2189 -0.0054
15806TIP3    H268910   3.123   5.816   3.187  2.2510 -3.3894  1.4420
15807TIP3   OH268911   3.696   6.320  16.902  0.2559 -0.4597  0.1559
15807TIP3    H168912   3.621   6.351  16.952 -0.1290  0.7201 -1.1012
15807TIP3    H268913   3.772   6.358  16.947  0.1370 -1.6400  1.4181
15808TIP3   OH268914   0.581   0.950  13.721  0.2505  0.2242 -0.2197
15808TIP3    H168915   0.675   0.952  13.738 -0.0043  0.3601  1.3160
15808TIP3    H268916   0.541   0.943  13.808 -1.2258  1.8530 -0.7143
15809TIP3   OH268917   2.469   1.336  14.171 -0.0240  0.5648 -0.0483
15809TIP3    H168918   2.484   1.251  14.129 -0.4985  0.7069 -0.5214
15809TIP3    H268919   2.556   1.365  14.198  0.1224 -0.1517  0.2729
15810TIP3   OH268920   1.997   6.791   3.281 -0.3184 -0.4732 -0.0702
15810TIP3    H168921   2.010   6.885   3.270 -2.4409 -0.1860 -0.7013
15810TIP3    H268922   2.013   6.775   3.374  0.9564  0.3156 -0.1313
15811TIP3   OH268923   6.677   5.919   1.163 -0.0778 -0.3117 -0.4940
15811TIP3    H168924   6.640   5.900   1.077  4.3489 -0.7470 -2.5873
15811TIP3    H268925   6.686   5.833   1.205  0.9888 -0.5448 -1.1646
15812TIP3   OH268926   4.608   4.333   1.054 -0.0447 -0.1935  0.7411
15812TIP3    H168927   4.596   4.282   0.974  0.1568 -1.1466  1.3021
15812TIP3    H268928   4.647   4.416   1.025  2.5234 -1.5237  0.0813
15813TIP3   OH268929   0.553   4.318  14.134  0.3282 -0.3573  0.9599
15813TIP3    H168930   0.503   4.257  14.078 -0.0892 -0.1071  1.0548
15813TIP3    H268931   0.554   4.276  14.220  0.2977 -0.3730  0.9520
15814TIP3   OH268932   3.189   1.635   3.239 -0.6191  0.4303 -0.2986
15814TIP3    H168933   3.279   1.647   3.269 -0.3368  2.0377 -1.6069
15814TIP3    H268934   3.136   1.685   3.301 -0.5396  0.1192  0.0258
15815TIP3   OH268935   1.918   2.210   5.438  0.0876  0.2042 -0.2475
15815TIP3    H168936   1.992   2.219   5.499 -0.9168 -0.8998  1.2277
15815TIP3    H268937   1.955   2.164   5.363  1.0124  0.0640  0.2665
15816TIP3   OH268938   3.762   5.739   1.813 -0.3666  0.4190 -0.2607
15816TIP3    H168939   3.819   5.747   1.889 -0.9582  0.9755  0.1310
15816TIP3    H268940   3.680   5.782   1.839 -0.9687 -0.3526 -0.8146
15817TIP3   OH268941   1.218   6.076   2.192 -0.5172  0.1826 -0.1282
15817TIP3    H168942   1.308   6.049   2.176 -0.6109  0.8928 -2.0858
15817TIP3    H268943   1.168   5.994   2.189  0.0588 -0.2485  1.2192
15818TIP3   OH268944   4.089   5.951   0.062  0.3737  0.0970 -0.0223
15818TIP3    H168945   4.144   5.873   0.054 -0.2259 -0.3406  0.0064
15818TIP3    H268946   4.047   5.942   0.147 -0.4445 -0.0499 -0.4298
15819TIP3   OH268947   5.257   0.013  13.365  0.1339 -0.1350  0.1366
15819TIP3    H168948   5.345   0.050  13.367  0.4616 -0.9264  0.7804
15819TIP3    H268949   5.209   0.063  13.431  0.6049 -0.9130  1.0840
15820TIP3   OH268950   4.912   5.468  14.672  0.2112 -0.7857  0.4165
15820TIP3    H168951   4.992   5.520  14.674  0.6578 -1.4668  0.7300
15820TIP3    H268952   4.911   5.423  14.757 -0.0895 -1.3866  0.1039
15821TIP3   OH268953   6.205   6.195   0.072  0.1617 -0.0585  0.4177
15821TIP3    H168954   6.232   6.180  -0.019 -3.3569 -0.6482 -0.6722
15821TIP3    H268955   6.161   6.280   0.070 -0.4149 -0.3237  1.4414
15822TIP3   OH268956   4.266   4.489  12.726  0.7387  0.4007  0.1320
15822TIP3    H168957   4.288   4.556  12.662 -1.2110  0.9746  0.0005
15822TIP3    H268958   4.176   4.463  12.704  0.5590 -0.4628  1.7174
15823TIP3   OH268959   3.735   6.761  10.529  0.4757  0.2559 -0.3469
15823TIP3    H168960   3.782   6.779  10.610  1.6895  1.8100 -1.3248
15823TIP3    H268961   3.665   6.702  10.554 -0.7540  2.5980  2.3098
15824TIP3   OH268962   2.853   5.220  16.767 -0.0677  0.5238  0.2083
15824TIP3    H168963   2.796   5.145  16.749  0.3378 -0.1669  1.6483
15824TIP3    H268964   2.888   5.245  16.681 -0.9545 -0.3196 -0.4210
15825TIP3   OH268965   5.351   5.077   3.788  0.1005 -0.1421 -0.4314
15825TIP3    H168966   5.309   5.098   3.871  0.6582 -0.0067 -0.1788
15825TIP3    H268967   5.340   5.155   3.734  0.3960  0.0524 -0.2138
15826TIP3   OH268968   1.828   3.812   1.215 -0.0985  0.0942 -0.4575
15826TIP3    H168969   1.921   3.799   1.237 -0.2122  0.9434  0.5912
15826TIP3    H268970   1.829   3.873   1.142  0.1250  2.5097  1.4629
15827TIP3   OH268971   2.283   2.844  15.483  0.2931  0.3499 -0.4167
15827TIP3    H168972   2.213   2.785  15.457  0.3215  0.0797  0.1085
15827TIP3    H268973   2.333   2.859  15.403  0.8531 -1.0969 -0.3513
15828TIP3   OH268974   3.275   6.079  12.314  0.0308 -0.1336 -0.4097
15828TIP3    H168975   3.192   6.122  12.296 -0.4483 -0.4863  0.8626
15828TIP3    H268976   3.253   5.986  12.321  0.7546 -0.3859 -1.3349
15829TIP3   OH268977   2.159   5.545   1.421 -0.7996  0.1499  0.1652
15829TIP3    H168978   2.095   5.475   1.410 -1.2702  0.9581 -3.5044
15829TIP3    H268979   2.119   5.621   1.379  1.6194  1.2872 -0.2591
15830TIP3   OH268980   3.794   6.452   1.454 -0.1444  0.3764 -0.3855
15830TIP3    H168981   3.716   6.506   1.465  0.0817  1.0900 -1.9679
15830TIP3    H268982   3.851   6.478   1.526 -0.7911  0.8994 -0.0429
15831TIP3   OH268983   2.952   4.150   3.022 -0.2656  0.2811  0.4927
15831TIP3    H168984   2.946   4.186   2.934 -0.5084 -0.6258  0.1308
15831TIP3    H268985   3.040   4.172   3.051  0.7825 -1.6638 -1.0029
15832TIP3   OH268986   6.338   4.670   2.579  0.0879 -0.1223 -0.3483
15832TIP3    H168987   6.432   4.690   2.583  0.0803 -0.2474  1.4603
15832TIP3    H268988   6.306   4.688   2.668 -1.0273 -2.8218 -0.1115
15833TIP3   OH268989   4.030   5.052   6.304  0.3811 -0.5991  0.0839
15833TIP3    H168990   3.989   4.993   6.241 -2.4506  1.9426 -0.6908
15833TIP3    H268991   4.042   5.133   6.255  0.5464  0.6447  2.1146
15834TIP3   OH268992   0.643   1.714  12.086  0.7991 -0.0043 -0.6498
15834TIP3    H168993   0.672   1.805  12.078  2.0672 -0.4425 -1.3941
15834TIP3    H268994   0.720   1.668  12.120 -0.6472 -0.3675  2.5084
15835TIP3   OH268995   1.385   2.767  14.777 -0.1084  0.0248 -0.1950
15835TIP3    H168996   1.348   2.760  14.865  2.5267 -1.8447  0.9022
15835TIP3    H268997   1.453   2.835  14.785  1.9595 -1.9371  0.0556
15836TIP3   OH268998   5.636   5.038  13.455 -0.3302 -0.6174 -0.1425
15836TIP3    H168999   5.563   5.044  13.393 -1.3862  2.5466  1.2161
15836TIP3    H269000   5.666   5.128  13.466  0.4952 -1.1745  3.1385
15837TIP3   OH269001   3.705   3.910   6.354 -0.6978  0.2597 -0.2118
15837TIP3    H169002   3.737   3.953   6.434 -2.6215 -0.2680  0.8956
15837TIP3    H269003   3.746   3.824   6.355 -1.0363  0.0988  0.4481
15838TIP3   OH269004   3.314   2.641  12.469 -0.3981  0.0640 -0.1439
15838TIP3    H169005   3.324   2.619  12.562 -0.9909 -2.5892 -0.6018
15838TIP3    H269006   3.324   2.557  12.424 -1.2076  1.0941 -2.4009
15839TIP3   OH269007   3.982   4.529  12.107 -0.9533 -0.1608 -0.2240
15839TIP3    H169008   4.046   4.503  12.041 -0.5223  0.4070 -0.0490
15839TIP3    H269009   3.905   4.557  12.057  0.1700  2.4938 -0.6792
15840TIP3   OH269010   5.011   1.912  16.405 -0.1149 -0.4735 -0.0612
15840TIP3    H169011   5.040   1.827  16.438 -0.8219 -1.6045 -2.1698
15840TIP3    H269012   4.942   1.939  16.466  1.6444 -0.2769  1.9343
15841TIP3   OH269013   1.694   0.113  11.993  0.0289 -0.1752  0.0634
15841TIP3    H169014   1.673   0.191  11.942  1.6619  0.3600  0.1653
15841TIP3    H269015   1.771   0.076  11.951 -0.6839 -1.7288  0.0541
15842TIP3   OH269016   3.477   0.407   6.053  0.3389  0.4796 -0.0283
15842TIP3    H169017   3.452   0.497   6.070 -0.6965  0.2834 -0.4437
15842TIP3    H269018   3.535   0.384   6.125 -0.5036  1.0338  0.8421
15843TIP3   OH269019   3.165   2.819   4.860  0.3333  0.1864  0.2876
15843TIP3    H169020   3.240   2.813   4.801 -0.3505 -0.1751 -0.5558
15843TIP3    H269021   3.134   2.728   4.868  2.1599 -0.3243  3.5469
15844TIP3   OH269022   2.890   4.143  12.575 -0.4065  0.0583 -0.1368
15844TIP3    H169023   2.922   4.169  12.489  0.0935 -0.7937 -0.2167
15844TIP3    H269024   2.932   4.059  12.592 -0.6589  0.1217  0.8551
15845TIP3   OH269025   5.883   6.254   1.132  0.3836  0.8655 -0.6002
15845TIP3    H169026   5.943   6.296   1.070 -0.2410  0.4524 -1.5145
15845TIP3    H269027   5.874   6.164   1.100 -2.8816  1.6174 -2.2225
15846TIP3   OH269028   1.692   3.449   2.059 -0.7766 -0.1543 -0.0074
15846TIP3    H169029   1.636   3.373   2.046  0.2824 -0.8300 -0.6317
15846TIP3    H269030   1.762   3.440   1.995  1.3633 -0.5607  2.2590
15847TIP3   OH269031   4.195   4.339   4.220 -0.1390 -0.7912 -0.4350
15847TIP3    H169032   4.147   4.376   4.295  0.0232 -0.7688 -0.3427
15847TIP3    H269033   4.242   4.414   4.184  0.6206 -1.0069  0.0748
15848TIP3   OH269034   6.076   4.690   1.989 -0.8913  0.0878  0.0299
15848TIP3    H169035   6.004   4.738   2.030 -1.0695 -0.0441 -0.1289
15848TIP3    H269036   6.100   4.623   2.054  0.0769  1.0699  0.7111
15849TIP3   OH269037   0.500   6.759  13.565  0.1426 -0.3760 -0.0931
15849TIP3    H169038   0.469   6.704  13.637  1.7064  0.8215  1.5569
15849TIP3    H269039   0.592   6.774  13.583  0.8217 -0.6947 -2.8252
15850TIP3   OH269040   2.079   5.714  13.233  0.0965  0.3642  0.1487
15850TIP3    H169041   2.079   5.687  13.325  0.2081  2.0817  0.6776
15850TIP3    H269042   2.086   5.631  13.185 -0.1311 -0.5851  1.6626
15851TIP3   OH269043   6.730   2.410  10.981 -0.3008  0.7084  0.4484
15851TIP3    H169044   6.694   2.322  10.966 -0.5206  0.6801  1.1277
15851TIP3    H269045   6.654   2.467  10.982 -0.1133  0.9905 -0.5216
15852TIP3   OH269046   4.585   4.155   6.034 -0.3265  0.2813 -0.2562
15852TIP3    H169047   4.522   4.225   6.051 -1.4799 -0.8207  0.0998
15852TIP3    H269048   4.561   4.121   5.948 -1.2172 -1.1450  0.5236
15853TIP3   OH269049   4.333   3.872  15.169 -0.3673 -0.0863  0.4432
15853TIP3    H169050   4.399   3.940  15.153 -1.2819  0.3978 -1.6938
15853TIP3    H269051   4.294   3.895  15.253  0.3584  1.1866  0.4553
15854TIP3   OH269052   2.297   1.302   3.598 -0.4402  0.1025 -0.0146
15854TIP3    H169053   2.356   1.231   3.621  1.2012  2.3393  3.4499
15854TIP3    H269054   2.338   1.344   3.522  0.3097 -0.7178 -0.0669
15855TIP3   OH269055   3.863   5.392   0.988  0.2893 -0.2450  0.1802
15855TIP3    H169056   3.929   5.396   0.919  0.8560  1.7710  0.7678
15855TIP3    H269057   3.782   5.370   0.943  0.6910  0.7711 -1.0866
15856TIP3   OH269058   1.893   6.206  17.106  0.2536 -0.6109  0.0498
15856TIP3    H169059   1.958   6.191  17.175  0.7361  0.3485 -0.1824
15856TIP3    H269060   1.943   6.246  17.034 -0.9968  2.7986  0.8857
15857TIP3   OH269061   1.764   6.441  17.247  0.1696  0.2639  0.5836
15857TIP3    H169062   1.815   6.420  17.168  1.3651  2.7669  0.5998
15857TIP3    H269063   1.674   6.450  17.216  0.2496 -0.8649 -0.0658
15858TIP3   OH269064   1.805   3.766   0.628 -0.0196  0.2631  0.4185
15858TIP3    H169065   1.819   3.719   0.546  0.5650 -0.7248  1.0754
15858TIP3    H269066   1.744   3.711   0.677 -2.6416  2.1791 -0.4391
15859TIP3   OH269067   4.457   3.946  12.458 -0.8313 -0.8657 -0.1392
15859TIP3    H169068   4.539   3.983  12.428 -0.4593 -1.9603 -0.5233
15859TIP3    H269069   4.422   4.010  12.519 -1.1503  1.0077 -2.1630
15860TIP3   OH269070   6.137   1.971  10.636  0.1864  0.0802  0.0686
15860TIP3    H169071   6.213   1.975  10.692 -0.6768 -1.1135  1.4071
15860TIP3    H269072   6.172   1.964  10.547  1.5795  1.2655  0.5076
15861TIP3   OH269073   4.361   0.339  14.754  0.3275  0.0120  0.6230
15861TIP3    H169074   4.367   0.265  14.693 -1.1620  0.2579  0.1392
15861TIP3    H269075   4.372   0.300  14.840 -0.7712 -0.8357  0.3965
15862TIP3   OH269076   0.372   2.345   4.922 -0.2072  0.2373 -0.1435
15862TIP3    H169077   0.375   2.332   5.016 -0.4775 -2.8307 -0.4516
15862TIP3    H269078   0.280   2.366   4.904 -0.4355 -0.4444  0.1836
15863TIP3   OH269079   4.126   3.565  11.877 -0.2842  0.9671  0.8780
15863TIP3    H169080   4.210   3.546  11.918 -0.6014 -0.2210  1.0042
15863TIP3    H269081   4.149   3.606  11.793  0.5241 -1.3264 -0.1012
15864TIP3   OH269082   2.158   3.482  16.628 -0.2746  0.3481  0.2307
15864TIP3    H169083   2.195   3.539  16.561  0.7566 -1.6298 -0.9767
15864TIP3    H269084   2.188   3.519  16.711  0.4952  1.4310 -0.5057
15865TIP3   OH269085   5.950   1.862  11.757 -0.0913  0.2422  0.5977
15865TIP3    H169086   6.000   1.781  11.759 -2.5967 -1.4894 -1.0809
15865TIP3    H269087   5.869   1.841  11.804 -1.0654  1.5544 -0.4444
15866TIP3   OH269088   5.512   4.843  15.556  0.5197 -0.1895 -0.3504
15866TIP3    H169089   5.455   4.869  15.483 -0.0091  0.1846  0.1897
15866TIP3    H269090   5.549   4.760  15.528 -0.8928 -0.8384 -0.3994
15867TIP3   OH269091   6.257   4.631  13.250 -0.3416  0.5185 -0.0892
15867TIP3    H169092   6.226   4.639  13.341  0.4792 -1.2197  0.3895
15867TIP3    H269093   6.250   4.719  13.215 -0.2368  1.3436  1.8196
15868TIP3   OH269094   2.753   3.517   1.651  0.9057 -0.0944 -0.8507
15868TIP3    H169095   2.742   3.510   1.556  0.9638 -0.6458 -0.8225
15868TIP3    H269096   2.845   3.541   1.663  0.4974  1.6540 -0.9853
15869TIP3   OH269097   0.588   2.354   4.764 -0.3027 -0.0071 -0.0159
15869TIP3    H169098   0.637   2.406   4.828  1.1023 -0.5104 -0.6255
15869TIP3    H269099   0.508   2.328   4.810 -1.1613  2.7870  0.2476
15870TIP3   OH269100   5.352   2.944   3.860  0.5796  0.5806  0.1991
15870TIP3    H169101   5.435   2.902   3.837  0.6152  0.4214  0.6125
15870TIP3    H269102   5.342   3.013   3.795  1.5148  1.2285  0.7175
15871TIP3   OH269103   5.102   1.586   4.453 -1.0088 -0.0191 -0.5407
15871TIP3    H169104   5.133   1.657   4.397 -0.9120 -0.1720 -0.6821
15871TIP3    H269105   5.094   1.511   4.394 -0.0022 -0.4305 -0.1667
15872TIP3   OH269106   3.744   6.034   3.825  0.7050 -0.2885  0.2364
15872TIP3    H169107   3.666   6.075   3.789  1.0249  0.7270  0.6523
15872TIP3    H269108   3.800   6.017   3.749  0.4548 -0.1800  0.0293
15873TIP3   OH269109   1.120   2.822  14.446  0.5887 -0.5470 -0.0216
15873TIP3    H169110   1.190   2.869  14.491  0.4244  1.1823 -1.4461
15873TIP3    H269111   1.041   2.874  14.464  0.2238 -0.7914 -0.8839
15874TIP3   OH269112   5.287   6.684  16.980  0.1965  0.3203 -0.1181
15874TIP3    H169113   5.312   6.756  17.037  1.7672  0.4367 -0.9051
15874TIP3    H269114   5.365   6.629  16.974 -0.3184 -0.3379 -1.1555
15875TIP3   OH269115   5.354   5.256   0.667 -0.1635  1.1317  0.0254
15875TIP3    H169116   5.280   5.241   0.726  0.8871 -0.0695  1.0929
15875TIP3    H269117   5.315   5.254   0.579 -1.4604  1.0146  0.5828
15876TIP3   OH269118   2.301   5.131   6.610  0.2441  0.1910 -0.3678
15876TIP3    H169119   2.249   5.114   6.531  0.7098  0.8658 -0.8206
15876TIP3    H269120   2.311   5.226   6.612  0.2504  0.1765  0.4996
15877TIP3   OH269121   1.236   3.625  11.868 -0.3845 -0.0628 -0.1552
15877TIP3    H169122   1.254   3.548  11.813  0.2573  0.1944 -0.3119
15877TIP3    H269123   1.221   3.696  11.805 -0.7711 -0.0134 -0.0074
15878TIP3   OH269124   2.218   3.065  15.925 -0.7783  0.0718  0.1786
15878TIP3    H169125   2.232   3.105  15.839 -2.5071  1.9164  0.6932
15878TIP3    H269126   2.148   3.002  15.911 -2.9477  2.2340  0.6408
15879TIP3   OH269127   0.014   0.217  14.804  0.4820  0.0627 -0.0214
15879TIP3    H169128   0.064   0.247  14.880 -0.0063  0.3760  0.1820
15879TIP3    H269129  -0.034   0.141  14.837 -1.1175  1.2521  0.5116
15880TIP3   OH269130   0.263   2.289  11.311  0.6550  0.1783 -0.2551
15880TIP3    H169131   0.169   2.291  11.326  0.8530  0.4133  1.1337
15880TIP3    H269132   0.295   2.371  11.350  1.6286 -0.7315  0.9268
15881TIP3   OH269133   1.980   4.371  13.352  0.1522  0.0277  0.5838
15881TIP3    H169134   1.996   4.463  13.373  1.8888 -0.3104  0.8977
15881TIP3    H269135   2.050   4.323  13.396 -0.9954 -1.5140  0.8253
15882TIP3   OH269136   1.620   5.906  15.811  0.2626  0.3303  0.1767
15882TIP3    H169137   1.631   5.815  15.783  0.3892  0.7292 -1.1478
15882TIP3    H269138   1.675   5.956  15.751 -0.4039  1.3546  0.3975
15883TIP3   OH269139   2.882   3.465  16.720  0.4661 -0.0914  0.0805
15883TIP3    H169140   2.955   3.494  16.666 -1.2243  1.3505 -1.5921
15883TIP3    H269141   2.822   3.540  16.721  0.0937 -0.2773  3.4957
15884TIP3   OH269142   3.321   3.275   1.813  0.2577 -0.2715  0.5806
15884TIP3    H169143   3.334   3.312   1.900 -2.7552  1.2106  0.4988
15884TIP3    H269144   3.265   3.199   1.827 -0.2428 -0.0282 -0.0574
15885TIP3   OH269145   2.400   3.196  16.471  0.0824  0.4904  0.0568
15885TIP3    H169146   2.450   3.238  16.541 -0.4752 -0.6946  1.2241
15885TIP3    H269147   2.337   3.263  16.443 -0.4974  0.6135  1.5603
15886TIP3   OH269148   4.816   0.808   1.263  0.2389  0.1556 -0.4273
15886TIP3    H169149   4.906   0.804   1.295  0.0291  1.2273  0.3135
15886TIP3    H269150   4.768   0.750   1.321  0.2968  0.2340 -0.3010
15887TIP3   OH269151   5.010   5.561   3.946 -0.6014 -0.0014  0.1062
15887TIP3    H169152   5.052   5.598   3.868 -0.2480 -0.1411  0.2294
15887TIP3    H269153   5.022   5.466   3.936 -0.1437  0.0110  0.5709
15888TIP3   OH269154   4.132   3.971  15.339 -0.4480  0.3003  0.0165
15888TIP3    H169155   4.051   3.946  15.295  0.8505  0.8638 -2.9239
15888TIP3    H269156   4.116   3.950  15.432 -3.6111 -0.3342 -0.5419
15889TIP3   OH269157   3.682   5.133  13.941  0.2419 -0.3550 -0.4655
15889TIP3    H169158   3.619   5.175  13.883 -0.7402  1.0404  1.4889
15889TIP3    H269159   3.640   5.049  13.964 -0.7491  0.3539  0.4453
15890TIP3   OH269160   0.735   3.604  10.779 -0.3748  0.3109  0.0756
15890TIP3    H169161   0.688   3.546  10.718 -0.1056 -0.3696  0.5017
15890TIP3    H269162   0.704   3.691  10.757 -1.2056 -0.0451 -0.2210
15891TIP3   OH269163   5.112   0.743   1.891  0.4115 -0.0895 -0.0248
15891TIP3    H169164   5.103   0.744   1.795  0.3988  1.0335 -0.0321
15891TIP3    H269165   5.024   0.724   1.923  0.0949  0.9161 -0.2372
15892TIP3   OH269166   4.047   5.353  11.316  0.5977  0.6274 -0.2474
15892TIP3    H169167   4.022   5.310  11.397 -0.9556  0.5649 -0.7340
15892TIP3    H269168   3.972   5.342  11.258  1.9984 -0.0912 -2.0151
15893TIP3   OH269169   0.059   6.057  13.515 -0.0609  0.4699 -0.6845
15893TIP3    H169170   0.065   6.008  13.433 -0.6573  1.4377 -1.3326
15893TIP3    H269171   0.114   6.008  13.576 -0.1693 -0.6649 -1.4619
15894TIP3   OH269172   4.632   1.663  16.954 -0.2877  0.1984  0.5160
15894TIP3    H169173   4.675   1.693  16.873  1.3999 -1.5048  0.7123
15894TIP3    H269174   4.645   1.735  17.016  1.7599  0.0242  0.3588
15895TIP3   OH269175   6.200   3.889  11.495  0.4202 -0.0655  0.6986
15895TIP3    H169176   6.261   3.821  11.524  1.2499  0.6837  0.7465
15895TIP3    H269177   6.250   3.941  11.432 -0.0594  0.7515  0.9710
15896TIP3   OH269178   6.782   3.284  14.720  0.2154  0.0392 -0.2420
15896TIP3    H169179   6.729   3.206  14.704 -0.6439  0.6929 -0.6622
15896TIP3    H269180   6.794   3.286  14.815  0.0953 -0.5097 -0.2139
15897TIP3   OH269181   6.243   0.963  12.860 -0.0224 -0.2603  0.0913
15897TIP3    H169182   6.289   1.047  12.850 -1.3313  0.5184  0.3493
15897TIP3    H269183   6.303   0.909  12.911  1.1518  0.2553 -0.6950
15898TIP3   OH269184   2.183   4.088  13.089  0.1949  0.0609  0.2578
15898TIP3    H169185   2.242   4.013  13.090  0.9439  0.6208  2.1645
15898TIP3    H269186   2.236   4.161  13.122 -0.3704  1.5998 -1.9587
15899TIP3   OH269187   6.397   5.922   1.666  0.3055  0.0006  0.8346
15899TIP3    H169188   6.409   5.888   1.577  2.3596  1.7823  0.3341
15899TIP3    H269189   6.353   5.852   1.713 -2.4936 -0.3790 -2.0027
15900TIP3   OH269190   0.204   4.569   3.196  0.3209 -0.8444 -0.0271
15900TIP3    H169191   0.195   4.504   3.127  0.0717  0.5598 -1.3554
15900TIP3    H269192   0.261   4.637   3.159 -0.6940  0.4758  0.7229
15901TIP3   OH269193   4.005   1.653   0.981  0.3522 -0.2501  0.4000
15901TIP3    H169194   3.935   1.588   0.987  0.4840 -0.5740 -1.2393
15901TIP3    H269195   3.959   1.737   0.971  0.1810 -0.0231  2.5448
15902TIP3   OH269196   0.749   3.510  16.973 -0.4053 -0.4360 -0.2402
15902TIP3    H169197   0.665   3.516  17.019 -0.2208  0.5935 -0.0138
15902TIP3    H269198   0.809   3.471  17.037 -0.8968 -2.0032 -0.6898
15903TIP3   OH269199   6.209   2.635  16.003  0.2419  0.4961 -0.2835
15903TIP3    H169200   6.300   2.616  15.982  0.1569  0.9657 -1.1164
15903TIP3    H269201   6.174   2.676  15.924 -0.6681  0.4034  0.0563
15904TIP3   OH269202   5.754   6.092   3.798  0.0230 -0.2714  0.1840
15904TIP3    H169203   5.750   6.047   3.713 -0.2552 -1.3138  0.7368
15904TIP3    H269204   5.702   6.172   3.785 -1.2942 -1.1559 -0.2060
15905TIP3   OH269205   3.651   4.532   1.435  0.5324  0.3702 -0.1556
15905TIP3    H169206   3.716   4.599   1.412 -0.7942  1.3901 -1.1298
15905TIP3    H269207   3.635   4.486   1.352  0.3701 -0.1911  0.1860
15906TIP3   OH269208   6.292   2.933   4.762 -0.0072  0.2399  0.3063
15906TIP3    H169209   6.322   2.862   4.706  0.5301 -0.3659  1.3417
15906TIP3    H269210   6.228   2.980   4.708  0.0721 -0.6528 -0.6040
15907TIP3   OH269211   5.292   3.678   2.900  0.4812  0.1054  0.0536
15907TIP3    H169212   5.209   3.715   2.869 -0.3561 -1.8619 -0.1676
15907TIP3    H269213   5.359   3.735   2.862 -0.7223  1.1994 -0.5103
15908TIP3   OH269214   6.251   0.228  14.673 -0.2009 -0.4074  0.2305
15908TIP3    H169215   6.229   0.147  14.720  0.5540 -0.0194  1.2998
15908TIP3    H269216   6.215   0.215  14.585 -1.9082 -1.0528  0.9702
15909TIP3   OH269217   1.192   5.965   0.469 -0.5307 -0.6544 -1.0048
15909TIP3    H169218   1.133   5.958   0.544  0.3365 -0.1328 -0.2441
15909TIP3    H269219   1.160   6.040   0.419  0.6454  0.9417  0.5201
15910TIP3   OH269220   2.533   2.578   2.871 -0.3505  0.0785  0.1501
15910TIP3    H169221   2.490   2.525   2.938 -2.2763  1.3956  0.0507
15910TIP3    H269222   2.516   2.532   2.789 -0.0606 -0.3033  0.3024
15911TIP3   OH269223   4.529   2.786   1.276 -0.3514  0.1915  0.5999
15911TIP3    H169224   4.616   2.826   1.275 -1.3718  2.6315 -0.1433
15911TIP3    H269225   4.531   2.723   1.204  0.3941  1.2628 -0.3631
15912TIP3   OH269226   6.042   3.770   3.095  0.1419  0.7481 -0.1974
15912TIP3    H169227   5.989   3.829   3.148 -2.7581 -1.0353 -0.8947
15912TIP3    H269228   6.107   3.734   3.156  0.1563  2.4932  0.8605
15913TIP3   OH269229   2.504   5.968  15.225 -0.0649  0.6497 -0.0331
15913TIP3    H169230   2.470   5.941  15.310 -2.2783  0.4602 -0.9098
15913TIP3    H269231   2.473   5.901  15.164  1.2887  0.8978 -1.0513
15914TIP3   OH269232   0.899   2.885   4.781 -0.0398  0.0566 -0.0025
15914TIP3    H169233   0.851   2.956   4.823 -0.3893  0.4559 -1.0465
15914TIP3    H269234   0.858   2.805   4.814 -0.8940  0.3791 -0.2565
15915TIP3   OH269235   6.459   3.420   4.737  0.5131  0.0727  0.0546
15915TIP3    H169236   6.490   3.510   4.728  1.6251 -0.2660  0.3653
15915TIP3    H269237   6.411   3.419   4.820  0.1086  0.4781 -0.1701
15916TIP3   OH269238   0.780   0.769   4.128  0.3369 -0.8034  0.2227
15916TIP3    H169239   0.723   0.839   4.096  0.3998 -0.7991  0.1198
15916TIP3    H269240   0.857   0.773   4.072  0.4985 -0.7200  0.4517
15917TIP3   OH269241   3.767   6.563  14.878 -0.2246 -0.4528 -0.1570
15917TIP3    H169242   3.758   6.610  14.796  0.5408  1.8936  1.0191
15917TIP3    H269243   3.749   6.628  14.946  0.9384 -1.8333  1.5796
15918TIP3   OH269244   2.906   1.618   4.749  0.1667  0.4414  0.1213
15918TIP3    H169245   2.981   1.672   4.772  1.1281 -0.3880 -0.9527
15918TIP3    H269246   2.832   1.679   4.746  1.2094  1.7043 -1.0529
15919TIP3   OH269247   2.228   1.795  14.286 -0.0887 -0.1550  0.3959
15919TIP3    H169248   2.223   1.844  14.204  0.6266 -1.0881 -0.2218
15919TIP3    H269249   2.313   1.751  14.282  0.0553 -0.0357  1.7457
15920TIP3   OH269250   6.034   0.622  16.940  0.4320 -0.6171 -0.2570
15920TIP3    H169251   6.126   0.603  16.924  1.1949  0.6367  2.2233
15920TIP3    H269252   6.034   0.690  17.008 -2.3080  0.4858 -1.2172
15921TIP3   OH269253   5.444   2.173   1.388  0.2209  0.7268 -0.1000
15921TIP3    H169254   5.399   2.223   1.456 -0.7521 -0.5056  0.2105
15921TIP3    H269255   5.406   2.205   1.305 -0.6074  0.3285  0.1097
15922TIP3   OH269256   4.408   5.358   2.029 -0.1948 -0.2849  0.8348
15922TIP3    H169257   4.466   5.427   1.998 -1.6772  0.3043 -0.7714
15922TIP3    H269258   4.436   5.279   1.981 -1.2652  0.2077 -0.6752
15923TIP3   OH269259   3.695   5.334   4.018  0.1575  0.1875 -0.1651
15923TIP3    H169260   3.790   5.344   4.013  0.3200 -1.3510 -0.5004
15923TIP3    H269261   3.662   5.380   3.940  0.7404 -0.5417 -0.8528
15924TIP3   OH269262   4.686   1.861   0.063  0.2669  0.0535 -0.1790
15924TIP3    H169263   4.752   1.795   0.086  2.3411  1.9603 -0.3716
15924TIP3    H269264   4.694   1.871  -0.032 -1.2602 -0.5798 -0.4191
15925TIP3   OH269265   0.834   2.661  13.930  0.6172  0.6753 -0.2273
15925TIP3    H169266   0.877   2.613  13.859  0.5953  2.2704 -1.3657
15925TIP3    H269267   0.869   2.622  14.010  0.4763 -1.3257 -1.0772
15926TIP3   OH269268   2.507   2.958  15.817 -0.2568 -0.1372  0.3412
15926TIP3    H169269   2.424   2.995  15.789 -0.3813 -1.1375 -0.6665
15926TIP3    H269270   2.564   3.034  15.829 -1.3826  0.5845  1.3480
15927TIP3   OH269271   1.790   3.055  14.283  0.6393  0.0998  0.8615
15927TIP3    H169272   1.785   3.011  14.368  2.6094  1.0037  1.5096
15927TIP3    H269273   1.829   2.990  14.225 -0.0647 -0.2834  0.8030
15928TIP3   OH269274   1.942   1.590   0.568 -0.2761 -0.3282  0.2776
15928TIP3    H169275   1.858   1.550   0.594 -0.1650 -0.1354  0.9519
15928TIP3    H269276   1.952   1.566   0.476 -0.4859 -1.3817  0.5159
15929TIP3   OH269277   6.037   1.974   4.183 -0.8291 -0.2123 -0.1779
15929TIP3    H169278   6.053   1.964   4.277 -0.6690  1.9461  0.0747
15929TIP3    H269279   6.033   1.884   4.150  2.2561 -1.0633  1.3403
15930TIP3   OH269280   4.126   1.015   5.506  0.1110 -0.8957 -0.0234
15930TIP3    H169281   4.208   1.064   5.503 -0.3559 -0.1215 -0.4134
15930TIP3    H269282   4.150   0.926   5.481  0.6051 -0.3561 -1.5862
15931TIP3   OH269283   3.490   2.371   3.813 -0.6615  0.5666 -0.3959
15931TIP3    H169284   3.432   2.372   3.737 -0.5555  0.5203 -0.4777
15931TIP3    H269285   3.432   2.353   3.887 -0.6161 -0.4803 -0.5978
15932TIP3   OH269286   3.723   6.666  11.241  0.6864  0.2366  0.7790
15932TIP3    H169287   3.659   6.600  11.213  2.8230 -1.1023 -1.3453
15932TIP3    H269288   3.808   6.621  11.236  2.1149  2.7693  0.5664
15933TIP3   OH269289   6.253   4.446   1.866  0.0266  0.0243 -0.0465
15933TIP3    H169290   6.159   4.428   1.864 -0.1155  0.6482  0.6485
15933TIP3    H269291   6.291   4.381   1.806 -0.6106 -1.6224  1.2480
15934TIP3   OH269292   2.190   2.330   6.201 -0.6891 -0.2046 -0.0425
15934TIP3    H169293   2.139   2.400   6.160  0.5329  0.6391 -0.1828
15934TIP3    H269294   2.262   2.375   6.244 -0.7188 -1.2741  1.1702
15935TIP3   OH269295   6.566   2.659  11.495  0.1829  0.9590  0.2295
15935TIP3    H169296   6.655   2.639  11.466 -0.3508  0.4347 -1.1265
15935TIP3    H269297   6.575   2.681  11.588  1.5346 -0.4340  0.4622
15936TIP3   OH269298   5.022   2.611   3.406 -0.2446 -0.3289 -0.2129
15936TIP3    H169299   5.108   2.622   3.366  0.2592 -0.5273  0.7871
15936TIP3    H269300   5.017   2.518   3.427  0.5201  0.1038  2.3175
15937TIP3   OH269301   4.700   1.941   5.869  0.3142 -0.2082  0.5721
15937TIP3    H169302   4.674   1.935   5.961 -2.2082  1.0132  0.0196
15937TIP3    H269303   4.617   1.945   5.821  1.5707 -0.1799 -1.7228
15938TIP3   OH269304   6.052   6.750  11.139  0.1925 -0.0041  0.1399
15938TIP3    H169305   6.013   6.760  11.052  1.0589  0.7749 -0.1826
15938TIP3    H269306   6.094   6.835  11.156  0.2919 -0.2477  1.1919
15939TIP3   OH269307   5.945   3.656  16.806  0.5470  0.9086  0.1040
15939TIP3    H169308   5.883   3.726  16.790  1.3034  1.1870 -1.8374
15939TIP3    H269309   5.994   3.647  16.724  0.5746 -1.7852  0.3279
15940TIP3   OH269310   6.238   3.962   4.597  0.0749  0.4444 -0.3592
15940TIP3    H169311   6.227   3.913   4.679  0.1108  1.7380  0.4486
15940TIP3    H269312   6.331   3.981   4.592  0.0561  0.4683 -0.6321
15941TIP3   OH269313   2.627   4.111  10.700 -0.1452 -0.2987 -0.1105
15941TIP3    H169314   2.706   4.058  10.691  0.0865 -0.1081  0.7042
15941TIP3    H269315   2.647   4.193  10.654  0.6153  0.2449  1.1306
15942TIP3   OH269316   2.120   2.042   3.437 -0.2994  0.2829 -0.5615
15942TIP3    H169317   2.052   2.057   3.370  0.5790  3.0781 -0.9552
15942TIP3    H269318   2.110   2.116   3.497  2.8166  1.2624 -1.0683
15943TIP3   OH269319   6.681   4.404   5.084 -0.7926  0.3353 -0.3135
15943TIP3    H169320   6.760   4.458   5.083 -1.4832  1.4988  2.2504
15943TIP3    H269321   6.609   4.466   5.092 -1.8931 -0.8090 -0.8803
15944TIP3   OH269322   1.760   3.606  15.710 -0.2285 -0.4372  0.7724
15944TIP3    H169323   1.681   3.551  15.717 -0.1548 -0.6321  0.1604
15944TIP3    H269324   1.729   3.689  15.674 -0.3232 -0.1039  1.5995
15945TIP3   OH269325   1.512   5.752  17.416  0.4020 -0.0982  0.0438
15945TIP3    H169326   1.575   5.792  17.476  0.4984 -1.3731  0.8509
15945TIP3    H269327   1.491   5.667  17.457  0.7638 -1.2045 -1.9266
15946TIP3   OH269328   3.689   5.673  14.916 -0.0049  0.6645 -0.8194
15946TIP3    H169329   3.620   5.622  14.958  0.5994  0.9878  0.6418
15946TIP3    H269330   3.764   5.613  14.911  0.9413  1.5303  1.5688
15947TIP3   OH269331   4.561   6.614   4.540  0.1332  0.3868  0.0485
15947TIP3    H169332   4.656   6.605   4.535  0.0592 -0.3960  0.0469
15947TIP3    H269333   4.527   6.551   4.477 -0.4140  0.0336  0.6915
15948TIP3   OH269334   6.667   5.770  14.890 -0.3010  0.0137 -0.6261
15948TIP3    H169335   6.690   5.859  14.863 -0.6387  0.8284  1.5223
15948TIP3    H269336   6.623   5.782  14.974 -0.5955 -2.1850 -0.4176
15949TIP3   OH269337   6.199   0.663  15.544  0.0047  0.5391  0.6949
15949TIP3    H169338   6.268   0.681  15.480  0.9325  0.1321  1.5407
15949TIP3    H269339   6.140   0.738  15.539  0.1148  0.5527 -0.5581
15950TIP3   OH269340   1.007   5.828  17.183  0.5917  0.0881  0.6774
15950TIP3    H169341   1.066   5.845  17.109 -1.1952  0.9516 -0.6251
15950TIP3    H269342   0.949   5.903  17.185 -0.9800 -1.0914  1.3946
15951TIP3   OH269343   3.474   2.869  15.460  0.7500  0.0290 -0.0384
15951TIP3    H169344   3.426   2.788  15.477 -2.9487  1.5529 -2.1433
15951TIP3    H269345   3.429   2.935  15.513  0.6299  1.5220 -1.9136
15952TIP3   OH269346   6.498   3.091  13.825 -0.4922 -0.0252  0.0577
15952TIP3    H169347   6.507   3.147  13.902  1.4621  1.6588 -1.3052
15952TIP3    H269348   6.584   3.051  13.814 -1.2005 -1.5013 -0.3640
15953TIP3   OH269349   3.561   3.956   6.001 -0.3405  0.4562  0.2397
15953TIP3    H169350   3.579   4.042   6.042 -1.2871  0.4508  0.6912
15953TIP3    H269351   3.612   3.894   6.053 -0.1901  0.6641  0.3419
15954TIP3   OH269352   6.535   4.451  13.392  0.5763 -0.4014 -0.4467
15954TIP3    H169353   6.496   4.537  13.373  1.0494 -0.7296 -3.2904
15954TIP3    H269354   6.624   4.457  13.356  0.8342 -1.8885 -0.0957
15955TIP3   OH269355   6.549   0.971  11.661 -0.5782 -0.1605  0.2546
15955TIP3    H169356   6.574   1.006  11.576  0.0212 -0.1554  0.4309
15955TIP3    H269357   6.548   0.876  11.649 -0.3837 -0.1653  0.2684
15956TIP3   OH269358   1.100   1.598  14.531  0.8891  0.3904 -0.0811
15956TIP3    H169359   1.005   1.594  14.541  0.5636  1.2076 -2.2879
15956TIP3    H269360   1.126   1.507  14.517  0.2109  0.3257 -1.0007
15957TIP3   OH269361   5.626   3.291   0.755 -0.3466  0.5745  0.0221
15957TIP3    H169362   5.578   3.216   0.792 -0.3395  0.2469 -0.6059
15957TIP3    H269363   5.716   3.260   0.749 -0.1143  1.0769  0.9040
15958TIP3   OH269364   3.712   0.484  14.689 -0.3639  0.1953 -0.3690
15958TIP3    H169365   3.773   0.459  14.620  1.3503  1.1305  0.7383
15958TIP3    H269366   3.641   0.528  14.643 -0.6992 -1.6652 -1.7769
15959TIP3   OH269367   1.164   3.679  13.976  0.7708 -0.0334  0.1072
15959TIP3    H169368   1.160   3.732  14.056 -0.4766  0.2692 -0.1344
15959TIP3    H269369   1.132   3.593  14.002 -2.6128  0.8491 -0.6216
15960TIP3   OH269370   6.632   2.248  13.029  0.4528  0.4646 -0.2882
15960TIP3    H169371   6.559   2.305  13.052  1.4263  1.5940  0.0715
15960TIP3    H269372   6.682   2.297  12.964  0.7234 -0.4482 -0.7978
15961TIP3   OH269373   3.095   1.878  15.206  0.0492 -0.4154  0.2418
15961TIP3    H169374   3.007   1.868  15.169  0.3550 -1.1334 -0.3246
15961TIP3    H269375   3.104   1.806  15.268 -0.5076  0.8650  1.8527
15962TIP3   OH269376   2.500   5.464   0.457 -0.1402 -0.4293 -0.0661
15962TIP3    H169377   2.433   5.408   0.419  0.8933 -0.5035 -1.8997
15962TIP3    H269378   2.465   5.553   0.449 -0.3222 -0.5248 -0.3391
15963TIP3   OH269379   0.351   1.035  17.281 -0.9576 -0.1743  0.4635
15963TIP3    H169380   0.324   0.970  17.216 -0.2255 -0.4337  0.4083
15963TIP3    H269381   0.441   1.056  17.257 -0.4424 -0.7591  1.7765
15964TIP3   OH269382   2.112   3.681   3.244 -0.0329 -0.4460 -0.4246
15964TIP3    H169383   2.096   3.588   3.258  1.5223 -0.6341  0.3607
15964TIP3    H269384   2.097   3.694   3.151 -0.1324 -1.5244 -0.5717
15965TIP3   OH269385   3.606   5.859  14.673  0.6266 -0.2664 -0.2587
15965TIP3    H169386   3.617   5.799  14.746 -2.7384  0.3585  0.9003
15965TIP3    H269387   3.619   5.804  14.595  0.5829 -1.7846  0.7580
15966TIP3   OH269388   4.485   2.530   1.136 -0.2217  0.1836  0.0616
15966TIP3    H169389   4.516   2.512   1.047 -0.3945  2.1631 -0.4485
15966TIP3    H269390   4.389   2.520   1.131 -0.2646  0.6436 -0.0760
15967TIP3   OH269391   0.559   4.415  15.820 -0.2002 -0.5643  0.3938
15967TIP3    H169392   0.478   4.464  15.804 -0.1294 -0.4707  0.3274
15967TIP3    H269393   0.541   4.328  15.783  0.2873 -0.0865 -1.0171
15968TIP3   OH269394   3.761   4.451  12.519 -0.6033 -0.0008 -0.3300
15968TIP3    H169395   3.696   4.515  12.550 -1.2632 -0.6342 -0.3796
15968TIP3    H269396   3.828   4.450  12.587  0.6548  2.4726 -1.4128
15969TIP3   OH269397   4.081   4.920  11.695 -0.0365  0.0088  0.1141
15969TIP3    H169398   4.154   4.867  11.661 -0.4218 -0.7663  0.4773
15969TIP3    H269399   4.119   5.007  11.705  0.9800 -0.4744  0.7107
15970TIP3   OH269400   6.144   5.259   1.138  0.2956 -0.3687 -0.3309
15970TIP3    H169401   6.199   5.301   1.204  0.3026  1.8773 -1.6336
15970TIP3    H269402   6.106   5.183   1.182  1.9610 -0.1769  1.5544
15971TIP3   OH269403   2.181   3.536   1.279 -0.4160  0.2390 -0.4119
15971TIP3    H169404   2.120   3.564   1.347 -0.9957  2.5671 -1.7915
15971TIP3    H269405   2.268   3.549   1.319 -0.7509  0.5664  0.2268
15972TIP3   OH269406   6.034   1.576  12.378  0.0647  0.3383 -0.6405
15972TIP3    H169407   5.964   1.642  12.387 -0.6136 -0.4957  0.5290
15972TIP3    H269408   6.115   1.627  12.381 -0.4447  1.1310  0.3327
15973TIP3   OH269409   6.677   2.112  12.151 -0.0358 -0.0521  0.4797
15973TIP3    H169410   6.674   2.057  12.230  0.3161 -0.9450 -0.1254
15973TIP3    H269411   6.585   2.132  12.133 -0.0632  1.4462  1.9746
15974TIP3   OH269412   5.740   1.241  12.606 -0.2980 -0.2374 -0.0112
15974TIP3    H169413   5.786   1.162  12.580  0.2147 -0.9031  2.5630
15974TIP3    H269414   5.647   1.219  12.602 -0.2234 -0.3985 -0.8949
15975TIP3   OH269415   2.112   0.104   3.795 -0.4228 -0.1796 -0.0052
15975TIP3    H169416   2.135   0.073   3.882 -2.0835 -0.5756  0.3285
15975TIP3    H269417   2.048   0.174   3.810  1.3091  1.6592 -0.8379
15976TIP3   OH269418   2.607   5.675   5.890 -0.0691  0.1716 -0.3626
15976TIP3    H169419   2.575   5.765   5.885 -0.3575  0.0166 -1.6692
15976TIP3    H269420   2.529   5.623   5.909  0.5652  0.4453  4.0459
15977TIP3   OH269421   3.898   3.777  13.967  0.2206  0.3719  0.3044
15977TIP3    H169422   3.914   3.866  13.996  1.4799  0.5114 -0.7423
15977TIP3    H269423   3.874   3.729  14.046 -0.6826  1.6731  0.8407
15978TIP3   OH269424   6.033   5.031  12.575 -0.2349  0.0071 -0.1288
15978TIP3    H169425   6.106   4.971  12.591  0.2670  0.3947 -0.9125
15978TIP3    H269426   6.071   5.102  12.524 -0.9068  0.8168  0.4717
15979TIP3   OH269427   0.957   5.067  12.177 -0.2693 -0.1815 -0.1512
15979TIP3    H169428   0.972   5.061  12.082 -1.3261  0.1516 -0.3488
15979TIP3    H269429   0.876   5.118  12.186 -1.0084 -1.4629  0.8756
15980TIP3   OH269430   4.316   0.723  11.656  0.0357 -0.5987  0.1128
15980TIP3    H169431   4.316   0.631  11.628  2.0540 -0.0787 -1.8998
15980TIP3    H269432   4.241   0.761  11.611 -0.5571 -1.1560  0.6102
15981TIP3   OH269433   5.089   2.542   0.165 -0.0930 -0.5149  0.8581
15981TIP3    H169434   5.020   2.608   0.159  0.0332 -0.1016  2.9737
15981TIP3    H269435   5.155   2.583   0.222  0.7799 -1.8303  0.8285
15982TIP3   OH269436   2.389   1.451   5.672  0.4130 -0.4479 -0.1573
15982TIP3    H169437   2.359   1.425   5.584 -1.6801 -2.0265  0.9283
15982TIP3    H269438   2.465   1.395   5.688  0.8053 -0.1619 -0.9192
15983TIP3   OH269439   4.413   0.074   2.311  0.3872  0.4853  0.0718
15983TIP3    H169440   4.348   0.102   2.247  0.4155  0.4526  0.0290
15983TIP3    H269441   4.409  -0.021   2.310  0.7497  0.4726 -0.2544
15984TIP3   OH269442   3.273   3.293   0.888  0.1698  0.0166 -0.1441
15984TIP3    H169443   3.218   3.216   0.875  0.2583 -0.2884  1.0969
15984TIP3    H269444   3.229   3.343   0.957 -0.2340  1.4316 -1.3808
15985TIP3   OH269445   6.019   6.694  13.355 -0.1142  0.4712  0.0972
15985TIP3    H169446   5.958   6.768  13.351 -2.0374 -0.9999  0.4432
15985TIP3    H269447   5.999   6.643  13.276 -0.1532 -0.6296  0.8002
15986TIP3   OH269448   1.891   3.727  14.291 -0.1010 -0.2227 -0.3115
15986TIP3    H169449   1.904   3.734  14.386  0.8188 -0.9710 -0.3661
15986TIP3    H269450   1.899   3.816  14.259  1.3807 -0.1713  0.1160
15987TIP3   OH269451   2.406   4.214  13.176 -0.2283 -0.0933 -0.1621
15987TIP3    H169452   2.467   4.142  13.161 -1.3830 -0.8309 -1.6374
15987TIP3    H269453   2.370   4.197  13.263  0.5756 -0.4879  0.0991
15988TIP3   OH269454   5.888   3.188   0.743  0.1830  0.6533 -0.9577
15988TIP3    H169455   5.916   3.167   0.655  0.7932  0.1851 -0.6541
15988TIP3    H269456   5.919   3.116   0.797 -1.7309  0.0076 -0.6189
15989TIP3   OH269457   2.273   1.610  11.070 -0.1298 -0.2978  0.2404
15989TIP3    H169458   2.358   1.603  11.113  0.2175  0.0248 -0.3806
15989TIP3    H269459   2.267   1.702  11.043 -2.1266  0.5735  3.2126
15990TIP3   OH269460   5.364   3.702  13.586 -0.1044 -0.3985  0.2319
15990TIP3    H169461   5.447   3.739  13.556  0.4560 -0.6947  1.3783
15990TIP3    H269462   5.358   3.618  13.541  0.0660 -0.2475 -0.0801
15991TIP3   OH269463   4.086   0.549  15.360 -0.0426  0.3307  0.3417
15991TIP3    H169464   4.113   0.530  15.450  1.3596  1.5368  0.2284
15991TIP3    H269465   3.993   0.527  15.357  0.0056 -0.2244  1.9314
15992TIP3   OH269466   4.543   5.905  11.368  0.3912 -0.2648 -0.4657
15992TIP3    H169467   4.515   5.897  11.277 -1.0737 -0.9912  0.0302
15992TIP3    H269468   4.509   5.990  11.396  1.8853  0.5199 -0.9195
15993TIP3   OH269469   5.936   5.262   2.416 -0.0444 -0.3081  0.2243
15993TIP3    H169470   5.910   5.341   2.369 -1.4342 -1.5238 -1.1545
15993TIP3    H269471   6.009   5.227   2.367 -0.5699 -0.8094 -0.2125
15994TIP3   OH269472   0.292   6.020   3.801  0.2626  0.9076 -0.7375
15994TIP3    H169473   0.346   6.006   3.879 -0.6027  0.6784 -0.1513
15994TIP3    H269474   0.203   6.029   3.836 -0.4828 -1.4089 -1.8332
15995TIP3   OH269475   5.882   3.026  16.740 -0.1602 -0.5398  0.6024
15995TIP3    H169476   5.786   3.021  16.743 -0.2275  0.7674  1.4069
15995TIP3    H269477   5.904   3.099  16.799  1.0950  1.7916 -2.4674
15996TIP3   OH269478   2.531   3.376  13.692  0.1904 -0.5748 -0.2424
15996TIP3    H169479   2.609   3.379  13.746 -0.4472 -0.4661  0.7003
15996TIP3    H269480   2.470   3.437  13.734 -0.8884 -1.6665 -0.1507
15997TIP3   OH269481   5.958   5.980  12.671  0.4984 -0.7838 -0.6217
15997TIP3    H169482   5.950   5.885  12.681  0.1255 -0.7718 -0.7705
15997TIP3    H269483   5.884   6.004  12.616 -1.3789  0.0345  2.0399
15998TIP3   OH269484   0.338   6.616  11.175  0.3184  0.2809 -0.4475
15998TIP3    H169485   0.373   6.674  11.106  2.2729 -0.7439 -0.4060
15998TIP3    H269486   0.379   6.648  11.256 -0.0649 -0.0041 -0.1385
15999TIP3   OH269487   5.082   2.349   2.101 -0.0642  0.0375 -0.1606
15999TIP3    H169488   5.119   2.276   2.050  1.5048  0.3613  0.4435
15999TIP3    H269489   4.988   2.341   2.089  0.2017 -0.4260 -2.3804
16000TIP3   OH269490   3.877   5.310  14.131 -0.0867 -0.1069 -0.0694
16000TIP3    H169491   3.806   5.251  14.156  0.1849  0.0728  1.1893
16000TIP3    H269492   3.957   5.262  14.154  0.2368 -0.3879 -1.6492
16001TIP3   OH269493   5.997   5.519   2.926  0.5922  0.4388 -0.2853
16001TIP3    H169494   6.034   5.476   3.003 -0.9893  0.5294  0.5750
16001TIP3    H269495   5.944   5.591   2.962  0.0238  0.6410 -1.4736
16002TIP3   OH269496   0.129   3.674  14.756 -0.0428  0.4508 -0.4155
16002TIP3    H169497   0.104   3.762  14.786  0.4244  1.2365 -2.1967
16002TIP3    H269498   0.058   3.647  14.698 -0.1899 -0.3796  0.1316
16003TIP3   OH269499   0.383   2.264  10.552  0.0096  0.1810  0.6825
16003TIP3    H169500   0.395   2.169  10.550 -0.4555  0.0870  1.7222
16003TIP3    H269501   0.428   2.292  10.631 -2.0465  0.4667  1.8337
16004TIP3   OH269502   6.564   4.483  11.743 -0.0674 -0.8845 -0.0669
16004TIP3    H169503   6.520   4.460  11.662 -0.7555  0.0663  0.0160
16004TIP3    H269504   6.495   4.522  11.797  0.9641  1.3159 -0.2117
16005TIP3   OH269505   6.639   3.336  17.001 -0.4385 -0.4990  0.3146
16005TIP3    H169506   6.624   3.287  16.920  2.1843  0.0794 -0.6553
16005TIP3    H269507   6.621   3.274  17.071 -1.2536 -1.5151 -0.7585
16006TIP3   OH269508   1.539   2.785  12.875 -0.1608  0.4621 -0.5569
16006TIP3    H169509   1.621   2.735  12.874 -0.0856  0.5874 -0.7076
16006TIP3    H269510   1.565   2.874  12.901 -0.1210  0.7199 -1.4215
16007TIP3   OH269511   6.416   2.116  14.555 -0.2346  0.1216  0.1388
16007TIP3    H169512   6.429   2.145  14.465  0.2846 -0.8832 -0.1301
16007TIP3    H269513   6.495   2.066  14.575 -0.4560  0.1337  1.0680
16008TIP3   OH269514   5.377   1.268  15.343 -0.2426  0.7261 -0.2800
16008TIP3    H169515   5.472   1.274  15.354 -0.2374  1.3833 -0.6620
16008TIP3    H269516   5.364   1.199  15.278 -0.1009 -0.3941  0.8407
16009TIP3   OH269517   0.176   4.150   4.812 -0.3691  0.1001 -0.0309
16009TIP3    H169518   0.222   4.090   4.754  1.6909  0.6614  0.9142
16009TIP3    H269519   0.216   4.136   4.898 -1.3478  1.2816  0.6602
16010TIP3   OH269520   5.379   6.033   4.984 -0.8696 -0.7292 -0.0329
16010TIP3    H169521   5.359   6.042   4.890 -0.8283 -1.0985 -0.0762
16010TIP3    H269522   5.395   5.940   4.996  1.0517 -0.4559 -0.0553
16011TIP3   OH269523   6.647   5.401  15.056 -0.4076 -0.3699 -0.3742
16011TIP3    H169524   6.670   5.326  15.000 -0.0217 -2.4241  2.3115
16011TIP3    H269525   6.707   5.395  15.130  0.3205  3.2944 -0.4891
16012TIP3   OH269526   2.573   4.348  14.040 -0.8041  0.1739 -0.5078
16012TIP3    H169527   2.629   4.295  14.097  0.4526 -0.4095 -2.1894
16012TIP3    H269528   2.613   4.435  14.042 -1.0815  0.2908 -0.0772
16013TIP3   OH269529   5.966   2.292   0.521 -0.8135 -0.1425 -0.2109
16013TIP3    H169530   6.056   2.267   0.499  0.3862  2.2120  1.5410
16013TIP3    H269531   5.917   2.209   0.523  0.8854 -1.3316 -2.7824
16014TIP3   OH269532   6.268   1.044   0.099  0.8809 -0.0923  0.3007
16014TIP3    H169533   6.267   1.065   0.193 -0.9648  0.6693  0.1618
16014TIP3    H269534   6.204   0.973   0.091  0.2047  0.5892 -0.5078
16015TIP3   OH269535   0.735   2.008  13.474  0.2813 -0.3855 -0.1798
16015TIP3    H169536   0.655   1.979  13.429  0.5824  1.2819 -1.9164
16015TIP3    H269537   0.769   1.929  13.516 -0.5793 -1.8467 -2.0800
16016TIP3   OH269538   3.407   3.000   1.032 -0.3299  0.1604 -0.1336
16016TIP3    H169539   3.431   2.911   1.007 -0.3416  0.2838 -0.5897
16016TIP3    H269540   3.355   2.990   1.112  2.2068 -0.0439  1.5822
16017TIP3   OH269541   5.452   6.303   1.891 -0.3579 -0.1662  0.4937
16017TIP3    H169542   5.486   6.388   1.862  0.7310 -1.2636 -1.7395
16017TIP3    H269543   5.530   6.248   1.899 -1.2265 -1.7743 -1.2182
16018TIP3   OH269544   3.175   1.938   4.038  0.1997 -0.6236  0.0665
16018TIP3    H169545   3.192   1.987   4.119  1.8410 -1.9648  0.5692
16018TIP3    H269546   3.135   2.003   3.979  0.5017  0.7963  1.3665
16019TIP3   OH269547   3.603   5.314   4.820  0.2845 -0.1605  0.0501
16019TIP3    H169548   3.535   5.313   4.753 -0.8821  0.8600  1.1663
16019TIP3    H269549   3.654   5.392   4.802 -1.1117  1.1126  1.3208
16020TIP3   OH269550   2.448   3.889   2.089  0.4315  0.1918 -0.0320
16020TIP3    H169551   2.518   3.842   2.134 -0.5739 -2.3000 -0.9091
16020TIP3    H269552   2.457   3.864   1.997 -1.2647  0.2293 -0.2490
16021TIP3   OH269553   1.907   1.763   3.005 -0.2827  0.2435  0.2797
16021TIP3    H169554   1.856   1.682   3.000  0.8122 -0.4315 -0.2472
16021TIP3    H269555   1.903   1.800   2.917  2.4231 -1.2863 -0.5835
16022TIP3   OH269556   2.638   3.864  16.041 -0.3937  0.1836  0.8901
16022TIP3    H169557   2.575   3.858  16.113 -0.6264 -0.8724  0.6057
16022TIP3    H269558   2.589   3.838  15.963  0.4692 -0.9904  0.7118
16023TIP3   OH269559   5.831   1.935   5.872 -0.4281  0.1717 -0.3781
16023TIP3    H169560   5.870   2.007   5.922  1.7992 -1.3694  0.2765
16023TIP3    H269561   5.816   1.971   5.784 -1.0821  1.8996  0.3973
16024TIP3   OH269562   5.752   6.266  13.224 -0.3941 -0.0203  0.6932
16024TIP3    H169563   5.777   6.214  13.148 -3.3254 -0.1669 -0.3060
16024TIP3    H269564   5.739   6.202  13.294  0.0541 -0.1435  0.6660
16025TIP3   OH269565   2.840   0.718  13.359  0.0103  0.5232 -0.2400
16025TIP3    H169566   2.802   0.648  13.306 -1.0570 -0.3050  1.5349
16025TIP3    H269567   2.895   0.673  13.423  1.8991  1.5556 -1.0455
16026TIP3   OH269568   3.007   2.092  14.492 -0.1766  0.2169  0.0122
16026TIP3    H169569   2.920   2.052  14.501  0.3008 -0.3200  4.3300
16026TIP3    H269570   3.061   2.025  14.451 -0.9846 -0.8909  0.7143
16027TIP3   OH269571   1.691   5.267   2.101 -0.3406 -0.5225  0.0159
16027TIP3    H169572   1.762   5.317   2.143 -0.9923  0.0508  0.4545
16027TIP3    H269573   1.651   5.329   2.040  0.5250 -1.3196 -1.4242
16028TIP3   OH269574   1.482   0.836  13.241  1.0749  0.3766  0.1013
16028TIP3    H169575   1.397   0.851  13.198  1.1865  0.2800 -0.1587
16028TIP3    H269576   1.504   0.746  13.217  1.1389  0.3211  0.3673
16029TIP3   OH269577   2.897   1.120  17.264 -0.3126 -0.1445  0.1068
16029TIP3    H169578   2.966   1.091  17.204 -0.1997 -1.1704  0.7259
16029TIP3    H269579   2.833   1.163  17.207  1.1158  1.4080 -0.4133
16030TIP3   OH269580   3.146   3.033  17.182  0.3960 -0.2481  0.0332
16030TIP3    H169581   3.060   3.021  17.142  0.5801 -0.0733 -0.4226
16030TIP3    H269582   3.208   3.028  17.109  0.5953  2.0652 -0.0364
16031TIP3   OH269583   2.147   4.711  11.141 -0.6699 -0.0665 -0.6475
16031TIP3    H169584   2.124   4.691  11.051  0.2137  0.3889 -0.9904
16031TIP3    H269585   2.195   4.634  11.172  3.1565  1.4646 -2.1183
16032TIP3   OH269586   4.994   2.741   4.160  0.9609  0.0548 -0.9179
16032TIP3    H169587   5.057   2.812   4.166  0.6571  0.2223  0.9871
16032TIP3    H269588   5.031   2.681   4.095  1.3327  1.8019 -2.3895
16033TIP3   OH269589   3.978   0.868   5.744  0.1816 -0.1314 -0.2231
16033TIP3    H169590   4.008   0.938   5.686 -0.1811 -0.5533 -0.9219
16033TIP3    H269591   3.940   0.915   5.819  0.4569  0.4167 -0.4184
16034TIP3   OH269592   1.739   6.750   1.124 -0.1150 -0.0001  0.0265
16034TIP3    H169593   1.661   6.801   1.147 -0.3876 -0.4152  0.0348
16034TIP3    H269594   1.734   6.673   1.182 -1.3207 -1.5657 -2.0113
16035TIP3   OH269595   3.151   0.173   2.922 -0.2134 -0.3461  0.4858
16035TIP3    H169596   3.062   0.181   2.885 -0.3304  0.4234  0.9117
16035TIP3    H269597   3.143   0.208   3.011  0.5492 -0.1253  0.4735
16036TIP3   OH269598   6.457   0.563  14.584  0.4508 -0.5580  0.6351
16036TIP3    H169599   6.493   0.521  14.662  0.4040 -2.6896 -0.4183
16036TIP3    H269600   6.474   0.501  14.513  1.4669  1.7728 -1.3001
16037TIP3   OH269601   4.633   5.071  12.350  0.0073  0.3155 -0.1544
16037TIP3    H169602   4.682   4.991  12.334 -1.1052 -0.2839 -0.6918
16037TIP3    H269603   4.671   5.135  12.289  1.0166  0.2630  0.4049
16038TIP3   OH269604   0.899   4.878   1.704  0.0063 -0.2417  0.5826
16038TIP3    H169605   0.889   4.924   1.620 -0.9973  1.5005  1.5890
16038TIP3    H269606   0.991   4.853   1.707  0.0756 -0.2819 -1.0014
16039TIP3   OH269607   4.605   3.324   1.838 -0.0540 -0.0451 -0.8373
16039TIP3    H169608   4.563   3.409   1.845  2.6312  1.3126  0.1204
16039TIP3    H269609   4.586   3.294   1.749 -1.7811  1.1176 -0.8966
16040TIP3   OH269610   3.394   5.154   4.231 -0.1170  0.1586  0.2407
16040TIP3    H169611   3.302   5.137   4.211  0.0225 -1.6309  0.9328
16040TIP3    H269612   3.405   5.122   4.321  1.1664  0.4374  0.1979
16041TIP3   OH269613   4.441   0.138  15.410 -0.2604 -0.6338  0.4524
16041TIP3    H169614   4.480   0.218  15.376 -0.1036  0.9264  3.8943
16041TIP3    H269615   4.492   0.068  15.369  0.5334  1.0388 -1.5890
16042TIP3   OH269616   6.756   0.899   4.854 -0.3075 -0.2521  0.2911
16042TIP3    H169617   6.759   0.865   4.765  0.5221  1.1308 -0.2445
16042TIP3    H269618   6.701   0.837   4.902  1.8398 -2.8385 -0.3545
16043TIP3   OH269619   6.166   0.720   4.730 -0.4111  0.2412  0.1688
16043TIP3    H169620   6.157   0.748   4.821 -0.8719  1.1533 -0.1464
16043TIP3    H269621   6.139   0.796   4.679 -2.0471 -0.8737 -0.7191
16044TIP3   OH269622   4.681   5.626   2.581 -0.5843 -0.2920 -0.2963
16044TIP3    H169623   4.729   5.641   2.663 -0.2843 -0.9057 -0.3507
16044TIP3    H269624   4.637   5.542   2.594 -1.7234  0.3016 -0.2219
16045TIP3   OH269625   1.787   4.730  12.900 -0.3677 -0.5874 -0.2322
16045TIP3    H169626   1.724   4.698  12.835 -0.8299 -2.8016  1.1818
16045TIP3    H269627   1.871   4.694  12.870 -0.6008 -1.7195  0.3955
16046TIP3   OH269628   0.372   4.190  13.178 -0.1214 -0.0871  0.6182
16046TIP3    H169629   0.391   4.223  13.090  0.8510 -0.3319  0.7305
16046TIP3    H269630   0.288   4.230  13.200 -0.5741 -0.3374 -0.5749
16047TIP3   OH269631   1.216   4.190   2.696 -0.0537  0.2626 -0.6418
16047TIP3    H169632   1.168   4.245   2.758 -1.6562  0.1274 -1.7199
16047TIP3    H269633   1.262   4.252   2.639  1.4059  0.3887  0.5977
16048TIP3   OH269634   4.940   1.466   6.581 -0.1220  0.3235 -0.6214
16048TIP3    H169635   4.921   1.452   6.674  0.6084  0.2575 -0.4708
16048TIP3    H269636   4.856   1.459   6.537 -0.7094  1.7432  0.2013
16049TIP3   OH269637   5.829   1.066   3.566 -0.1827 -0.0261 -0.2126
16049TIP3    H169638   5.735   1.074   3.547 -0.4176 -1.0831  0.4100
16049TIP3    H269639   5.841   0.973   3.588  1.3124 -0.3001 -1.9153
16050TIP3   OH269640   5.217   2.219  13.524  0.1233  0.4718 -0.0556
16050TIP3    H169641   5.272   2.188  13.596 -1.6857 -2.8378  0.0955
16050TIP3    H269642   5.164   2.289  13.562  0.1667 -0.2906  1.4774
16051TIP3   OH269643   6.172   6.347   4.587  0.1512  0.5379 -0.4109
16051TIP3    H169644   6.259   6.322   4.617 -0.1533  0.8892  0.7957
16051TIP3    H269645   6.165   6.440   4.609 -0.4279  0.5783 -0.7468
16052TIP3   OH269646   4.547   3.668  15.109  0.1410 -0.8083 -0.1629
16052TIP3    H169647   4.476   3.731  15.094 -0.6797 -2.1577 -2.5050
16052TIP3    H269648   4.515   3.614  15.181 -1.4850 -1.6608 -1.4440
16053TIP3   OH269649   1.572   0.830  14.557 -0.2367  0.0198 -0.2759
16053TIP3    H169650   1.631   0.787  14.495  0.0128  0.6912 -0.5095
16053TIP3    H269651   1.610   0.811  14.643  0.4467  0.6122 -0.4326
16054TIP3   OH269652   2.798   5.618   5.041 -0.9238 -0.0285 -0.7642
16054TIP3    H169653   2.821   5.656   5.126 -2.2517 -0.8562  0.0069
16054TIP3    H269654   2.851   5.538   5.035 -0.2674  0.4243 -1.0723
16055TIP3   OH269655   6.199   2.035  13.660  0.3580 -0.0760 -0.0965
16055TIP3    H169656   6.175   1.943  13.670 -1.5809  0.3808 -0.2594
16055TIP3    H269657   6.240   2.057  13.744 -1.9584 -0.3199  1.1918
16056TIP3   OH269658   4.319   0.738  14.464 -0.1479  0.2925 -0.8182
16056TIP3    H169659   4.234   0.694  14.469 -0.6109  1.1798 -0.7741
16056TIP3    H269660   4.383   0.668  14.480 -0.8735 -0.3379 -0.6222
16057TIP3   OH269661   1.340   0.386   5.291  0.1560 -0.0962  0.5045
16057TIP3    H169662   1.407   0.402   5.357  0.3745 -1.0692  0.5362
16057TIP3    H269663   1.357   0.297   5.261 -1.3564 -0.5067  0.7839
16058TIP3   OH269664   0.356   5.521  16.400 -0.4574 -0.4004  0.1571
16058TIP3    H169665   0.282   5.534  16.341 -0.3456  0.9900  0.2917
16058TIP3    H269666   0.433   5.530  16.344 -0.3498  0.9511  0.4708
16059TIP3   OH269667   5.886   3.419   4.278 -0.2427 -0.5236 -0.0595
16059TIP3    H169668   5.982   3.417   4.274 -0.2895 -2.1660 -1.8752
16059TIP3    H269669   5.864   3.512   4.280  1.3765 -0.0925 -0.5842
16060TIP3   OH269670   5.958   2.645  11.606 -0.5766  0.4277  0.0515
16060TIP3    H169671   5.988   2.727  11.646  0.6275  0.2435 -0.4481
16060TIP3    H269672   5.958   2.663  11.512 -1.7434  0.3133  0.0162
16061TIP3   OH269673   2.900   4.638   1.150 -0.3773  0.6716  0.6246
16061TIP3    H169674   2.899   4.706   1.083 -2.8862  0.4558  0.3558
16061TIP3    H269675   2.930   4.560   1.103 -2.0558  0.5350 -0.3008
16062TIP3   OH269676   3.812   4.112   3.055  0.2731  0.1016 -0.6030
16062TIP3    H169677   3.804   4.170   3.130 -1.4008 -0.3240 -0.3997
16062TIP3    H269678   3.777   4.163   2.981  2.3042  0.6764 -1.2313
16063TIP3   OH269679   2.294   0.433   0.860  0.2761  0.5294 -0.0874
16063TIP3    H169680   2.304   0.349   0.816  1.1359  0.2870  0.5367
16063TIP3    H269681   2.297   0.498   0.789 -0.9386  0.0141 -0.6251
16064TIP3   OH269682   5.032   5.950  14.036 -0.0362 -0.0469  0.7892
16064TIP3    H169683   4.983   5.993  14.106 -0.4785 -0.9616  1.0418
16064TIP3    H269684   5.091   6.019  14.004 -1.6155  1.1679  0.3205
16065TIP3   OH269685   1.009   0.855  11.083  0.6058 -0.5554 -0.0817
16065TIP3    H169686   1.009   0.778  11.026  0.6960 -1.9606  1.7426
16065TIP3    H269687   1.002   0.820  11.171  0.6165  1.5516  0.8154
16066TIP3   OH269688   0.211   2.438  12.925 -0.4741  0.6891  0.4051
16066TIP3    H169689   0.265   2.503  12.881  1.0860  0.2468  1.5987
16066TIP3    H269690   0.125   2.447  12.884 -0.2536  3.3135  0.3437
16067TIP3   OH269691   6.329   3.174   2.078 -0.0324 -0.6482  0.1681
16067TIP3    H169692   6.385   3.097   2.075  0.2141 -0.4443 -1.9611
16067TIP3    H269693   6.245   3.144   2.044  0.1409  0.0464 -0.9204
16068TIP3   OH269694   3.412   0.030   0.124  0.3401 -0.3431  0.5853
16068TIP3    H169695   3.327   0.014   0.083  1.1001 -0.9402 -0.8256
16068TIP3    H269696   3.441  -0.057   0.152  1.6516 -0.6171 -1.3834
16069TIP3   OH269697   1.404   3.646  16.649 -0.0180  1.1168 -0.7407
16069TIP3    H169698   1.457   3.714  16.690  1.4709 -0.6857  0.4746
16069TIP3    H269699   1.358   3.604  16.721 -2.0091  1.6433 -1.6171
16070TIP3   OH269700   6.077   6.001  13.976  0.0003  0.1369 -0.4338
16070TIP3    H169701   6.147   6.062  13.952  0.8239 -0.5805  0.0754
16070TIP3    H269702   6.073   5.939  13.903 -1.0051  0.9195 -1.0666
16071TIP3   OH269703   2.571   1.660  14.922 -0.2865 -0.2532 -0.8206
16071TIP3    H169704   2.564   1.575  14.965  0.1405 -0.3573 -0.9470
16071TIP3    H269705   2.666   1.676  14.917 -0.3356 -0.1740 -1.5867
16072TIP3   OH269706   4.484   3.554   6.232 -0.0692 -1.3292 -0.1313
16072TIP3    H169707   4.419   3.494   6.270 -0.2191 -0.5519  0.8698
16072TIP3    H269708   4.559   3.548   6.291 -0.2110 -0.2819  0.1642
16073TIP3   OH269709   1.239   5.592  12.317  0.0277 -0.2856  0.1177
16073TIP3    H169710   1.236   5.518  12.377  1.1419  0.2450  0.8547
16073TIP3    H269711   1.294   5.657  12.361  0.4339  0.3290 -1.2431
16074TIP3   OH269712   4.218   2.105  15.395  0.1512  0.5204  0.2078
16074TIP3    H169713   4.295   2.161  15.395 -1.3716  2.7962  1.5801
16074TIP3    H269714   4.196   2.095  15.303  1.1257  1.2759 -0.1261
16075TIP3   OH269715   0.893   0.477   2.278  0.2704 -0.5866  0.3161
16075TIP3    H169716   0.964   0.447   2.220  0.4619  0.2517  0.1057
16075TIP3    H269717   0.830   0.405   2.276  0.6682 -0.9363 -0.2638
16076TIP3   OH269718   2.247   5.687   2.437  0.4663 -0.4609  0.5269
16076TIP3    H169719   2.290   5.761   2.395 -0.5689 -0.0076  0.2348
16076TIP3    H269720   2.279   5.611   2.389 -2.1038  0.1603 -2.5207
16077TIP3   OH269721   4.297   2.411  15.688  0.1154  1.0689  0.2587
16077TIP3    H169722   4.292   2.407  15.784  0.4170  0.9609  0.2688
16077TIP3    H269723   4.232   2.477  15.664 -0.1153  0.9436  0.5234
16078TIP3   OH269724   2.375   4.238   0.788  0.1419 -0.3858 -0.2630
16078TIP3    H169725   2.315   4.168   0.814 -1.0367  0.4601 -0.6082
16078TIP3    H269726   2.363   4.306   0.854  1.5071 -0.6076  0.2455
16079TIP3   OH269727   0.129   5.703   3.303  0.5505  0.1837  0.3666
16079TIP3    H169728   0.148   5.623   3.352 -1.4661 -0.9581 -0.6015
16079TIP3    H269729   0.196   5.707   3.235  1.0994 -0.2570  0.8735
16080TIP3   OH269730   3.067   2.165  12.787  0.1785 -0.1515 -0.5591
16080TIP3    H169731   3.134   2.184  12.722  1.9022  1.0201  1.4378
16080TIP3    H269732   3.057   2.246  12.836 -1.6216 -0.7601  0.1815
16081TIP3   OH269733   6.296   5.297   5.225 -0.6183 -0.6715 -0.2125
16081TIP3    H169734   6.238   5.346   5.167  1.2658 -0.7219 -2.2758
16081TIP3    H269735   6.297   5.209   5.189 -0.0545 -0.9241  0.4060
16082TIP3   OH269736   0.459   0.189  13.355 -0.2674 -0.3536 -0.0673
16082TIP3    H169737   0.538   0.197  13.301 -0.2018 -0.1711  0.0584
16082TIP3    H269738   0.458   0.097  13.382  0.2741 -0.1929  0.5072
16083TIP3   OH269739   2.562   5.332   0.944  0.2887  0.3196 -0.3206
16083TIP3    H169740   2.620   5.287   0.883 -0.7550  0.4097 -1.4192
16083TIP3    H269741   2.549   5.419   0.905  0.0679  0.5861  0.3350
16084TIP3   OH269742   6.756   3.260  13.027  0.0328  0.1059  0.4632
16084TIP3    H169743   6.767   3.354  13.042 -1.9655  0.1607  2.0266
16084TIP3    H269744   6.680   3.236  13.080  1.5279 -2.7529  1.5366
16085TIP3   OH269745   3.334   0.676  17.223 -0.2892  0.2620 -0.3714
16085TIP3    H169746   3.314   0.612  17.291  0.5940  0.9321  0.5588
16085TIP3    H269747   3.248   0.708  17.195 -0.6644  0.8053  1.2719
16086TIP3   OH269748   1.813   6.148  10.338 -0.3917  0.1849  0.2645
16086TIP3    H169749   1.830   6.136  10.432 -2.2727 -1.2022  0.4734
16086TIP3    H269750   1.858   6.076  10.296  1.2754  1.3517 -0.0504
16087TIP3   OH269751   5.600   4.014   2.598  0.1027 -0.0858  0.4181
16087TIP3    H169752   5.684   4.030   2.641  0.1488  0.7878  0.0154
16087TIP3    H269753   5.621   3.949   2.530  0.3198 -0.3523  0.7364
16088TIP3   OH269754   2.706   1.672  15.799  0.2388 -0.1490 -0.0690
16088TIP3    H169755   2.657   1.602  15.756 -0.1341 -0.4933  0.9070
16088TIP3    H269756   2.640   1.733  15.829  0.3655 -0.7327  1.4618
16089TIP3   OH269757   5.125   0.082  14.859  0.1607  0.2159  0.9540
16089TIP3    H169758   5.195   0.121  14.912 -0.4650  0.0849  1.8975
16089TIP3    H269759   5.157  -0.006  14.840  0.2404  0.1330  1.4404
16090TIP3   OH269760   4.632   6.333  15.822 -0.5705  0.3799  0.4073
16090TIP3    H169761   4.695   6.280  15.871  0.2057 -1.2117 -2.0983
16090TIP3    H269762   4.547   6.291  15.839 -0.1460 -0.8968 -0.4593
16091TIP3   OH269763   0.943   2.979  14.780  0.1907 -0.1097 -0.0811
16091TIP3    H169764   0.906   2.963  14.694 -1.6109  0.7509  0.4816
16091TIP3    H269765   0.944   3.074  14.789 -1.4515 -0.1778  1.5282
16092TIP3   OH269766   6.134   2.968  12.118 -0.0267 -1.4357  0.2528
16092TIP3    H169767   6.091   2.897  12.071  0.1590 -0.9234 -0.7278
16092TIP3    H269768   6.228   2.953  12.103 -0.0083 -0.5496 -0.6542
16093TIP3   OH269769   6.184   3.370  14.660 -0.4140 -0.0305 -0.0321
16093TIP3    H169770   6.217   3.283  14.636  1.5424  0.2719  1.3145
16093TIP3    H269771   6.233   3.430  14.605 -0.4003  0.3148  0.3516
16094TIP3   OH269772   2.878   5.355  16.205  0.0921 -0.4496  0.0647
16094TIP3    H169773   2.921   5.431  16.166 -0.4346  0.0103  0.3685
16094TIP3    H269774   2.823   5.320  16.135  1.1978 -1.2600 -0.4430
16095TIP3   OH269775   2.232   1.442   3.825 -0.5484  0.8449 -0.5010
16095TIP3    H169776   2.166   1.390   3.871  0.5168 -0.5695 -0.5142
16095TIP3    H269777   2.229   1.410   3.735 -0.0005  0.9382 -0.5543
16096TIP3   OH269778   6.447   4.749   0.106  0.4199 -0.1949  0.5630
16096TIP3    H169779   6.530   4.740   0.153  1.1747 -0.3497 -0.7600
16096TIP3    H269780   6.471   4.792   0.023 -0.8155 -0.2878  0.1400
16097TIP3   OH269781   0.544   4.796  14.476  0.3905 -0.1523  0.3700
16097TIP3    H169782   0.560   4.881  14.434  0.3742  0.2499  1.1701
16097TIP3    H269783   0.546   4.814  14.570  2.7065 -1.4369  0.6487
16098TIP3   OH269784   0.237   6.513   4.412  0.2543 -0.2120 -0.7670
16098TIP3    H169785   0.237   6.447   4.481  0.3850  0.9662  0.4090
16098TIP3    H269786   0.300   6.481   4.347  1.9240 -0.2404  0.7894
16099TIP3   OH269787   5.571   0.892  14.773 -0.2206 -0.0183  0.0564
16099TIP3    H169788   5.624   0.902  14.851  0.5157  0.5849 -0.5140
16099TIP3    H269789   5.612   0.949  14.708 -0.6205 -0.7609 -0.8715
16100TIP3   OH269790   0.920   3.137  15.512 -0.2768  0.3350 -0.0064
16100TIP3    H169791   0.885   3.226  15.507  1.9112  1.2439 -0.6283
16100TIP3    H269792   0.847   3.083  15.542 -2.0461  2.1002 -0.9624
16101TIP3   OH269793   3.789   3.917   0.446 -0.0135  0.3071  0.4557
16101TIP3    H169794   3.815   3.945   0.534  0.3588  0.6818  0.2313
16101TIP3    H269795   3.828   3.830   0.436 -0.0641  0.2609  0.6670
16102TIP3   OH269796   1.198   4.391  15.512 -0.2134 -0.2407  0.5856
16102TIP3    H169797   1.167   4.446  15.583 -0.8750 -0.3633  0.4087
16102TIP3    H269798   1.253   4.448  15.459  1.1240 -0.4228  1.7426
16103TIP3   OH269799   1.676   2.243   4.071  0.2623 -0.6116  0.1005
16103TIP3    H169800   1.591   2.281   4.049 -0.0639 -0.6907  1.1749
16103TIP3    H269801   1.728   2.252   3.991  0.3019  2.3807  0.3519
16104TIP3   OH269802   3.099   0.213  17.311 -0.6416  0.0780  0.0638
16104TIP3    H169803   3.140   0.163  17.240  0.5210  0.9064  0.1205
16104TIP3    H269804   3.059   0.288  17.268  0.3932  0.7865  0.2920
16105TIP3   OH269805   2.229   5.255  16.312 -0.5560  0.2211 -0.2802
16105TIP3    H169806   2.219   5.350  16.327 -0.9863  0.1463 -0.0725
16105TIP3    H269807   2.171   5.215  16.377  1.1469 -0.2490  1.0467
16106TIP3   OH269808   5.121   5.795  12.710 -0.0373  0.1281 -0.0042
16106TIP3    H169809   5.190   5.861  12.704 -0.1609  0.2884  0.3292
16106TIP3    H269810   5.041   5.845  12.727 -0.1955 -0.0783 -0.1261
16107TIP3   OH269811   3.007   6.141  11.346  0.3564  0.6014 -0.3558
16107TIP3    H169812   2.993   6.214  11.406  1.6182 -0.2441  1.0356
16107TIP3    H269813   3.097   6.150  11.317  0.2117  0.1620 -0.9719
16108TIP3   OH269814   0.618   5.208   6.027 -0.3134  0.0910 -0.8683
16108TIP3    H169815   0.638   5.169   5.942  1.7456 -0.0056 -0.3903
16108TIP3    H269816   0.645   5.300   6.019  1.5590 -0.3231  0.1697
16109TIP3   OH269817   1.462   0.866   0.005 -0.9451  0.0458  0.3367
16109TIP3    H169818   1.389   0.849  -0.055 -0.0320  1.3863 -1.2211
16109TIP3    H269819   1.419   0.879   0.090 -2.6894  1.8983 -0.7270
16110TIP3   OH269820   4.433   6.428   0.343 -0.2136  0.4875  0.4229
16110TIP3    H169821   4.454   6.360   0.279  3.2329  1.3166  0.4455
16110TIP3    H269822   4.349   6.463   0.314 -1.1116 -2.3435 -0.7723
16111TIP3   OH269823   2.535   1.960  12.031 -0.5205  0.1451  0.1575
16111TIP3    H169824   2.574   2.006  11.956  0.7777  0.2075  0.8312
16111TIP3    H269825   2.504   1.877  11.995 -1.1838  0.7611 -0.7121
16112TIP3   OH269826   5.482   4.731   1.829 -0.4043 -0.1606  0.4689
16112TIP3    H169827   5.446   4.642   1.833 -1.4438  0.1975 -0.3123
16112TIP3    H269828   5.473   4.764   1.918 -1.4504 -0.3198  0.4411
16113TIP3   OH269829   3.016   5.649  12.152  0.0364 -0.0020  0.1833
16113TIP3    H169830   2.995   5.614  12.066  1.3564 -2.0730  0.6390
16113TIP3    H269831   3.008   5.574  12.212  0.6090  1.0268  1.6254
16114TIP3   OH269832   4.842   6.790   5.796  0.0203 -0.2409 -0.3445
16114TIP3    H169833   4.856   6.876   5.837 -1.0960 -0.7159  1.1373
16114TIP3    H269834   4.769   6.752   5.845  1.4705 -2.6851  0.0629
16115TIP3   OH269835   5.530   1.757  11.078 -0.0512 -0.3655 -0.0576
16115TIP3    H169836   5.458   1.818  11.095 -0.1549 -0.3636 -0.4767
16115TIP3    H269837   5.500   1.706  11.003  1.1647  0.9526 -1.5232
16116TIP3   OH269838   6.049   3.493  12.754  0.0736  0.8370 -0.3747
16116TIP3    H169839   5.961   3.473  12.784  0.8781 -0.9778  0.9533
16116TIP3    H269840   6.054   3.589  12.757 -1.0414  0.9037  2.1497
16117TIP3   OH269841   1.421   2.478  16.520 -0.3645 -0.5463 -0.5751
16117TIP3    H169842   1.464   2.405  16.476  0.8936 -0.6844  0.8125
16117TIP3    H269843   1.448   2.471  16.611 -1.1463  0.9936 -0.1866
16118TIP3   OH269844   5.458   0.801  10.462  0.1907 -0.6019 -0.4828
16118TIP3    H169845   5.522   0.734  10.485 -0.0684 -0.8013 -0.3359
16118TIP3    H269846   5.378   0.752  10.443 -0.0424 -0.3230 -0.2277
16119TIP3   OH269847   1.153   5.606  10.744 -0.5182 -0.3916 -0.9463
16119TIP3    H169848   1.164   5.688  10.695 -2.1886  0.4982  0.0929
16119TIP3    H269849   1.069   5.571  10.715 -1.5388  0.1355  1.1645
16120TIP3   OH269850   4.702   5.620   5.149  0.2272  0.1308  0.3240
16120TIP3    H169851   4.647   5.648   5.222 -1.6087 -0.4210 -0.7731
16120TIP3    H269852   4.712   5.698   5.095  0.8366  0.3167  0.6960
16121TIP3   OH269853   1.526   3.392   5.635  0.0484  0.5151 -0.5298
16121TIP3    H169854   1.569   3.306   5.636 -1.5904 -0.3509 -0.5397
16121TIP3    H269855   1.461   3.387   5.706 -0.3612  1.5853 -0.8160
16122TIP3   OH269856   1.640   6.528   2.618  0.2629  0.2882  0.2712
16122TIP3    H169857   1.729   6.500   2.640  0.1943 -0.1713 -0.0223
16122TIP3    H269858   1.624   6.491   2.531 -0.6546 -0.6631  0.8194
16123TIP3   OH269859   6.344   3.011  16.325 -0.2579  0.1874 -0.0643
16123TIP3    H169860   6.365   2.924  16.361  0.4563  0.5267  0.3579
16123TIP3    H269861   6.409   3.026  16.257 -0.7504  0.1474 -0.5543
16124TIP3   OH269862   4.188   3.664   6.314 -0.2635  0.2125  0.3076
16124TIP3    H169863   4.227   3.586   6.273  0.6327  1.0366 -0.4606
16124TIP3    H269864   4.120   3.629   6.371  1.0708 -1.2457  1.0942
16125TIP3   OH269865   2.589   5.148  14.470  0.0455  0.3330  0.4972
16125TIP3    H169866   2.684   5.145  14.483  0.1759 -0.4266 -0.4857
16125TIP3    H269867   2.553   5.164  14.557  1.0833  0.7889  0.8555
16126TIP3   OH269868   1.406   4.109   3.955  0.7952  0.3635 -0.1839
16126TIP3    H169869   1.344   4.138   3.888 -0.8918  0.3275  1.2502
16126TIP3    H269870   1.394   4.014   3.958 -1.3494  0.5862  2.0399
16127TIP3   OH269871   5.633   0.846   3.189 -0.6449 -0.4767 -0.8540
16127TIP3    H169872   5.694   0.836   3.262 -0.3951 -0.4326 -1.0516
16127TIP3    H269873   5.551   0.808   3.219 -0.5476 -0.4410 -0.5452
16128TIP3   OH269874   4.608   3.906   3.600 -0.0556  0.3364 -0.2571
16128TIP3    H169875   4.687   3.881   3.647 -0.6935 -1.5444 -0.1261
16128TIP3    H269876   4.591   3.996   3.627  2.3999  1.0362 -0.8159
16129TIP3   OH269877   5.616   3.216   1.674 -0.1240 -0.0932  0.0534
16129TIP3    H169878   5.650   3.235   1.761  0.7755  0.0341 -0.3168
16129TIP3    H269879   5.552   3.146   1.688 -0.3936  0.3043  0.8816
16130TIP3   OH269880   4.621   2.781   2.020 -0.0811 -0.4749  0.5818
16130TIP3    H169881   4.648   2.850   2.081  0.4747  0.6022 -0.8388
16130TIP3    H269882   4.644   2.815   1.933  1.0117 -2.8268 -0.1223
16131TIP3   OH269883   4.586   6.270  12.282 -0.2857 -0.5939 -0.1275
16131TIP3    H169884   4.561   6.179  12.293  1.0128 -1.1930 -1.7289
16131TIP3    H269885   4.682   6.270  12.283 -0.2550  0.7342 -0.2468
16132TIP3   OH269886   4.541   1.987  10.706 -0.0414 -0.4959  0.1168
16132TIP3    H169887   4.476   2.056  10.722  0.1499 -0.8641  3.0345
16132TIP3    H269888   4.562   1.996  10.614 -2.1905  1.4369 -0.3037
16133TIP3   OH269889   6.584   3.348   6.593 -0.2719  0.5630  0.5997
16133TIP3    H169890   6.673   3.336   6.626  0.0999 -0.4643 -0.6815
16133TIP3    H269891   6.528   3.305   6.658  0.5572 -2.8026 -0.7177
16134TIP3   OH269892   6.099   2.320   6.085  0.4332 -0.2319  0.5587
16134TIP3    H169893   6.161   2.257   6.048  1.2462 -0.6879  2.5933
16134TIP3    H269894   6.111   2.313   6.179 -1.9961  0.4316  0.9769
16135TIP3   OH269895   5.409   6.478   2.281  0.5635 -0.1191 -0.0898
16135TIP3    H169896   5.345   6.408   2.289  0.2491  0.1840  0.0855
16135TIP3    H269897   5.407   6.521   2.366 -0.4275  1.1104 -0.7007
16136TIP3   OH269898   6.155   1.163  12.644 -0.2390 -0.4409  0.3485
16136TIP3    H169899   6.178   1.073  12.664  0.4648 -0.4533 -0.4829
16136TIP3    H269900   6.230   1.198  12.596 -0.7153  0.4304  0.2085
16137TIP3   OH269901   5.893   2.704  13.868  0.6973  0.1395  0.4158
16137TIP3    H169902   5.808   2.707  13.911  0.9947  1.2573  0.9820
16137TIP3    H269903   5.949   2.759  13.923  1.5726  0.0861 -0.3980
16138TIP3   OH269904   6.241   2.629  12.210  0.2988  0.5577 -0.0287
16138TIP3    H169905   6.202   2.605  12.126  1.1272  1.1137 -0.5905
16138TIP3    H269906   6.321   2.675  12.186  0.7464  0.3758  1.0779
16139TIP3   OH269907   4.106   1.725  13.549 -0.0087 -0.5791  0.5710
16139TIP3    H169908   4.135   1.653  13.605 -0.1209 -0.8317  0.3007
16139TIP3    H269909   4.032   1.689  13.500 -0.4264 -0.1136  0.8432
16140TIP3   OH269910   3.047   1.528  15.126  0.5573  0.1149  0.0541
16140TIP3    H169911   3.063   1.500  15.036 -0.8673  1.2821 -0.6171
16140TIP3    H269912   2.953   1.514  15.139  0.4986  1.1474  0.8885
16141TIP3   OH269913   1.968   1.176  16.588  0.3464 -0.1953  0.0261
16141TIP3    H169914   2.037   1.237  16.563 -0.1970 -0.4434 -2.2880
16141TIP3    H269915   1.973   1.106  16.523 -2.1034 -0.1825 -0.2836
16142TIP3   OH269916   1.641   2.313  17.329  0.6604  0.4746 -0.2485
16142TIP3    H169917   1.575   2.286  17.392  0.1437  0.1792 -0.8992
16142TIP3    H269918   1.686   2.387  17.371  0.5500  0.0777  0.5893
16143TIP3   OH269919   0.508   0.012  17.285 -0.0058 -0.1163  0.1127
16143TIP3    H169920   0.418  -0.019  17.273  0.3127 -0.8966 -0.3065
16143TIP3    H269921   0.523   0.007  17.380 -0.0119 -1.1136  0.0718
16144TIP3   OH269922   2.542   2.837   4.599  0.2719 -0.4081  0.0357
16144TIP3    H169923   2.546   2.875   4.512  0.1367 -0.3959  0.0351
16144TIP3    H269924   2.558   2.910   4.658  0.0971 -0.3654  0.0310
16145TIP3   OH269925   6.002   1.290   5.030  0.2966 -0.6864 -0.0011
16145TIP3    H169926   6.043   1.205   5.048 -0.0875 -0.8540  0.0840
16145TIP3    H269927   6.005   1.298   4.935  0.4389 -0.7432 -0.0019
16146TIP3   OH269928   1.340   4.947   2.190  0.8091  0.4391 -0.7084
16146TIP3    H169929   1.432   4.938   2.164  0.9740  1.7002 -0.5996
16146TIP3    H269930   1.329   5.040   2.209  0.8637 -0.2663  4.2448
16147TIP3   OH269931   4.364   5.138  17.183 -0.5036  0.0153 -0.2107
16147TIP3    H169932   4.377   5.187  17.264  0.9423 -1.2070  0.3392
16147TIP3    H269933   4.284   5.087  17.198 -0.0571 -0.4638  0.6104
16148TIP3   OH269934   3.278   5.047   3.721 -0.6949  0.6706 -0.4776
16148TIP3    H169935   3.332   5.112   3.765 -0.8585  0.7840 -0.4410
16148TIP3    H269936   3.198   5.043   3.774  0.2898 -1.3918  1.0179
16149TIP3   OH269937   3.801   5.969   2.368 -0.2361 -0.6779  0.1955
16149TIP3    H169938   3.800   5.965   2.273 -1.1809  0.7372  0.1124
16149TIP3    H269939   3.830   5.882   2.396  2.7914 -0.3028 -1.4130
16150TIP3   OH269940   1.632   4.070   1.601  0.2272 -0.1385  0.3381
16150TIP3    H169941   1.569   4.046   1.670 -0.3460  2.4782  0.8217
16150TIP3    H269942   1.717   4.059   1.643 -0.0880  0.6812  1.2426
16151TIP3   OH269943   1.865   1.323  16.794 -0.6621 -0.2008 -0.2475
16151TIP3    H169944   1.922   1.302  16.868 -1.1215 -1.0831 -0.1243
16151TIP3    H269945   1.895   1.265  16.724 -1.6936 -1.0332 -0.0337
16152TIP3   OH269946   4.075   3.192   4.126 -0.2759 -0.1214 -0.3545
16152TIP3    H169947   4.062   3.226   4.215 -0.4204 -0.7205 -0.1451
16152TIP3    H269948   4.162   3.224   4.101 -0.5933  0.7920 -0.3404
16153TIP3   OH269949   1.772   0.868  13.094  0.4184 -0.2494 -0.5325
16153TIP3    H169950   1.757   0.801  13.161  1.7159 -0.6080 -0.5634
16153TIP3    H269951   1.719   0.839  13.019  0.5052 -0.9245 -0.3379
16154TIP3   OH269952   2.565   2.361   4.229 -0.3599  0.2289  0.2719
16154TIP3    H169953   2.517   2.393   4.306  0.4918 -0.3393  1.0593
16154TIP3    H269954   2.606   2.440   4.192 -0.4762  0.4482  0.6064
16155TIP3   OH269955   4.574   0.576   5.544 -0.3884 -0.0610  0.2397
16155TIP3    H169956   4.652   0.523   5.528 -1.1074 -0.5018 -2.2698
16155TIP3    H269957   4.606   0.650   5.596  0.9550 -2.0222  2.4221
16156TIP3   OH269958   0.037   2.445   4.395 -0.1154 -0.0049 -0.0116
16156TIP3    H169959   0.042   2.413   4.305  0.1404 -0.2927  0.1044
16156TIP3    H269960   0.107   2.399   4.441  0.0913  0.5261  0.2208
16157TIP3   OH269961   4.636   2.992   2.199 -0.3150  0.4016  0.0949
16157TIP3    H169962   4.719   3.035   2.179  0.0804 -0.1862  0.4494
16157TIP3    H269963   4.575   3.065   2.214  0.5174  0.8652  1.4182
16158TIP3   OH269964   6.031   0.016   1.256 -0.1256 -0.5464  0.0223
16158TIP3    H169965   6.015  -0.069   1.216 -1.0044  0.6474 -2.3194
16158TIP3    H269966   6.127   0.024   1.260  0.2261  0.3594 -4.6597
16159TIP3   OH269967   0.667   3.881   1.129  0.0217  0.0324 -0.0740
16159TIP3    H169968   0.645   3.899   1.220  1.8525 -2.1553  0.8986
16159TIP3    H269969   0.615   3.944   1.078 -2.8413 -0.2215  2.3179
16160TIP3   OH269970   6.633   2.208  12.489 -0.1695 -0.0614  0.0317
16160TIP3    H169971   6.669   2.165  12.566 -1.3264  0.8028  1.0802
16160TIP3    H269972   6.593   2.136  12.439  0.4047 -0.5923  0.3164
16161TIP3   OH269973   4.621   4.574  12.459  0.3760  0.4302 -0.1423
16161TIP3    H169974   4.537   4.621  12.459  0.3576  0.5714  2.4441
16161TIP3    H269975   4.596   4.482  12.460  0.1381  0.4700  1.8183
16162TIP3   OH269976   5.229   3.798  15.862  0.7580  0.4114 -0.1586
16162TIP3    H169977   5.235   3.843  15.778 -1.0499 -0.0060 -0.5672
16162TIP3    H269978   5.216   3.868  15.926 -2.5533  0.6232 -0.8446
16163TIP3   OH269979   1.914   0.804   0.354 -0.3003  0.0802  0.2659
16163TIP3    H169980   1.953   0.831   0.272  1.0033  0.5034  0.9990
16163TIP3    H269981   1.866   0.881   0.385 -0.8344 -0.0959 -0.1089
16164TIP3   OH269982   6.750   0.451   1.805 -0.1659  0.5928 -0.4999
16164TIP3    H169983   6.810   0.449   1.730  1.3070  2.3816  0.5469
16164TIP3    H269984   6.807   0.462   1.881 -1.7667  1.2559  0.6554
16165TIP3   OH269985   2.971   5.421   5.023  0.1322 -0.6513  0.1792
16165TIP3    H169986   2.976   5.330   5.054 -0.4742 -0.4885  0.7880
16165TIP3    H269987   3.030   5.424   4.948 -1.2526 -2.0162 -1.0168
16166TIP3   OH269988   0.862   1.527  16.227 -0.0553 -0.0855 -0.2245
16166TIP3    H169989   0.818   1.577  16.159  0.3282  0.1548 -0.2990
16166TIP3    H269990   0.819   1.554  16.309  1.4740  1.8900 -0.0186
16167TIP3   OH269991   1.026   4.755   1.348 -0.2655  0.2793 -0.2562
16167TIP3    H169992   1.033   4.831   1.406 -0.6518  2.4113 -2.8442
16167TIP3    H269993   1.108   4.707   1.362  0.9935  2.3709 -0.1133
16168TIP3   OH269994   1.057   2.095  16.924 -0.1753  0.2631 -0.1797
16168TIP3    H169995   1.031   2.092  16.832 -0.0417  1.8333 -0.2835
16168TIP3    H269996   1.043   2.186  16.951  2.7100  0.6149  0.4817
16169TIP3   OH269997   0.666   2.931  17.035 -0.1521  0.0274  0.1556
16169TIP3    H169998   0.685   2.867  16.967 -0.5391  0.3271 -0.2410
16169TIP3    H269999   0.726   3.003  17.017 -1.4052  0.8469 -0.9201
16170TIP3   OH270000   1.801   1.811   4.003  0.4502  0.4327  0.2924
16170TIP3    H170001   1.860   1.833   4.075  0.2519  0.3906  0.4699
16170TIP3    H270002   1.858   1.804   3.926  0.5943  0.9662  0.3465
16171TIP3   OH270003   1.869   2.229   0.178  0.2404  0.2144  0.0558
16171TIP3    H170004   1.893   2.304   0.124  0.7717 -0.7383 -1.0794
16171TIP3    H270005   1.910   2.246   0.263  1.7512  0.4278 -0.6967
16172TIP3   OH270006   4.871   0.588   5.902 -0.1561 -0.0079 -0.1823
16172TIP3    H170007   4.917   0.663   5.939  1.6203 -0.9308 -0.4144
16172TIP3    H270008   4.855   0.531   5.977  0.3042 -0.2947 -0.2983
16173TIP3   OH270009   6.248   5.765   3.153 -0.1599  0.1663 -0.0747
16173TIP3    H170010   6.246   5.765   3.249 -1.0565  0.4035 -0.0848
16173TIP3    H270011   6.341   5.765   3.131  0.0546  0.0202  0.7960
16174TIP3   OH270012   3.835   2.111   1.624  0.0700  0.0082 -0.5735
16174TIP3    H170013   3.785   2.156   1.693  1.0876  1.1145 -0.5350
16174TIP3    H270014   3.828   2.169   1.548  0.6474 -0.2024 -0.7928
16175TIP3   OH270015   2.878   2.314   3.208 -0.1365  0.3265 -0.5231
16175TIP3    H170016   2.826   2.393   3.192 -0.0293  0.0885 -2.2099
16175TIP3    H270017   2.925   2.299   3.125  0.9042 -0.7260  0.2263
16176TIP3   OH270018   2.980   0.320   3.497 -0.0254  0.2185  0.3404
16176TIP3    H170019   2.996   0.360   3.411 -0.5837  1.6752  0.8830
16176TIP3    H270020   3.035   0.242   3.497 -0.6740 -0.3062 -1.6712
16177TIP3   OH270021   4.033   4.997  12.907  0.1634  0.2015  0.0291
16177TIP3    H170022   3.950   5.014  12.951 -0.5593 -0.2563 -1.1189
16177TIP3    H270023   4.079   4.936  12.966 -0.5189  0.0637  0.4324
16178TIP3   OH270024   6.088   5.689   4.894  0.6583  0.5174  0.0468
16178TIP3    H170025   6.143   5.692   4.816  0.6616 -0.5896 -0.0162
16178TIP3    H270026   6.004   5.654   4.863  0.4269  0.7540  0.4047
16179TIP3   OH270027   1.082   1.552   2.772  0.3573 -0.0067  0.2796
16179TIP3    H170028   1.110   1.630   2.820  1.1621 -1.2488  1.9176
16179TIP3    H270029   1.091   1.481   2.835  0.3401 -1.5484 -1.3978
16180TIP3   OH270030   5.095   0.533  14.604 -0.5151  0.7025 -0.2955
16180TIP3    H170031   5.074   0.586  14.681 -1.2428 -1.0098  0.7384
16180TIP3    H270032   5.011   0.520  14.560 -0.7542 -1.3109  0.6458
16181TIP3   OH270033   2.054   6.181   2.355 -0.0947 -1.0382  0.7816
16181TIP3    H170034   2.124   6.166   2.420  0.9260  0.8632  0.1861
16181TIP3    H270035   2.043   6.276   2.353 -0.5186 -1.0882 -1.4050
16182TIP3   OH270036   1.368   5.358   1.789 -0.0865  0.6275 -0.4367
16182TIP3    H170037   1.351   5.402   1.706 -0.9452 -1.3408 -1.3833
16182TIP3    H270038   1.282   5.324   1.815  0.4446 -0.0301  0.4994
16183TIP3   OH270039   0.455   6.761   4.093 -0.2010  0.0325 -0.1309
16183TIP3    H170040   0.510   6.682   4.090 -2.0002 -1.2433 -2.1893
16183TIP3    H270041   0.427   6.766   4.185  3.6170  1.0506  1.1468
16184TIP3   OH270042   0.528   4.083   0.576 -0.1172 -0.3427 -0.1888
16184TIP3    H170043   0.567   4.009   0.622 -0.5504 -0.6455 -0.3070
16184TIP3    H270044   0.552   4.160   0.629  2.7777 -0.1745 -1.5087
16185TIP3   OH270045   0.653   4.133  10.422  0.0235 -0.5063 -0.5656
16185TIP3    H170046   0.729   4.162  10.371 -0.7978 -0.4472 -1.7920
16185TIP3    H270047   0.583   4.193  10.398 -0.5054 -0.7391  0.3357
16186TIP3   OH270048   4.383   2.666   5.282 -0.2618 -0.1261 -0.3198
16186TIP3    H170049   4.464   2.669   5.230 -1.0572 -0.5448 -1.6377
16186TIP3    H270050   4.380   2.751   5.327  0.6637  0.0813 -0.6204
16187TIP3   OH270051   6.236   2.416  13.726  0.0873 -0.6544 -0.2290
16187TIP3    H170052   6.172   2.411  13.797  0.3910 -0.5116  0.0564
16187TIP3    H270053   6.258   2.509  13.720  1.6816 -0.9123  0.9523
16188TIP3   OH270054   2.346   1.049   2.389  0.8037 -0.0582  0.1326
16188TIP3    H170055   2.427   1.100   2.392  0.6578  0.1463  0.9990
16188TIP3    H270056   2.293   1.092   2.322  1.0103  0.4328  0.2784
16189TIP3   OH270057   5.476   0.067   0.923  0.2347  0.1364 -0.0918
16189TIP3    H170058   5.461   0.145   0.976  2.6893  0.0985  0.8069
16189TIP3    H270059   5.516   0.004   0.983 -0.5000 -1.3621 -1.1067
16190TIP3   OH270060   2.812   5.347  12.609  0.5676  0.5640  0.6445
16190TIP3    H170061   2.902   5.331  12.637  0.8427  1.7893  0.4942
16190TIP3    H270062   2.776   5.259  12.594  1.4538  0.0215  1.5478
16191TIP3   OH270063   0.101   1.160   6.545  0.3908 -0.2896 -0.4983
16191TIP3    H170064   0.021   1.108   6.550  0.5272 -0.4153  0.5325
16191TIP3    H270065   0.172   1.096   6.536  0.4947 -0.2562  0.0397
16192TIP3   OH270066   2.160   3.259  12.082  0.2833  0.2575  0.0894
16192TIP3    H170067   2.106   3.186  12.115  0.8717  0.0492  0.5998
16192TIP3    H270068   2.190   3.229  11.996  0.0155  0.1593  0.0282
16193TIP3   OH270069   0.982   4.176   3.563 -0.0767  0.5743  0.0132
16193TIP3    H170070   1.015   4.258   3.599 -0.5985  1.1602 -0.7918
16193TIP3    H270071   1.057   4.116   3.565  0.0275  0.7262  1.5940
16194TIP3   OH270072   2.840   4.353   1.887  0.4202 -1.0297 -0.0440
16194TIP3    H170073   2.885   4.438   1.887  2.1192 -1.8542  1.4592
16194TIP3    H270074   2.785   4.355   1.966 -0.8980 -0.6999 -0.9395
16195TIP3   OH270075   1.566   4.157  15.245 -0.2894 -0.0484  0.6823
16195TIP3    H170076   1.639   4.113  15.288 -0.8153 -1.2293  0.3913
16195TIP3    H270077   1.598   4.174  15.156  0.3001  1.1676  1.0964
16196TIP3   OH270078   1.887   6.254   1.233  0.2928  0.0798  0.3513
16196TIP3    H170079   1.809   6.231   1.182  0.2717 -3.3819  1.6851
16196TIP3    H270080   1.950   6.285   1.167 -1.0365 -0.3618 -1.2023
16197TIP3   OH270081   6.683   5.589  16.702 -0.1150 -0.1426  0.5723
16197TIP3    H170082   6.666   5.506  16.659 -2.4794  0.1213  0.8471
16197TIP3    H270083   6.597   5.619  16.731  0.4110  3.0412 -0.6873
16198TIP3   OH270084   3.660   1.979   6.100 -0.5369 -0.0727  0.3239
16198TIP3    H170085   3.683   2.015   6.185  0.7062 -0.3827  0.1282
16198TIP3    H270086   3.607   2.047   6.058 -0.5535  0.3682  1.0520
16199TIP3   OH270087   3.458   1.800   2.952  0.0209  0.3833 -0.1682
16199TIP3    H170088   3.524   1.802   2.882  0.0547  1.2278 -0.1192
16199TIP3    H270089   3.385   1.852   2.918  0.2519  1.2441  0.6279
16200TIP3   OH270090   1.937   0.112  11.849  0.1822 -0.5863 -0.0508
16200TIP3    H170091   2.018   0.067  11.825  0.1076 -0.8557  0.2084
16200TIP3    H270092   1.921   0.172  11.775 -0.3782 -1.8540 -0.9914
16201TIP3   OH270093   3.400   2.208   5.954 -0.0670 -0.3464  0.1945
16201TIP3    H170094   3.420   2.245   5.868 -0.7846 -1.7126 -0.5959
16201TIP3    H270095   3.319   2.158   5.940 -0.1431 -0.6655  1.6430
16202TIP3   OH270096   2.164   3.810   2.293 -0.1016 -0.3734 -0.3245
16202TIP3    H170097   2.118   3.742   2.342  1.6871 -1.0577  0.4870
16202TIP3    H270098   2.120   3.891   2.319  0.8822 -0.6676  2.7447
16203TIP3   OH270099   3.474   0.235  12.565 -0.2250  0.1160 -0.2350
16203TIP3    H170100   3.443   0.208  12.652  0.9063  0.6835  0.3711
16203TIP3    H270101   3.463   0.157  12.511 -1.3421 -0.1257  0.3007
16204TIP3   OH270102   4.452   5.136  15.540  0.4638 -0.5089 -0.5271
16204TIP3    H170103   4.453   5.123  15.445 -0.6444 -1.9066 -0.3944
16204TIP3    H270104   4.377   5.193  15.556 -0.6644 -1.9612 -0.3731
16205TIP3   OH270105   2.948   6.312  13.571 -0.0510 -0.0914 -0.3121
16205TIP3    H170106   2.956   6.374  13.644 -0.0349  0.6758 -0.9500
16205TIP3    H270107   2.868   6.263  13.589  0.1676 -0.1806  0.4253
16206TIP3   OH270108   3.249   0.626  14.565 -0.1133 -0.2926  0.2184
16206TIP3    H170109   3.214   0.714  14.570 -2.3309 -1.1249  0.6179
16206TIP3    H270110   3.339   0.634  14.595 -0.1795  1.8587 -0.0119
16207TIP3   OH270111   6.125   3.947  16.950 -1.1830  0.1031 -0.9186
16207TIP3    H170112   6.098   3.893  16.876 -1.9971 -0.3255 -0.3319
16207TIP3    H270113   6.103   3.895  17.027 -0.1923  0.4611 -0.3655
16208TIP3   OH270114   6.123   4.399   3.505 -0.2639  0.3461  0.6085
16208TIP3    H170115   6.192   4.335   3.521 -0.7731 -1.0720 -2.2588
16208TIP3    H270116   6.168   4.479   3.481  0.3628  0.3887  1.8616
16209TIP3   OH270117   6.484   5.497  11.485 -0.1987 -0.1052 -0.0501
16209TIP3    H170118   6.435   5.559  11.540 -2.1909  0.2272 -2.0866
16209TIP3    H270119   6.519   5.551  11.414 -0.4141 -1.0076 -0.8642
16210TIP3   OH270120   4.151   5.506   0.319  0.5817  0.1093 -0.9588
16210TIP3    H170121   4.177   5.438   0.382  0.5733 -0.6573 -1.7538
16210TIP3    H270122   4.056   5.493   0.309  0.0398  2.0326  0.9330
16211TIP3   OH270123   2.336   2.343  12.503  0.4420 -0.2902 -0.0890
16211TIP3    H170124   2.363   2.284  12.574  0.1283  0.5401  0.7349
16211TIP3    H270125   2.253   2.306  12.472  0.9744 -1.1169 -0.5885
16212TIP3   OH270126   6.111   1.385  16.778 -0.3530  0.1212  0.1522
16212TIP3    H170127   6.113   1.361  16.871 -0.1456  1.6224  0.5696
16212TIP3    H270128   6.085   1.478  16.778  1.7522  0.7756 -1.1408
16213TIP3   OH270129   0.390   1.153   0.950 -0.8250 -0.1070 -0.3431
16213TIP3    H170130   0.306   1.169   0.993 -0.1909  1.3748  0.4279
16213TIP3    H270131   0.376   1.074   0.898 -2.2413 -0.7647  0.9528
16214TIP3   OH270132   2.676   5.179  10.459  0.5548 -0.7698  0.1228
16214TIP3    H170133   2.591   5.136  10.466  0.7986 -1.1948  0.5209
16214TIP3    H270134   2.736   5.109  10.433  0.5846 -0.2433 -1.2832
16215TIP3   OH270135   5.130   6.395  11.286  0.2850 -0.1923  0.0583
16215TIP3    H170136   5.077   6.347  11.222  1.6099 -0.1371 -1.1452
16215TIP3    H270137   5.209   6.419  11.238  1.6190 -0.6700  1.8753
16216TIP3   OH270138   0.766   3.618  12.354  0.3323  0.5202  0.5934
16216TIP3    H170139   0.716   3.541  12.327 -0.0090  0.4285  1.4374
16216TIP3    H270140   0.761   3.677  12.279  0.0802 -0.0360  0.1638
16217TIP3   OH270141   2.721   4.671   4.566  0.2992 -0.1954  0.4930
16217TIP3    H170142   2.714   4.730   4.641 -0.7855 -0.4213  0.5847
16217TIP3    H270143   2.647   4.694   4.510  0.9900 -0.1617 -0.4154
16218TIP3   OH270144   3.174   5.999  14.224  0.1626 -0.5045 -0.4248
16218TIP3    H170145   3.178   6.019  14.131  2.5923 -1.0628 -0.5191
16218TIP3    H270146   3.231   6.065  14.265 -1.0273 -0.1367  0.7134
16219TIP3   OH270147   6.716   3.599  15.346 -0.2081  0.0464  0.2588
16219TIP3    H170148   6.622   3.594  15.328 -0.5387 -0.1719  1.8496
16219TIP3    H270149   6.758   3.558  15.271 -1.3871  0.0844 -0.4369
16220TIP3   OH270150   2.408   0.220  12.235  0.0974  0.1915 -0.2759
16220TIP3    H170151   2.369   0.261  12.158 -0.7156 -0.3167 -0.1467
16220TIP3    H270152   2.488   0.179  12.201 -1.1266 -1.5218 -1.2566
16221TIP3   OH270153   6.604   2.103  13.275 -0.2375  0.6440 -0.0293
16221TIP3    H170154   6.578   2.148  13.195  0.5834 -0.0994 -0.7386
16221TIP3    H270155   6.522   2.069  13.311 -0.5925  0.7789 -0.6937
16222TIP3   OH270156   0.597   0.709  14.937  0.4020  0.3384  0.0178
16222TIP3    H170157   0.645   0.643  14.886 -2.8244 -2.1685 -0.1509
16222TIP3    H270158   0.564   0.771  14.871  1.5629  0.8358 -0.1098
16223TIP3   OH270159   1.137   2.805   1.839 -0.7648  0.6774  0.5532
16223TIP3    H170160   1.188   2.807   1.920  0.1163  1.2629  0.0053
16223TIP3    H270161   1.067   2.743   1.856 -0.4208  0.5749  1.6634
16224TIP3   OH270162   0.875   1.876   5.055 -0.5175  0.3025 -0.2169
16224TIP3    H170163   0.915   1.940   5.114 -1.1268  1.1483 -0.6973
16224TIP3    H270164   0.925   1.885   4.974  0.5335 -1.0916  0.2447
16225TIP3   OH270165   1.424   2.649  13.674  0.0777 -0.0550 -0.0447
16225TIP3    H170166   1.365   2.580  13.642  0.6600 -0.0641 -1.1603
16225TIP3    H270167   1.390   2.730  13.636  0.3298  0.0448 -0.0625
16226TIP3   OH270168   0.869   5.375  10.391 -0.0446 -0.0383 -0.3876
16226TIP3    H170169   0.815   5.300  10.414  1.8569 -1.8050 -1.3327
16226TIP3    H270170   0.827   5.413  10.314 -0.4140 -0.8432 -0.5913
16227TIP3   OH270171   4.694   6.703   2.809  0.0088 -0.4096 -0.6359
16227TIP3    H170172   4.714   6.782   2.758  0.3454  0.9030  1.4094
16227TIP3    H270173   4.711   6.631   2.749  1.7031  1.0058 -1.9770
16228TIP3   OH270174   4.850   4.830   1.076  0.3698  0.3514  0.3920
16228TIP3    H170175   4.789   4.801   1.008  1.7099  1.4412 -1.3534
16228TIP3    H270176   4.796   4.876   1.140 -0.8063  0.1290 -0.4211
16229TIP3   OH270177   0.159   4.183  11.321  0.4575  0.1291 -0.0242
16229TIP3    H170178   0.128   4.231  11.244 -1.6378 -0.7383  0.2057
16229TIP3    H270179   0.248   4.156  11.298  0.2214  0.6873 -1.7624
16230TIP3   OH270180   4.414   4.029   0.103 -0.1895 -0.3426 -0.1785
16230TIP3    H170181   4.491   4.065   0.059 -0.7076  0.7317 -0.2471
16230TIP3    H270182   4.344   4.092   0.083 -0.3940  0.3436  2.3536
16231TIP3   OH270183   6.552   1.957   5.420 -0.2451  0.0760 -0.2802
16231TIP3    H170184   6.500   1.984   5.497 -1.9192 -2.8810 -0.2250
16231TIP3    H270185   6.493   1.970   5.346 -0.0198 -0.5554 -0.5783
16232TIP3   OH270186   6.156   6.300  12.181  0.3650  0.2111 -0.4829
16232TIP3    H170187   6.062   6.314  12.169  0.0802  0.7577  1.8716
16232TIP3    H270188   6.196   6.333  12.101 -1.3850  0.7547 -1.1821
16233TIP3   OH270189   4.337   3.488   4.661  0.3526  0.3618 -0.1316
16233TIP3    H170190   4.423   3.526   4.679 -0.5563  2.1541  0.6320
16233TIP3    H270191   4.327   3.495   4.566  1.0473  0.0774 -0.2371
16234TIP3   OH270192   3.690   0.410   6.487  0.2437  0.4194 -0.1703
16234TIP3    H170193   3.747   0.467   6.538 -0.6555  0.9336  0.2926
16234TIP3    H270194   3.633   0.470   6.439 -0.9527 -0.0598  0.5954
16235TIP3   OH270195   6.191   4.237   4.772 -0.2794 -0.2077 -0.0094
16235TIP3    H170196   6.248   4.241   4.695  0.7371  1.2526  0.7640
16235TIP3    H270197   6.218   4.158   4.818 -0.5709 -0.8347 -0.8743
16236TIP3   OH270198   0.931   1.944  14.316 -0.2651 -0.6574 -0.2020
16236TIP3    H170199   0.958   1.857  14.285 -1.1667 -1.2461  0.5951
16236TIP3    H270200   1.007   1.975  14.365  0.7091 -0.2363 -1.9021
16237TIP3   OH270201   5.519   2.702  17.007  0.1803 -0.2946  0.2051
16237TIP3    H170202   5.595   2.756  17.028 -0.2305  0.6796 -0.6811
16237TIP3    H270203   5.444   2.757  17.033 -0.2553 -0.3157 -0.9555
16238TIP3   OH270204   3.973   6.386   3.292  0.1198  0.2223 -0.1593
16238TIP3    H170205   3.948   6.397   3.200 -0.5324  2.0961  0.2002
16238TIP3    H270206   4.057   6.431   3.299  0.2154 -0.0003  0.1465
16239TIP3   OH270207   5.384   5.614   0.907 -0.4125  0.3665  0.3107
16239TIP3    H170208   5.366   5.597   0.815 -0.6627 -1.4054  0.6377
16239TIP3    H270209   5.479   5.629   0.911 -0.1616 -0.9700 -0.0869
16240TIP3   OH270210   4.816   3.083   3.105 -0.4620  0.1462 -0.3266
16240TIP3    H170211   4.824   3.000   3.153  2.3534  1.0794  1.0194
16240TIP3    H270212   4.853   3.065   3.019 -0.3052 -0.1203 -0.2043
16241TIP3   OH270213   0.304   4.457   1.950 -0.0251 -0.5078  0.2497
16241TIP3    H170214   0.238   4.526   1.947  0.2697  0.0009  2.7652
16241TIP3    H270215   0.255   4.377   1.932 -0.8590  0.0928 -0.2669
16242TIP3   OH270216   3.865   0.144  16.378 -0.8280 -0.7878 -0.4407
16242TIP3    H170217   3.808   0.088  16.430  0.0564 -0.6083  0.7578
16242TIP3    H270218   3.947   0.096  16.370 -0.3123 -0.0088 -0.0378
16243TIP3   OH270219   4.828   6.364   2.848 -0.1128  0.0977 -0.4015
16243TIP3    H170220   4.889   6.312   2.795  1.3436  0.5858  0.7494
16243TIP3    H270221   4.769   6.403   2.784  0.8698 -0.2608 -1.5687
16244TIP3   OH270222   5.790   0.140   0.057 -0.0581 -0.5430  0.0357
16244TIP3    H170223   5.795   0.134   0.153  3.6986  0.1053  0.0492
16244TIP3    H270224   5.753   0.226   0.040 -0.7135 -0.6426  0.8974
16245TIP3   OH270225   5.022   2.000   2.656  0.3579 -0.2870  0.2420
16245TIP3    H170226   5.039   2.042   2.741  1.9203 -2.3172  1.0423
16245TIP3    H270227   4.951   1.938   2.675  2.8060 -3.1049  1.0829
16246TIP3   OH270228   0.255   0.137  13.629  0.0830  0.7790  0.2873
16246TIP3    H170229   0.325   0.196  13.659 -0.0407  0.3164  1.5681
16246TIP3    H270230   0.290   0.049  13.643 -0.2359  0.5435 -0.3601
16247TIP3   OH270231   3.988   6.627   4.527 -0.2264 -0.0659 -0.0595
16247TIP3    H170232   3.902   6.665   4.543  0.0042 -0.1399  1.5126
16247TIP3    H270233   4.017   6.666   4.445  0.1135  3.3998  1.5442
16248TIP3   OH270234   1.575   5.466   1.959  0.5341  0.1495  0.7256
16248TIP3    H170235   1.515   5.454   1.886 -0.0853  1.8064  0.9243
16248TIP3    H270236   1.522   5.504   2.028  1.6311  0.8980  1.1871
16249TIP3   OH270237   2.205   2.393  14.608 -0.1823  0.6428  0.2738
16249TIP3    H170238   2.203   2.465  14.545  1.3940  0.7612  0.3242
16249TIP3    H270239   2.237   2.433  14.689  0.2580 -0.0205  0.4334
16250TIP3   OH270240   4.432   0.134  12.558  0.9694  0.3203 -0.2561
16250TIP3    H170241   4.467   0.063  12.504  0.6085  1.4258 -2.0239
16250TIP3    H270242   4.376   0.090  12.622  0.5051 -0.9674 -1.4956
16251TIP3   OH270243   3.234   2.595   1.333 -0.2981  0.1114  0.0065
16251TIP3    H170244   3.175   2.581   1.258 -0.9955  0.4506  0.4798
16251TIP3    H270245   3.274   2.680   1.316  1.1846 -0.7597 -1.0474
16252TIP3   OH270246   4.496   3.451  14.549  0.4487 -0.5425 -0.1048
16252TIP3    H170247   4.587   3.438  14.576  0.7172  1.1065 -0.0910
16252TIP3    H270248   4.474   3.538  14.583 -0.8591 -0.5727 -0.8391
16253TIP3   OH270249   2.470   6.058  11.236  0.1466 -0.2423 -0.4746
16253TIP3    H170250   2.445   6.149  11.253  0.7797 -0.1446 -0.0660
16253TIP3    H270251   2.562   6.053  11.261 -0.2268 -1.3248  0.7830
16254TIP3   OH270252   5.208   1.527   6.249 -0.0973 -0.3728 -0.0628
16254TIP3    H170253   5.187   1.554   6.338 -1.9918 -2.5516  0.2508
16254TIP3    H270254   5.165   1.442   6.239  2.6381 -1.6681 -2.0427
16255TIP3   OH270255   3.898   3.353   1.743 -0.0618  0.2130  0.3797
16255TIP3    H170256   3.850   3.345   1.660 -1.2617  1.8290  0.8616
16255TIP3    H270257   3.896   3.266   1.781 -1.7052 -0.0034 -0.1303
16256TIP3   OH270258   2.855   5.566  14.246  0.4957 -0.0102  0.4308
16256TIP3    H170259   2.847   5.483  14.294  1.2066 -0.2491  0.1587
16256TIP3    H270260   2.767   5.602  14.245 -0.2370 -1.6677 -1.0372
16257TIP3   OH270261   4.936   2.969  13.854  0.5067 -0.0557 -0.5543
16257TIP3    H170262   5.001   2.953  13.786  0.1514 -1.2603 -0.6268
16257TIP3    H270263   4.924   3.064  13.853  1.0420  0.0164 -1.6753
16258TIP3   OH270264   3.622   3.736   4.098  0.4039 -0.1996  0.1347
16258TIP3    H170265   3.595   3.725   4.189 -0.6550 -1.7957 -0.3399
16258TIP3    H270266   3.705   3.784   4.104  0.4417 -0.4010  1.9316
16259TIP3   OH270267   2.595   3.684   4.074  0.3887  0.2106 -0.3882
16259TIP3    H170268   2.618   3.610   4.018  0.2509  0.3517 -0.6329
16259TIP3    H270269   2.666   3.689   4.138  0.5652  0.0688 -0.5710
16260TIP3   OH270270   2.743   6.050  12.747 -0.3509 -0.2578 -0.2249
16260TIP3    H170271   2.716   6.103  12.822  0.1600 -0.1508 -0.1189
16260TIP3    H270272   2.825   6.009  12.774 -1.4432 -2.2752  0.2567
16261TIP3   OH270273   6.775   4.664  12.953 -0.1086 -0.1652 -0.2178
16261TIP3    H170274   6.777   4.755  12.983 -0.9824 -0.1697 -0.1268
16261TIP3    H270275   6.753   4.613  13.031 -1.2001 -0.2969 -0.5975
16262TIP3   OH270276   0.531   4.619  17.229  0.0761  0.1787  0.2697
16262TIP3    H170277   0.466   4.669  17.279  0.0150  1.4677 -1.0469
16262TIP3    H270278   0.603   4.605  17.291 -0.6352  0.3982  1.1718
16263TIP3   OH270279   2.858   4.909   3.684 -0.0416  0.0445 -0.1375
16263TIP3    H170280   2.769   4.881   3.705 -0.1175  0.2386 -0.1999
16263TIP3    H270281   2.849   4.962   3.605  0.1516 -0.0763 -0.2402
16264TIP3   OH270282   1.978   0.443  14.834 -0.1450 -0.0579 -0.3019
16264TIP3    H170283   1.936   0.490  14.907 -0.9357 -0.9173 -0.1721
16264TIP3    H270284   2.071   0.464  14.842 -0.1201 -0.5721  1.3307
16265TIP3   OH270285   6.355   4.223   6.329 -0.2831 -0.7997 -0.3005
16265TIP3    H170286   6.380   4.284   6.398 -0.7759 -1.3695  0.3914
16265TIP3    H270287   6.415   4.149   6.339 -0.8334 -1.2093 -0.0154
16266TIP3   OH270288   5.303   5.636   4.919 -0.1285  0.0231  0.3144
16266TIP3    H170289   5.314   5.705   4.854  1.4916  0.3351  0.8768
16266TIP3    H270290   5.364   5.658   4.989  0.1413 -1.7573  0.7054
16267TIP3   OH270291   2.647   4.749   3.666  0.5479  0.2773 -0.0351
16267TIP3    H170292   2.554   4.761   3.645  1.1183  1.9613 -1.9051
16267TIP3    H270293   2.647   4.723   3.758 -1.8001 -0.5958 -0.1946
16268TIP3   OH270294   0.453   1.184  13.101 -0.2467  0.3758  0.1477
16268TIP3    H170295   0.414   1.099  13.119  0.3571  0.5986  2.9539
16268TIP3    H270296   0.380   1.237  13.067 -1.4235 -0.3782  1.4017
16269TIP3   OH270297   0.967   3.302  11.250  0.5015 -0.0726  0.6119
16269TIP3    H170298   0.912   3.374  11.218  1.3363  0.9592  1.4165
16269TIP3    H270299   1.047   3.307  11.197  0.6398 -0.2921  0.7976
16270TIP3   OH270300   5.776   1.172   3.125  0.2389  0.3423 -0.2568
16270TIP3    H170301   5.732   1.087   3.120  0.4470  0.2050  0.1568
16270TIP3    H270302   5.851   1.156   3.182  1.5002  0.2954 -1.8907
16271TIP3   OH270303   2.992   3.628  13.147 -0.2353 -0.4096  0.3925
16271TIP3    H170304   3.063   3.568  13.169  0.2338 -0.1659 -0.4161
16271TIP3    H270305   2.913   3.575  13.155  0.1891 -1.2252 -0.5757
16272TIP3   OH270306   4.991   4.542  13.516 -0.3653  0.0893 -0.2241
16272TIP3    H170307   5.009   4.620  13.464  0.3367 -0.6109 -1.0722
16272TIP3    H270308   4.906   4.559  13.557 -0.6168  0.9388 -1.0590
16273TIP3   OH270309   1.090   3.964   3.236 -0.0714 -0.2551 -0.0190
16273TIP3    H170310   1.133   3.949   3.152 -0.5838 -1.7992 -0.0388
16273TIP3    H270311   1.004   3.999   3.213 -0.4559 -1.2738 -0.1959
16274TIP3   OH270312   1.312   4.126   3.128  0.8971 -0.3708  0.5691
16274TIP3    H170313   1.234   4.155   3.175  0.5432 -0.6909  0.1800
16274TIP3    H270314   1.385   4.159   3.181  0.5129 -1.3195  1.7308
16275TIP3   OH270315   2.421   2.459   6.279  0.1100 -0.7028 -0.1645
16275TIP3    H170316   2.510   2.464   6.245  1.0255 -1.1199  1.9568
16275TIP3    H270317   2.424   2.508   6.362 -2.4001  1.8120 -1.3771
16276TIP3   OH270318   4.526   0.280  16.938  0.2436 -0.3560 -0.3783
16276TIP3    H170319   4.580   0.353  16.970 -0.7023  0.0586  0.3572
16276TIP3    H270320   4.559   0.204  16.985  0.4805 -0.1827 -0.2584
16277TIP3   OH270321   0.672   0.753  13.512  0.5241  0.2828 -0.9872
16277TIP3    H170322   0.615   0.800  13.573  1.5161 -2.4163  2.3153
16277TIP3    H270323   0.615   0.688  13.471  0.6962 -1.0870  0.8165
16278TIP3   OH270324   6.583   2.621   4.413  0.3223 -0.4691 -0.3386
16278TIP3    H170325   6.548   2.627   4.324  0.5652 -1.4989 -0.5196
16278TIP3    H270326   6.640   2.544   4.411 -2.4063 -2.7983  1.5763
16279TIP3   OH270327   5.261   0.319   0.171  0.1816 -0.1018 -0.4888
16279TIP3    H170328   5.209   0.398   0.190 -0.0152 -0.6892  1.5940
16279TIP3    H270329   5.352   0.349   0.175  0.2134 -0.3560  2.5988
16280TIP3   OH270330   3.186   2.573   4.534  0.0690  0.2637  0.3753
16280TIP3    H170331   3.275   2.554   4.564 -0.0656  0.5111  0.9543
16280TIP3    H270332   3.198   2.622   4.453  0.4711  0.5825  0.6207
16281TIP3   OH270333   3.611   4.156  16.741  0.3729  0.3341 -0.4593
16281TIP3    H170334   3.592   4.075  16.694 -0.7953  1.7044 -2.5139
16281TIP3    H270335   3.705   4.154  16.756  0.3710 -1.3525 -0.5148
16282TIP3   OH270336   0.224   0.485  13.569 -0.1617  0.2850  0.0700
16282TIP3    H170337   0.236   0.483  13.664 -0.4166 -0.7553  0.0964
16282TIP3    H270338   0.302   0.529  13.536 -0.4767  1.4302  0.8071
16283TIP3   OH270339   4.393   2.985   0.748  0.4187 -0.0072 -0.0099
16283TIP3    H170340   4.442   2.976   0.667 -2.2126 -0.2883 -1.7036
16283TIP3    H270341   4.349   2.901   0.759 -0.2365  0.4482  1.0272
16284TIP3   OH270342   3.530   0.758  12.555 -0.8243 -0.5221 -0.0173
16284TIP3    H170343   3.516   0.698  12.628 -0.0264  1.3194  1.7616
16284TIP3    H270344   3.594   0.714  12.500  1.1198 -0.6713  2.1683
16285TIP3   OH270345   0.732   6.601  16.960  0.0292  0.0518 -0.1746
16285TIP3    H170346   0.802   6.651  17.003  0.2879 -0.4132 -0.0433
16285TIP3    H270347   0.717   6.527  17.018  1.1666 -1.2039 -1.4269
16286TIP3   OH270348   0.103   6.355  13.881 -0.3124  0.4520  0.0077
16286TIP3    H170349   0.093   6.445  13.910  1.4520  0.2049  1.5299
16286TIP3    H270350   0.117   6.305  13.961 -2.3439 -1.4045 -0.6710
16287TIP3   OH270351   5.370   4.829   2.171  0.0271  0.1181 -0.1221
16287TIP3    H170352   5.386   4.923   2.163  1.6805  0.0415  1.5170
16287TIP3    H270353   5.303   4.823   2.239  0.9679  0.1084  0.8386
16288TIP3   OH270354   4.228   1.705   3.680 -0.2118 -0.4794  0.3056
16288TIP3    H170355   4.220   1.686   3.774 -0.6895  0.5397  0.4731
16288TIP3    H270356   4.167   1.645   3.638  2.4354 -3.4569  0.2949
16289TIP3   OH270357   2.242   5.302   0.872 -0.3598 -0.5683  0.6331
16289TIP3    H170358   2.177   5.342   0.814  1.2336  0.0769 -0.7655
16289TIP3    H270359   2.291   5.376   0.908 -0.3118 -1.0496  1.5912
16290TIP3   OH270360   2.359   4.574  12.549  0.3061  0.6827  1.1130
16290TIP3    H170361   2.417   4.555  12.475 -1.3642  1.3730 -0.4574
16290TIP3    H270362   2.362   4.495  12.603  0.3678 -0.5132 -0.5555
16291TIP3   OH270363   5.988   4.992  16.301 -0.2259  0.3898  0.1971
16291TIP3    H170364   5.974   4.901  16.275 -0.9220  0.1217  1.4455
16291TIP3    H270365   5.903   5.034  16.287 -0.1179  0.6649  0.3564
16292TIP3   OH270366   5.938   4.746   6.019  0.3558  0.1228 -0.2178
16292TIP3    H170367   5.951   4.839   6.001 -1.8797  0.3960 -0.7262
16292TIP3    H270368   5.844   4.738   6.035  0.2064 -2.2935 -1.7672
16293TIP3   OH270369   1.753   1.267   4.449  0.0651  0.3501 -0.1173
16293TIP3    H170370   1.671   1.234   4.486 -1.0152  3.2097  0.2672
16293TIP3    H270371   1.755   1.232   4.360 -2.5361  1.5972 -0.7671
16294TIP3   OH270372   2.179   6.640   0.818 -0.2371 -0.0003  0.2335
16294TIP3    H170373   2.104   6.685   0.857 -0.9160  0.0797 -1.0980
16294TIP3    H270374   2.255   6.687   0.853 -0.8425  0.6217  0.7592
16295TIP3   OH270375   3.258   1.892   0.629 -0.6330 -0.3096  0.3612
16295TIP3    H170376   3.323   1.829   0.661  0.8492  1.8545  1.9148
16295TIP3    H270377   3.188   1.889   0.694 -0.0915  0.3094  0.9937
16296TIP3   OH270378   1.464   4.242  12.677  0.2037 -0.1465  0.4428
16296TIP3    H170379   1.504   4.306  12.737 -0.5070  2.5421 -1.7549
16296TIP3    H270380   1.537   4.211  12.623  0.5146 -1.0872  1.3730
16297TIP3   OH270381   2.046   5.855  14.827  0.5278  0.3874 -0.5626
16297TIP3    H170382   1.981   5.895  14.770 -0.2403 -1.4917 -1.0937
16297TIP3    H270383   1.999   5.841  14.910 -0.1135 -1.7834 -1.2226
16298TIP3   OH270384   5.462   1.061   2.889  0.0850  0.0334  0.1302
16298TIP3    H170385   5.442   1.112   2.811 -0.4849 -2.0365 -1.1815
16298TIP3    H270386   5.556   1.044   2.882 -0.2941 -1.8627 -1.3180
16299TIP3   OH270387   4.120   3.702   3.219  0.2021 -0.7003 -0.9102
16299TIP3    H170388   4.184   3.650   3.268 -1.2429 -2.4960 -0.7911
16299TIP3    H270389   4.173   3.762   3.167  1.8586 -0.0038  1.4042
16300TIP3   OH270390   5.085   0.885   3.201  0.1117 -0.0611 -0.4826
16300TIP3    H170391   5.117   0.804   3.161  0.0571 -1.5611  2.2759
16300TIP3    H270392   5.060   0.860   3.290 -0.5093  2.8845  0.2861
16301TIP3   OH270393   5.937   6.351   5.515 -0.4763  0.4187  0.2396
16301TIP3    H170394   5.993   6.415   5.558  0.0517 -0.2147  0.5065
16301TIP3    H270395   5.876   6.323   5.583 -1.1382  1.1214 -0.0555
16302TIP3   OH270396   2.526   2.594  12.221 -0.3378  0.7586  0.4223
16302TIP3    H170397   2.542   2.517  12.275 -0.7100  0.7233  0.4906
16302TIP3    H270398   2.607   2.644  12.226 -0.0369  0.2902  0.2389
16303TIP3   OH270399   2.232   2.409  10.861  0.3362 -0.4784 -1.0247
16303TIP3    H170400   2.198   2.339  10.917 -0.6492  1.7854  1.3813
16303TIP3    H270401   2.155   2.445  10.817 -0.1215  2.3033  1.6947
16304TIP3   OH270402   5.002   3.479   0.653  0.3214  0.1045 -0.0806
16304TIP3    H170403   5.033   3.553   0.601  0.7296 -0.4725 -0.6753
16304TIP3    H270404   4.910   3.469   0.628  0.5130 -0.1664 -0.7109
16305TIP3   OH270405   4.858   2.412  14.128  0.2009  0.3069 -0.2958
16305TIP3    H170406   4.770   2.449  14.130  0.1286  0.1519 -0.6089
16305TIP3    H270407   4.895   2.434  14.214 -0.2408  0.1387 -0.0569
16306TIP3   OH270408   1.605   5.541   0.551  0.0863  0.1420  0.2929
16306TIP3    H170409   1.519   5.528   0.510 -0.0556  0.1962  0.5644
16306TIP3    H270410   1.627   5.632   0.531 -0.2837  0.3672  0.8811
16307TIP3   OH270411   3.697   0.529   0.732 -0.4969 -0.2665 -0.0617
16307TIP3    H170412   3.716   0.437   0.714 -0.5862  0.1327 -2.5201
16307TIP3    H270413   3.606   0.529   0.762  0.2846 -1.1884  2.6300
16308TIP3   OH270414   5.495   2.841   3.449  0.0818  0.5001 -0.0900
16308TIP3    H170415   5.437   2.802   3.514  0.9377 -0.3767  0.1632
16308TIP3    H270416   5.539   2.767   3.408  1.3086  1.1533 -0.0139
16309TIP3   OH270417   3.671   2.537   5.599  0.0906  0.0997 -0.1404
16309TIP3    H170418   3.630   2.611   5.555  1.9605  0.2368 -1.7513
16309TIP3    H270419   3.707   2.484   5.529  0.3796 -1.4087  1.0891
16310TIP3   OH270420   5.754   3.461  16.985  0.1824 -0.8468  0.2104
16310TIP3    H170421   5.832   3.439  17.034  0.5080  0.8963  0.5193
16310TIP3    H270422   5.739   3.554  17.002  0.1008 -0.2368 -2.6552
16311TIP3   OH270423   0.412   5.764   4.300 -0.3802 -0.2019 -0.6080
16311TIP3    H170424   0.490   5.723   4.337 -0.0321  0.9254 -0.0537
16311TIP3    H270425   0.374   5.814   4.372 -1.1671 -0.0857 -1.0883
16312TIP3   OH270426   3.881   3.237  17.059  0.2136  0.7356 -0.3159
16312TIP3    H170427   3.841   3.211  17.142  0.0607 -0.5928 -0.7796
16312TIP3    H270428   3.903   3.154  17.016  2.7722  1.3761 -0.4318
16313TIP3   OH270429   2.486   1.339  11.614 -0.0999  0.1191 -0.0282
16313TIP3    H170430   2.423   1.279  11.575  0.5902 -0.2403 -0.6118
16313TIP3    H270431   2.557   1.344  11.550 -0.0262  1.3503  0.1360
16314TIP3   OH270432   6.459   0.106  14.883 -0.3042  0.0727 -0.0559
16314TIP3    H170433   6.554   0.101  14.898  0.1644 -0.1364 -2.5639
16314TIP3    H270434   6.433   0.017  14.862 -0.6493  0.4268 -1.2433
16315TIP3   OH270435   6.605   4.298   0.827  0.1025 -0.0163  0.0657
16315TIP3    H170436   6.630   4.219   0.780 -1.2717 -0.5615  0.2346
16315TIP3    H270437   6.511   4.305   0.815  0.1520  1.4365  0.3101
16316TIP3   OH270438   0.217   0.311  13.367 -0.4277 -0.0556 -0.0265
16316TIP3    H170439   0.297   0.260  13.363  0.4806  1.3470 -0.3684
16316TIP3    H270440   0.220   0.354  13.452 -0.8010  0.0364 -0.0572
16317TIP3   OH270441   0.910   6.565  16.776  0.5277  0.0503  0.1402
16317TIP3    H170442   0.895   6.645  16.725 -0.7765 -0.3182 -0.1085
16317TIP3    H270443   0.840   6.566  16.841 -0.1240 -1.3794 -0.4977
16318TIP3   OH270444   6.491   2.288  16.793  0.2191 -0.4819  0.8362
16318TIP3    H170445   6.457   2.377  16.806 -0.4386 -0.7384  0.8907
16318TIP3    H270446   6.502   2.280  16.698  2.1427  0.3271  0.9331
16319TIP3   OH270447   5.855   6.521   0.197 -0.4355  0.2536  0.3303
16319TIP3    H170448   5.767   6.532   0.161 -0.0108 -2.6292 -1.9891
16319TIP3    H270449   5.845   6.456   0.266 -0.3149  0.9947  1.0517
16320TIP3   OH270450   4.069   6.497  11.955 -0.6502 -0.2220 -0.0320
16320TIP3    H170451   4.099   6.448  11.878 -0.4484 -0.3800  0.1475
16320TIP3    H270452   4.037   6.580  11.919  1.9092  0.8419 -0.0562
16321TIP3   OH270453   1.024   6.355  13.282 -0.9603  0.2808 -0.1516
16321TIP3    H170454   0.971   6.289  13.237 -1.4574  1.0311 -0.6938
16321TIP3    H270455   0.997   6.349  13.374  0.3334 -1.5260  0.1649
16322TIP3   OH270456   4.470   1.298  15.012  0.1313 -0.2103 -0.3887
16322TIP3    H170457   4.549   1.346  15.036  0.5432 -0.9874 -0.1608
16322TIP3    H270458   4.483   1.273  14.921  0.3849 -0.7894 -0.1966
16323TIP3   OH270459   4.099   3.254   0.710 -0.3754 -0.0686  0.4596
16323TIP3    H170460   4.135   3.343   0.702  1.7587 -0.7496  1.6995
16323TIP3    H270461   4.005   3.266   0.702 -0.1053  2.2315 -0.0083
16324TIP3   OH270462   4.913   0.811   2.787  0.6136 -0.3935  0.0274
16324TIP3    H170463   4.828   0.848   2.812  0.3947 -0.6472 -0.3262
16324TIP3    H270464   4.897   0.717   2.780 -0.2386 -0.1400 -4.2625
16325TIP3   OH270465   2.107   6.460  16.566  0.3564  0.3950  0.1478
16325TIP3    H170466   2.129   6.431  16.655 -0.2387  1.5240  0.6951
16325TIP3    H270467   2.144   6.393  16.509 -1.6395 -1.9013  1.3370
16326TIP3   OH270468   1.887   0.479   6.442  0.1196  0.0002 -0.1974
16326TIP3    H170469   1.874   0.386   6.458  0.3632 -0.0055 -0.0348
16326TIP3    H270470   1.982   0.490   6.435  0.1521  0.3872  0.7320
16327TIP3   OH270471   1.212   5.610   1.295  0.2387  0.2388  0.7915
16327TIP3    H170472   1.227   5.515   1.294  0.2377  0.2346 -0.3251
16327TIP3    H270473   1.118   5.620   1.286  0.4114  0.3299 -1.7021
16328TIP3   OH270474   6.297   0.922  17.118  0.6071  0.1527 -0.5133
16328TIP3    H170475   6.335   0.992  17.171  1.7580 -1.4825  0.9317
16328TIP3    H270476   6.372   0.875  17.082 -0.1136 -0.9319 -0.6453
16329TIP3   OH270477   6.791   2.739   3.906 -0.3279  0.1837  0.6232
16329TIP3    H170478   6.757   2.785   3.983 -1.4922  0.4673 -0.0345
16329TIP3    H270479   6.713   2.717   3.855  0.2680 -1.6333  0.4104
16330TIP3   OH270480   6.671   2.034  16.082 -0.2368 -0.1562  0.1596
16330TIP3    H170481   6.577   2.049  16.097 -0.1550 -1.5201  2.5557
16330TIP3    H270482   6.712   2.119  16.101 -0.8832  0.1044  0.4456
16331TIP3   OH270483   2.280   3.317  16.880 -0.1854  0.3547 -0.0403
16331TIP3    H170484   2.186   3.335  16.874  0.0879  1.7468 -0.2502
16331TIP3    H270485   2.284   3.227  16.913 -1.5901  0.0371 -0.6645
16332TIP3   OH270486   5.525   3.895   4.673  0.3596 -0.2264 -0.3167
16332TIP3    H170487   5.458   3.937   4.618 -0.6800 -0.2268  0.8970
16332TIP3    H270488   5.561   3.826   4.619 -2.4725 -1.9649 -0.1803
16333TIP3   OH270489   1.736   6.154  13.672  0.0448 -0.8767  0.1192
16333TIP3    H170490   1.647   6.167  13.639 -0.6529  2.7008  2.8505
16333TIP3    H270491   1.741   6.060  13.691 -3.1390 -1.1921 -0.0510
16334TIP3   OH270492   3.082   3.910   3.727  0.2165  0.1006 -0.3769
16334TIP3    H170493   3.163   3.883   3.769  0.2069  1.9185  0.9381
16334TIP3    H270494   3.015   3.897   3.793 -0.2470  0.4272 -0.7767
16335TIP3   OH270495   5.615   2.885  17.312  0.0007  0.2654 -0.1820
16335TIP3    H170496   5.700   2.918  17.340 -0.0478  0.1425  0.1206
16335TIP3    H270497   5.618   2.887  17.216  1.0160 -1.4239 -0.2210
16336TIP3   OH270498   1.297   0.943  10.860 -0.0707  0.0577 -0.2909
16336TIP3    H170499   1.208   0.922  10.832 -0.7614  1.5511  0.6375
16336TIP3    H270500   1.323   1.017  10.805  0.3300  0.0681 -0.0931
16337TIP3   OH270501   0.183   2.075   4.927  0.5681 -1.2360  0.1549
16337TIP3    H170502   0.263   2.075   4.980 -1.5172  0.4236  3.7175
16337TIP3    H270503   0.147   1.987   4.938  1.5459 -1.7876 -0.9312
16338TIP3   OH270504   3.643   1.830  16.908 -0.0510  0.0411 -0.1291
16338TIP3    H170505   3.661   1.849  16.816 -0.4894 -0.6959 -0.3750
16338TIP3    H270506   3.653   1.735  16.915  0.2922  0.1251  0.6609
16339TIP3   OH270507   1.458   2.912   3.182  0.3572  0.2317  0.3753
16339TIP3    H170508   1.475   3.000   3.147  1.2828 -0.6073 -1.4294
16339TIP3    H270509   1.539   2.889   3.229  0.9621 -0.4248 -0.9282
16340TIP3   OH270510   6.176   1.260  16.213  0.0112  0.2626  0.5194
16340TIP3    H170511   6.235   1.301  16.276  0.0810  0.0480  0.5934
16340TIP3    H270512   6.231   1.196  16.167  0.2960  1.3048 -0.6427
16341TIP3   OH270513   0.219   4.431  17.082  0.4932 -0.7918  0.1227
16341TIP3    H170514   0.149   4.371  17.111  1.2500 -1.8173 -0.1071
16341TIP3    H270515   0.238   4.403  16.992 -0.5480  1.1522 -0.7707
16342TIP3   OH270516   3.882   5.631   0.549 -0.3346 -0.1989 -0.1415
16342TIP3    H170517   3.795   5.642   0.587 -1.3530 -1.0211 -2.0589
16342TIP3    H270518   3.907   5.541   0.570  0.3811  0.2406  0.9722
16343TIP3   OH270519   2.037   1.407   3.482 -0.1384  0.7066  0.1829
16343TIP3    H170520   2.132   1.412   3.492 -0.2141  0.0362  1.5803
16343TIP3    H270521   2.018   1.456   3.402  1.4889 -0.0515 -0.7269
16344TIP3   OH270522   5.479   0.642  17.242 -0.2095 -0.5417 -0.5241
16344TIP3    H170523   5.426   0.687  17.176 -0.9702 -0.0792  0.3821
16344TIP3    H270524   5.558   0.617  17.195  0.7404  2.6371 -0.8978
16345TIP3   OH270525   3.712   2.265  16.018  0.2808 -0.3833  0.2554
16345TIP3    H170526   3.803   2.293  16.005 -0.1480  0.0954 -2.2505
16345TIP3    H270527   3.719   2.173  16.044  1.4974 -0.2147  0.5757
16346TIP3   OH270528   4.441   2.021   2.658 -0.1477  0.4231 -0.6288
16346TIP3    H170529   4.475   1.993   2.743 -0.4546 -1.6740 -1.1308
16346TIP3    H270530   4.354   1.980   2.652  0.2180 -0.2071 -2.2781
16347TIP3   OH270531   2.793   0.562  12.307  0.4184 -0.2066 -0.8303
16347TIP3    H170532   2.820   0.550  12.215  0.1764 -0.9232 -0.8155
16347TIP3    H270533   2.747   0.645  12.308  0.8372  0.0389 -1.2651
16348TIP3   OH270534   1.036   2.790  16.046  0.0587  0.4044 -0.0355
16348TIP3    H170535   1.114   2.835  16.014  0.1018  0.1438 -0.3028
16348TIP3    H270536   1.003   2.845  16.117 -0.2913  1.2460 -0.8233
16349TIP3   OH270537   0.776   5.690  10.446 -0.0432 -0.4770  0.3630
16349TIP3    H170538   0.756   5.626  10.377 -1.5611  1.5447 -1.1927
16349TIP3    H270539   0.835   5.643  10.505  1.2754 -2.3644 -2.2421
16350TIP3   OH270540   4.020   6.633   3.007 -0.0203  0.0540  0.3581
16350TIP3    H170541   4.050   6.542   2.999 -1.4007 -0.5056  1.0935
16350TIP3    H270542   4.099   6.683   3.025  0.7495 -1.0291  0.0636
16351TIP3   OH270543   1.018   6.386   3.640 -0.3277 -0.2543  0.2823
16351TIP3    H170544   0.989   6.396   3.549 -1.0192  2.0395  0.6974
16351TIP3    H270545   0.952   6.330   3.680 -2.1269  1.7154  0.2273
16352TIP3   OH270546   5.332   4.900   5.676 -0.5992  0.6896 -0.2339
16352TIP3    H170547   5.261   4.883   5.738  0.3805  1.7563  1.2480
16352TIP3    H270548   5.412   4.893   5.728  0.2642  1.6328 -1.3707
16353TIP3   OH270549   0.952   2.929  12.882 -0.1510  0.0969  0.1661
16353TIP3    H170550   0.931   2.851  12.830 -0.3044  0.4122 -0.2574
16353TIP3    H270551   0.907   3.001  12.836  0.2143  0.4763  0.3923
16354TIP3   OH270552   0.810   6.282  11.765 -0.3516 -0.4208 -0.0233
16354TIP3    H170553   0.752   6.209  11.785 -1.1359  0.0472 -0.5005
16354TIP3    H270554   0.898   6.245  11.766 -0.6948 -1.2386  0.3050
16355TIP3   OH270555   5.910   0.421  14.576 -0.0372 -0.1224  0.6489
16355TIP3    H170556   5.922   0.348  14.516  0.8791 -1.5384  2.4545
16355TIP3    H270557   5.822   0.410  14.611  0.4839 -1.0769  1.7428
16356TIP3   OH270558   6.246   5.424   2.159 -1.3255 -0.5737 -0.6299
16356TIP3    H170559   6.336   5.392   2.150 -1.1912 -0.3949  0.0425
16356TIP3    H270560   6.242   5.500   2.100 -0.0961  1.3130  1.5396
16357TIP3   OH270561   5.218   3.086  17.088 -0.0371  0.7643 -0.0381
16357TIP3    H170562   5.125   3.082  17.112 -0.1442  0.2803 -0.5110
16357TIP3    H270563   5.233   3.178  17.066 -0.1759  1.0247  0.9055
16358TIP3   OH270564   6.592   3.188   2.680 -0.7283 -0.3719  0.0188
16358TIP3    H170565   6.499   3.168   2.688 -0.6849 -0.2929  0.7450
16358TIP3    H270566   6.636   3.103   2.686 -0.6664 -0.2771  1.2107
16359TIP3   OH270567   6.566   3.153   5.838 -0.2020 -0.1195 -0.5088
16359TIP3    H170568   6.620   3.103   5.777  1.2901  0.9487 -0.1006
16359TIP3    H270569   6.577   3.110   5.922 -1.0828 -0.6963 -0.6695
16360TIP3   OH270570   1.947   6.134   3.483  0.1200  1.0478  0.2742
16360TIP3    H170571   1.997   6.105   3.407 -0.1161  2.5947 -0.4977
16360TIP3    H270572   1.870   6.178   3.447 -0.6404  0.7233  1.4237
16361TIP3   OH270573   3.104   3.415   3.624 -0.1419  0.1352 -0.1007
16361TIP3    H170574   3.166   3.474   3.667 -1.7206  1.7363  0.1249
16361TIP3    H270575   3.088   3.346   3.689 -0.2872  0.9404  0.7456
16362TIP3   OH270576   1.574   0.639   2.871 -0.2182  0.5575  0.4460
16362TIP3    H170577   1.590   0.553   2.834  0.2215  0.3899  1.0043
16362TIP3    H270578   1.626   0.699   2.817  0.6535  0.2787  0.9470
16363TIP3   OH270579   5.666   4.036  16.802 -0.1558  0.1570 -0.4484
16363TIP3    H170580   5.629   4.059  16.887 -1.2835 -2.5408 -0.1395
16363TIP3    H270581   5.607   4.075  16.738 -0.5114  0.3655  0.0051
16364TIP3   OH270582   6.781   5.238   0.354  0.8490 -0.4476 -0.1793
16364TIP3    H170583   6.744   5.326   0.363 -0.5369 -1.2183  3.4214
16364TIP3    H270584   6.868   5.244   0.393  0.0238 -1.0001  1.8412
16365TIP3   OH270585   2.334   1.395   4.516 -0.4774 -0.3155  0.6472
16365TIP3    H170586   2.406   1.445   4.478 -2.2326 -0.0831 -2.7588
16365TIP3    H270587   2.266   1.460   4.533 -0.4433 -0.7167  2.5642
16366TIP3   OH270588   3.341   4.138   5.922 -0.7445 -0.5298  0.5459
16366TIP3    H170589   3.425   4.091   5.921 -1.1630 -1.2816 -0.0103
16366TIP3    H270590   3.289   4.092   5.988 -0.0471  1.1941  2.4204
16367TIP3   OH270591   5.597   2.734  16.582  0.7791 -0.2630 -0.1134
16367TIP3    H170592   5.669   2.724  16.520  0.4991 -2.7284 -0.1146
16367TIP3    H270593   5.563   2.646  16.594 -0.5442  0.4645  1.9484
16368TIP3   OH270594   5.584   5.649   4.230 -0.4437 -0.1132  0.2545
16368TIP3    H170595   5.591   5.577   4.167  1.0598 -0.5075  0.8211
16368TIP3    H270596   5.490   5.661   4.243 -0.7460 -0.8973 -1.0702
16369TIP3   OH270597   4.883   4.216  16.477 -0.3149  0.1030  0.2781
16369TIP3    H170598   4.909   4.236  16.387 -0.5412  1.4897  0.5034
16369TIP3    H270599   4.960   4.239  16.529 -0.8378  1.1563  0.6186
16370TIP3   OH270600   2.780   2.773   1.645 -0.1036 -0.3177  0.4421
16370TIP3    H170601   2.767   2.832   1.718  1.0503  1.1742 -0.4900
16370TIP3    H270602   2.822   2.696   1.683 -0.1737  0.1212  1.4348
16371TIP3   OH270603   2.136   5.683  16.562  0.5492  0.1183 -0.3934
16371TIP3    H170604   2.091   5.652  16.641  0.7718  0.0637 -0.2825
16371TIP3    H270605   2.164   5.772  16.583  0.4780  0.1577 -0.4655
16372TIP3   OH270606   4.700   5.916  12.134 -0.2775 -0.1318  0.2355
16372TIP3    H170607   4.744   5.832  12.148 -0.4949  0.1118  2.7014
16372TIP3    H270608   4.644   5.928  12.210 -0.9264  1.8606 -0.4757
16373TIP3   OH270609   4.187   1.098   0.438  0.9263 -0.1466 -0.1545
16373TIP3    H170610   4.148   1.165   0.382  0.7830 -0.7159 -0.7505
16373TIP3    H270611   4.113   1.059   0.484  0.9784 -0.0848 -0.0176
16374TIP3   OH270612   4.570   3.416   2.125 -0.7109  0.3743  0.2200
16374TIP3    H170613   4.630   3.486   2.152  0.8330 -1.2016  1.0367
16374TIP3    H270614   4.575   3.415   2.029  1.0270 -0.0782  0.2909
16375TIP3   OH270615   1.740   4.965   5.139 -0.1883 -0.9752  0.3525
16375TIP3    H170616   1.757   4.962   5.045  0.7523  1.6923  0.3459
16375TIP3    H270617   1.826   4.962   5.180 -0.4233  0.1930  0.9820
16376TIP3   OH270618   4.529   4.965  15.062 -0.6122  0.0049 -0.5264
16376TIP3    H170619   4.462   5.014  15.014 -1.7566  0.4619  1.4216
16376TIP3    H270620   4.480   4.921  15.132  1.0112 -0.3520  0.4299
16377TIP3   OH270621   1.604   4.341  12.925 -0.4182 -0.0558  0.1231
16377TIP3    H170622   1.675   4.337  12.988 -0.8055 -0.6512  0.5295
16377TIP3    H270623   1.575   4.432  12.927 -0.5086 -0.0978  0.9013
16378TIP3   OH270624   5.263   3.023  13.910 -0.1987  0.5863  0.0398
16378TIP3    H170625   5.338   2.967  13.930 -0.8281 -0.3272 -0.0988
16378TIP3    H270626   5.214   2.975  13.843  0.2457  2.1705 -1.5140
16379TIP3   OH270627   1.572   6.026   2.784 -0.5197  0.1792 -0.0525
16379TIP3    H170628   1.545   6.055   2.871  2.1215 -1.0268  1.3066
16379TIP3    H270629   1.542   6.095   2.725 -3.8834  0.2315  1.5150
16380TIP3   OH270630   6.642   2.775   5.687 -0.7595 -0.2503  0.3988
16380TIP3    H170631   6.618   2.770   5.780 -1.8231  0.0348  0.1478
16380TIP3    H270632   6.580   2.718   5.643 -0.3485 -0.2701 -0.1607
16381TIP3   OH270633   2.167   0.140  11.579 -0.5988 -0.0936 -0.6940
16381TIP3    H170634   2.203   0.222  11.544  2.9904 -0.8518  0.8201
16381TIP3    H270635   2.164   0.082  11.503  0.5900  0.3043 -1.0686
16382TIP3   OH270636   3.405   0.942  12.911 -0.1226  0.7047 -0.9491
16382TIP3    H170637   3.367   0.859  12.882  0.6736  0.0037 -0.0798
16382TIP3    H270638   3.348   0.971  12.982  0.2849  0.2505 -0.4257
16383TIP3   OH270639   1.112   5.976   4.064  0.1038  0.0529  0.3443
16383TIP3    H170640   1.107   6.020   4.149 -1.8630  0.4221  0.0974
16383TIP3    H270641   1.145   5.889   4.084  2.0807  0.9279  1.1205
16384TIP3   OH270642   6.282   2.317   4.900  0.2305 -0.3409  0.3918
16384TIP3    H170643   6.366   2.349   4.931  0.4841 -0.1719 -0.4331
16384TIP3    H270644   6.299   2.289   4.810 -0.5377 -0.5296  0.2992
16385TIP3   OH270645   0.812   1.441  15.052 -0.0528 -0.1404 -0.1419
16385TIP3    H170646   0.793   1.361  15.101 -0.1889  0.3136  0.5452
16385TIP3    H270647   0.752   1.506  15.087  1.1817  0.7151  0.4787
16386TIP3   OH270648   1.922   3.106  13.696 -0.1304 -0.2995 -0.1633
16386TIP3    H170649   1.831   3.078  13.703 -0.2426  0.3140  0.9147
16386TIP3    H270650   1.952   3.116  13.786  0.4752  1.2171 -0.5001
16387TIP3   OH270651   3.266   5.576  16.445  0.0814  0.2022 -0.0501
16387TIP3    H170652   3.361   5.582  16.451  0.0456  1.6635 -0.6342
16387TIP3    H270653   3.233   5.653  16.490 -0.9187 -1.0664  1.5243
16388TIP3   OH270654   3.981   0.832   4.775 -0.2052 -0.1537  0.7721
16388TIP3    H170655   4.034   0.862   4.701  0.7739 -0.2275  1.4325
16388TIP3    H270656   3.891   0.854   4.750  0.1150 -0.1430 -0.4194
16389TIP3   OH270657   1.561   6.159  16.287  0.2346  0.5926  0.7642
16389TIP3    H170658   1.572   6.125  16.198 -1.1264 -1.2008  1.2206
16389TIP3    H270659   1.646   6.145  16.329  0.5874  0.5236  0.0490
16390TIP3   OH270660   3.312   2.048   3.549  0.4209  0.0528  0.1699
16390TIP3    H170661   3.295   2.139   3.525  0.9928 -0.2000 -1.2775
16390TIP3    H270662   3.359   2.011   3.475 -1.6461 -2.0228 -0.2397
16391TIP3   OH270663   5.567   6.783   2.527  0.1309  0.0677 -0.1373
16391TIP3    H170664   5.578   6.811   2.618 -0.7821 -1.5716  0.5052
16391TIP3    H270665   5.479   6.748   2.522 -0.4131  1.4955 -2.0749
16392TIP3   OH270666   1.998   5.860  12.133  0.2348  0.9396  0.1584
16392TIP3    H170667   1.943   5.902  12.066 -1.0756 -0.2918  0.4211
16392TIP3    H270668   2.051   5.797  12.084  0.9512  1.6601 -0.0071
16393TIP3   OH270669   4.881   0.250   5.892 -0.4252  0.2288 -0.0979
16393TIP3    H170670   4.962   0.301   5.890 -0.6755  0.6650  0.4436
16393TIP3    H270671   4.822   0.296   5.832 -0.2720 -0.0937 -0.4988
16394TIP3   OH270672   6.777   3.708   1.168 -0.1306 -0.1270 -0.2146
16394TIP3    H170673   6.691   3.749   1.175 -0.2164 -0.6260  3.0356
16394TIP3    H270674   6.833   3.757   1.229  0.6593 -2.5400  1.1366
16395TIP3   OH270675   6.758   5.364   1.479  0.1934  0.7107 -0.2602
16395TIP3    H170676   6.804   5.375   1.397  0.1192 -1.0461 -0.5776
16395TIP3    H270677   6.677   5.414   1.468  0.1432  0.4201 -1.2930
16396TIP3   OH270678   0.604   5.974  11.379  0.2198 -0.4265  0.2086
16396TIP3    H170679   0.525   5.935  11.341  0.2171  0.5156 -0.8017
16396TIP3    H270680   0.575   6.056  11.417  0.1966 -1.4218  2.4814
16397TIP3   OH270681   0.036   0.441  16.898  0.3743  0.6477 -0.1117
16397TIP3    H170682   0.017   0.347  16.905  1.2780  0.2610 -2.1148
16397TIP3    H270683   0.096   0.458  16.971 -2.0879  0.4211  2.1398
16398TIP3   OH270684   2.379   1.183  17.040 -0.0729  0.2410 -0.1333
16398TIP3    H170685   2.345   1.236  17.112  2.1866  0.8947  0.5258
16398TIP3    H270686   2.436   1.119  17.082  2.3496  1.4588 -1.3143
16399TIP3   OH270687   1.322   4.837  10.984 -0.3703  0.1908  0.1035
16399TIP3    H170688   1.394   4.874  11.036 -1.2219  0.6362  0.9780
16399TIP3    H270689   1.286   4.912  10.937  0.7105 -0.2768 -1.5875
16400TIP3   OH270690   6.523   5.723  13.400  0.0158  0.3047 -0.4232
16400TIP3    H170691   6.572   5.732  13.318 -1.7343  2.7847 -1.3383
16400TIP3    H270692   6.467   5.801  13.402 -3.8436 -2.2323  0.5373
16401TIP3   OH270693   5.687   5.665   0.988  0.2134  0.2502 -0.3674
16401TIP3    H170694   5.740   5.689   1.064  0.8129  0.7886 -0.9358
16401TIP3    H270695   5.750   5.628   0.926 -0.2915 -0.3285 -0.5476
16402TIP3   OH270696   1.103   2.270   1.591 -0.5927 -0.0807 -0.0985
16402TIP3    H170697   1.029   2.328   1.605 -0.0418  1.0666 -1.6520
16402TIP3    H270698   1.172   2.303   1.648 -1.6908 -2.1831  2.6772
16403TIP3   OH270699   0.231   2.669  14.489 -0.4164 -0.1685  0.4658
16403TIP3    H170700   0.202   2.591  14.536  0.2520  0.2865  1.6719
16403TIP3    H270701   0.211   2.742  14.548 -0.6363  0.5442 -0.4570
16404TIP3   OH270702   5.322   6.377  14.632 -0.5099 -0.1841 -0.3259
16404TIP3    H170703   5.387   6.398  14.565  0.1569 -0.2128  0.2870
16404TIP3    H270704   5.369   6.390  14.715 -1.9853  2.2268  0.2446
16405TIP3   OH270705   2.055   4.797  15.053 -0.4201  0.8182 -0.8922
16405TIP3    H170706   2.052   4.833  14.964  0.2108 -0.8889 -1.6409
16405TIP3    H270707   2.108   4.718  15.045  2.0264  2.0457  1.5294
16406TIP3   OH270708   0.313   2.187   0.258  0.0413 -0.1263  0.0531
16406TIP3    H170709   0.316   2.256   0.324 -0.0295 -1.5964  1.6757
16406TIP3    H270710   0.315   2.233   0.174 -1.9829  1.9175  1.0303
16407TIP3   OH270711   6.250   6.506  17.206  0.3563 -0.0936  0.2427
16407TIP3    H170712   6.155   6.511  17.195  0.4393  0.8363 -0.1258
16407TIP3    H270713   6.285   6.565  17.139  1.2476 -1.2963 -0.3687
16408TIP3   OH270714   2.548   5.140   3.754  0.0078  0.7219 -0.6016
16408TIP3    H170715   2.593   5.072   3.805  0.6098  0.3838 -1.5477
16408TIP3    H270716   2.500   5.191   3.819 -0.1668 -0.3838  0.1828
16409TIP3   OH270717   1.620   2.959  11.880 -0.5763  0.5061 -0.2067
16409TIP3    H170718   1.597   3.050  11.899  0.0480  1.3823 -3.0785
16409TIP3    H270719   1.543   2.909  11.903 -1.4404  1.9505  0.1791
16410TIP3   OH270720   5.556   6.480   5.364  0.0143  0.4864 -0.2495
16410TIP3    H170721   5.461   6.468   5.357  0.0575 -1.4864  1.4171
16410TIP3    H270722   5.568   6.533   5.442  0.2787 -1.7640  1.3519
16411TIP3   OH270723   3.756   4.946   0.084  0.6145 -0.0134 -0.2540
16411TIP3    H170724   3.809   4.958   0.163 -0.1390 -1.5960  0.5260
16411TIP3    H270725   3.774   4.856   0.057  0.0405  0.1705 -1.2784
16412TIP3   OH270726   2.764   4.467   2.406 -0.0741 -0.0002  0.2527
16412TIP3    H170727   2.842   4.504   2.364  3.6802 -3.2724  3.4631
16412TIP3    H270728   2.752   4.520   2.485  1.2293 -1.5060  1.5265
16413TIP3   OH270729   3.724   3.202  16.692 -0.4452  0.4130 -0.5527
16413TIP3    H170730   3.813   3.171  16.708 -0.4261  0.8316  0.2102
16413TIP3    H270731   3.725   3.294  16.720 -1.5554 -0.0559  1.1604
16414TIP3   OH270732   1.389   0.166  13.199  0.0729 -0.0833  0.3350
16414TIP3    H170733   1.312   0.175  13.143  0.5371  0.3038 -0.2526
16414TIP3    H270734   1.407   0.072  13.201 -0.5885 -0.2125  0.7302
16415TIP3   OH270735   5.938   0.536   2.112 -0.3185 -0.6050  0.4716
16415TIP3    H170736   5.891   0.453   2.115  0.9199 -1.6387 -3.2653
16415TIP3    H270737   5.981   0.537   2.026  1.0130  3.2324  0.9566
16416TIP3   OH270738   5.927   4.045   3.701  0.5349 -0.2892 -0.4131
16416TIP3    H170739   5.985   4.088   3.764 -0.5917  0.9255 -0.1559
16416TIP3    H270740   5.941   3.951   3.716  1.4844 -0.0222  0.5064
16417TIP3   OH270741   2.917   3.816   1.505  0.1247  0.0311  0.3620
16417TIP3    H170742   2.999   3.787   1.465 -0.3102 -0.9002  0.1156
16417TIP3    H270743   2.849   3.768   1.458 -0.6037  1.0835  0.2990
16418TIP3   OH270744   1.085   5.278  12.816 -0.0969 -0.0343  0.4386
16418TIP3    H170745   1.111   5.346  12.878 -1.4272  2.0140 -1.1082
16418TIP3    H270746   1.165   5.256  12.769  0.1852  1.2853  0.2536
16419TIP3   OH270747   2.442   4.510   2.555  0.0129 -0.3762 -0.2173
16419TIP3    H170748   2.455   4.544   2.644 -1.7970 -1.2902  0.4278
16419TIP3    H270749   2.529   4.478   2.530  0.9307  1.3390  0.5696
16420TIP3   OH270750   3.470   3.673   5.711  0.1617 -0.8629 -0.2440
16420TIP3    H170751   3.475   3.669   5.807  0.7316  0.4649 -0.1978
16420TIP3    H270752   3.560   3.660   5.681 -0.1474 -2.1879 -0.6658
16421TIP3   OH270753   1.659   3.264   3.351  0.7583  0.2911 -0.3045
16421TIP3    H170754   1.665   3.182   3.302 -3.0864  0.9223 -2.2220
16421TIP3    H270755   1.654   3.332   3.284 -0.6797  1.6087  1.0552
16422TIP3   OH270756   5.360   4.046   1.938 -0.1164 -0.4399  0.3383
16422TIP3    H170757   5.405   4.006   2.012  0.7020  1.0086  0.6461
16422TIP3    H270758   5.389   3.996   1.862 -0.7445 -1.7560  0.9201
16423TIP3   OH270759   4.756   0.078   3.299 -0.1063  0.2539 -0.2470
16423TIP3    H170760   4.733   0.126   3.219  0.6975  3.8426  1.4445
16423TIP3    H270761   4.678   0.027   3.320 -2.0236  2.6650 -1.0405
16424TIP3   OH270762   5.708   0.956  16.090 -1.2351  0.5906 -0.1772
16424TIP3    H170763   5.716   1.049  16.112 -0.0615  0.3473  0.5231
16424TIP3    H270764   5.797   0.928  16.072 -1.6181 -0.3433 -0.6878
16425TIP3   OH270765   0.800   3.118  11.792 -0.4048  0.0867 -0.1420
16425TIP3    H170766   0.775   3.083  11.878 -0.0895  1.2361  0.4510
16425TIP3    H270767   0.871   3.061  11.762  0.2949  0.3627  0.9185
16426TIP3   OH270768   6.768   6.776   4.463  0.0656 -0.3312  0.2188
16426TIP3    H170769   6.843   6.835   4.456  0.7939 -1.1514  0.9237
16426TIP3    H270770   6.692   6.834   4.460  0.7567  0.6279  0.6466
16427TIP3   OH270771   3.290   2.481  15.885 -0.1091  0.3267  1.2219
16427TIP3    H170772   3.204   2.524  15.884  0.4695  1.4977  0.3218
16427TIP3    H270773   3.305   2.460  15.977 -1.6909 -0.6036  1.3086
16428TIP3   OH270774   2.486   1.582  12.512  0.2971  0.0137  0.5112
16428TIP3    H170775   2.437   1.607  12.433  0.5923  0.9581  0.6198
16428TIP3    H270776   2.535   1.661  12.536  0.3147 -0.3064  1.5682
16429TIP3   OH270777   6.392   4.175   1.247  0.4108  0.2475 -0.2718
16429TIP3    H170778   6.360   4.254   1.204 -1.0636 -0.0938  0.1654
16429TIP3    H270779   6.348   4.174   1.332  0.9946 -0.6510  0.0322
16430TIP3   OH270780   3.744   2.367   3.903 -0.1647  0.5314 -0.4700
16430TIP3    H170781   3.803   2.341   3.832  1.1588  0.8878  0.4739
16430TIP3    H270782   3.659   2.379   3.860  0.4337 -0.0048 -1.8540
16431TIP3   OH270783   5.148   1.852  15.596 -0.1254 -0.1330  0.3600
16431TIP3    H170784   5.143   1.758  15.579 -0.1332 -0.4169  1.8547
16431TIP3    H270785   5.061   1.876  15.629 -0.4393  0.6162 -0.9209
16432TIP3   OH270786   2.113   0.068  16.873 -0.2540 -0.3838  0.2390
16432TIP3    H170787   2.205   0.088  16.889  0.5652 -0.8358 -3.1376
16432TIP3    H270788   2.072   0.153  16.856 -0.5371 -0.1753  1.8140
16433TIP3   OH270789   2.325   4.038  14.358 -0.3738  0.5671 -0.2340
16433TIP3    H170790   2.266   4.082  14.296 -1.5318 -0.5490  0.0258
16433TIP3    H270791   2.393   4.000  14.302 -0.9978  0.1988 -0.7587
16434TIP3   OH270792   5.549   2.241   0.759  0.2399 -0.0205  0.0581
16434TIP3    H170793   5.454   2.230   0.761  0.0907  0.5512 -1.6250
16434TIP3    H270794   5.583   2.155   0.734  0.1200 -0.1238  0.2549
16435TIP3   OH270795   5.035   6.241  13.256  0.7246  0.4641 -0.5526
16435TIP3    H170796   5.002   6.315  13.308 -3.6351 -0.5901 -1.4192
16435TIP3    H270797   5.034   6.167  13.318 -0.4657  0.0601 -1.0200
16436TIP3   OH270798   6.313   6.601  11.781  0.1227 -0.7372  0.2619
16436TIP3    H170799   6.273   6.687  11.778  2.9309  0.7165 -3.1430
16436TIP3    H270800   6.284   6.558  11.700  1.8289 -1.3566 -0.0678
16437TIP3   OH270801   5.627   1.973  14.554  0.4562  0.7391  0.8697
16437TIP3    H170802   5.610   2.065  14.532 -0.0109  0.1355 -1.6695
16437TIP3    H270803   5.541   1.937  14.576  0.3769  0.5679  0.3035
16438TIP3   OH270804   4.878   5.481  17.324 -0.8250 -0.6064  0.5093
16438TIP3    H170805   4.922   5.556  17.364 -0.8642  0.1019 -0.7221
16438TIP3    H270806   4.787   5.489  17.353 -0.8863 -0.0160  0.1582
16439TIP3   OH270807   4.856   2.169   2.856 -0.3137 -0.4662  0.3417
16439TIP3    H170808   4.893   2.235   2.914 -0.2494 -0.4833  0.3207
16439TIP3    H270809   4.885   2.194   2.769  0.0055 -0.7172  0.3734
16440TIP3   OH270810   6.022   3.631   6.476  0.3308 -0.2294  0.0696
16440TIP3    H170811   5.983   3.719   6.479 -0.8583 -0.7576  0.8997
16440TIP3    H270812   6.116   3.647   6.471  0.2912  1.1243  2.3976
16441TIP3   OH270813   3.653   4.291   1.958 -0.2001  0.1537 -0.1054
16441TIP3    H170814   3.705   4.368   1.980 -0.3546 -0.3756  2.5295
16441TIP3    H270815   3.715   4.232   1.915  0.5952  0.7522  0.1821
16442TIP3   OH270816   5.212   5.133   5.558  0.6059 -0.0465  0.0992
16442TIP3    H170817   5.229   5.085   5.477 -0.1324 -1.0283  0.5092
16442TIP3    H270818   5.230   5.070   5.628  0.8226  0.6600  0.6984
16443TIP3   OH270819   1.348   6.670  10.527  0.3803  0.0173  0.0769
16443TIP3    H170820   1.285   6.685  10.456 -0.5484 -0.7389  0.7121
16443TIP3    H270821   1.428   6.641  10.483  0.6112  1.8379 -0.8146
16444TIP3   OH270822   4.786   1.040   0.321  0.1651 -0.1634  0.5883
16444TIP3    H170823   4.838   0.963   0.347 -0.6054 -0.5941  0.8988
16444TIP3    H270824   4.740   1.012   0.242 -2.1439 -0.9815  2.1246
16445TIP3   OH270825   5.429   1.680  15.139 -0.0389  0.1487  0.3695
16445TIP3    H170826   5.497   1.682  15.205  1.4431 -0.3689 -1.0768
16445TIP3    H270827   5.421   1.588  15.114 -0.3627  0.3618 -0.3639
16446TIP3   OH270828   2.264   5.678   1.991 -0.1225 -0.1791  0.5621
16446TIP3    H170829   2.327   5.692   1.920 -0.0196  0.0435  0.6967
16446TIP3    H270830   2.316   5.683   2.071 -0.4947  1.2231  0.7404
16447TIP3   OH270831   0.917   3.928  13.878 -0.0847  0.4627  0.5445
16447TIP3    H170832   0.824   3.910  13.870 -0.0685 -0.1047  1.5180
16447TIP3    H270833   0.930   4.008  13.827 -0.3746 -1.5156 -2.9436
16448TIP3   OH270834   6.256   6.773   4.968  0.1900 -0.1118 -0.1099
16448TIP3    H170835   6.175   6.822   4.952  0.3176 -0.2001 -1.1084
16448TIP3    H270836   6.227   6.688   5.000 -0.2331 -0.8287 -2.2339
16449TIP3   OH270837   6.592   3.863  10.934  0.5658 -0.2802  0.0937
16449TIP3    H170838   6.647   3.898  11.004  1.0889  0.0300 -0.4602
16449TIP3    H270839   6.648   3.866  10.856  0.4798 -1.9100 -0.0778
16450TIP3   OH270840   0.356   4.736   0.524  0.0145  0.0514  0.2319
16450TIP3    H170841   0.312   4.798   0.583  1.4322  2.1498 -0.7895
16450TIP3    H270842   0.319   4.753   0.438  1.9624  1.1277 -0.4617
16451TIP3   OH270843   6.438   3.902  12.735 -0.2279 -0.3151 -0.4089
16451TIP3    H170844   6.360   3.954  12.714  0.3194  0.8082  0.2126
16451TIP3    H270845   6.461   3.859  12.653  0.1439  1.6177 -1.3771
16452TIP3   OH270846   3.680   2.292   6.063  0.1706  0.0037 -0.2592
16452TIP3    H170847   3.692   2.285   5.969  0.7786 -0.7716 -0.1357
16452TIP3    H270848   3.768   2.283   6.100 -0.0862  0.0627  0.3880
16453TIP3   OH270849   2.187   5.192   3.287  0.1187  0.5263  0.1174
16453TIP3    H170850   2.253   5.139   3.331 -0.8770 -0.6685  0.2332
16453TIP3    H270851   2.170   5.146   3.205  0.1238  1.3525 -0.3604
16454TIP3   OH270852   4.950   1.462   4.808  0.2713  0.2602  0.5018
16454TIP3    H170853   4.954   1.396   4.877  0.0557 -1.6866 -1.2450
16454TIP3    H270854   5.041   1.476   4.783  0.1757 -2.1958 -1.5667
16455TIP3   OH270855   6.604   2.767  15.865 -0.7206  0.2731 -0.2067
16455TIP3    H170856   6.596   2.861  15.881  0.5296  0.4434 -0.4766
16455TIP3    H270857   6.696   2.748  15.882 -1.2561 -1.1965  1.2610
16456TIP3   OH270858   0.362   3.737   4.110 -0.7287  0.2296  0.6418
16456TIP3    H170859   0.354   3.759   4.017 -0.4467  1.5326  0.9046
16456TIP3    H270860   0.347   3.643   4.114 -1.2612  0.2435 -0.6587
16457TIP3   OH270861   0.312   2.652  12.805  0.0057  0.2430 -0.1110
16457TIP3    H170862   0.262   2.711  12.749  0.2384 -0.7964 -1.4616
16457TIP3    H270863   0.394   2.637  12.758 -0.2826 -1.5911 -0.1071
16458TIP3   OH270864   6.164   4.008  13.678  0.7208 -0.2820 -0.0998
16458TIP3    H170865   6.126   3.920  13.679 -0.3924  0.1703  1.0264
16458TIP3    H270866   6.240   4.002  13.736  1.2999 -0.7514 -0.8935
16459TIP3   OH270867   4.128   3.733  15.932  0.7176 -0.1261 -0.1472
16459TIP3    H170868   4.154   3.801  15.994  0.8007 -0.2484 -0.0473
16459TIP3    H270869   4.033   3.742  15.925  0.5668 -0.7890  0.8019
16460TIP3   OH270870   2.951   2.737   5.312 -0.1488 -0.1996  0.0266
16460TIP3    H170871   2.915   2.764   5.396  1.8132  2.0388  0.2432
16460TIP3    H270872   2.988   2.650   5.329 -0.3791 -0.0749  1.2729
16461TIP3   OH270873   4.938   4.985  15.924 -0.2117 -0.0927  0.4576
16461TIP3    H170874   5.015   5.022  15.882 -0.1149 -1.7940 -0.9798
16461TIP3    H270875   4.964   4.896  15.947 -1.5187 -0.4664  0.5679
16462TIP3   OH270876   3.948   1.821  16.484 -0.1030  0.3442 -0.0169
16462TIP3    H170877   3.923   1.754  16.548  1.2454 -0.2742 -0.0994
16462TIP3    H270878   3.962   1.900  16.535  0.2785  0.0316  0.3712
16463TIP3   OH270879   3.914   4.293   2.199 -0.4612  0.4611  0.1009
16463TIP3    H170880   3.998   4.288   2.155 -0.2471  2.4726  0.2135
16463TIP3    H270881   3.917   4.223   2.265  2.0758  1.8830  1.6546
16464TIP3   OH270882   5.022   4.909  11.539 -0.3315  0.5904  0.3506
16464TIP3    H170883   5.073   4.909  11.457  0.1190 -0.4148  0.6033
16464TIP3    H270884   5.087   4.891  11.607 -0.8080  0.7548  0.8542
16465TIP3   OH270885   2.506   1.586  11.306 -0.9766  0.4764 -0.1491
16465TIP3    H170886   2.584   1.602  11.359 -0.6318  0.0248 -0.5119
16465TIP3    H270887   2.515   1.495  11.277 -1.9672  0.2077  0.3562
16466TIP3   OH270888   5.368   4.379  13.004  0.1589 -0.2228  0.2409
16466TIP3    H170889   5.312   4.420  12.939 -0.3627 -0.5332  0.4944
16466TIP3    H270890   5.309   4.354  13.075  0.4728 -1.4009  0.1011
16467TIP3   OH270891   6.188   3.507   2.492  0.7749  0.5632 -0.0264
16467TIP3    H170892   6.260   3.532   2.550  1.6036  0.7434 -1.1052
16467TIP3    H270893   6.225   3.513   2.404 -0.1905 -0.6211 -0.5310
16468TIP3   OH270894   3.196   3.007   6.241 -0.5968 -0.0439 -0.3254
16468TIP3    H170895   3.215   2.993   6.334  0.0992  2.3545 -0.0402
16468TIP3    H270896   3.100   3.007   6.236 -0.6407 -1.2457  0.1811
16469TIP3   OH270897   2.607   3.470   3.615 -0.0556 -0.0537 -0.5519
16469TIP3    H170898   2.623   3.464   3.709 -1.3352 -0.1464 -0.3194
16469TIP3    H270899   2.694   3.473   3.576  0.5243  1.8480  0.7429
16470TIP3   OH270900   4.629   2.925  11.929 -0.7197  0.1726 -0.5124
16470TIP3    H170901   4.535   2.937  11.931 -0.5303  2.1510  2.1818
16470TIP3    H270902   4.649   2.882  12.012  0.8078  0.2491 -0.8088
16471TIP3   OH270903   0.841   5.989  11.514 -0.0416  0.4991 -0.2418
16471TIP3    H170904   0.760   5.994  11.464 -0.4110 -2.6170 -0.1569
16471TIP3    H270905   0.888   6.070  11.493 -2.3111  1.5062 -1.7602
16472TIP3   OH270906   0.631   2.649  17.316 -0.4666 -0.0227 -0.1698
16472TIP3    H170907   0.690   2.575  17.326 -0.8082 -0.0701  1.9470
16472TIP3    H270908   0.571   2.642  17.390  0.1617  2.9779  0.7637
16473TIP3   OH270909   1.946   6.476  17.028  0.0853  0.4481 -0.4696
16473TIP3    H170910   1.907   6.562  17.012  0.5008  0.6305 -0.5047
16473TIP3    H270911   2.013   6.491  17.094 -0.1110  0.0795 -0.1793
16474TIP3   OH270912   3.580   4.912   1.371 -0.4242  0.0363  0.4304
16474TIP3    H170913   3.539   4.845   1.426 -1.2276  0.1712  0.0009
16474TIP3    H270914   3.569   4.881   1.282  0.4235  0.0748  0.3032
16475TIP3   OH270915   2.869   2.559  15.273  0.5157 -0.2171 -0.0082
16475TIP3    H170916   2.859   2.643  15.227 -1.6634 -1.3477 -1.7931
16475TIP3    H270917   2.813   2.498  15.225  0.3008 -2.2137  2.5286
16476TIP3   OH270918   1.304   2.259  17.116 -0.4531 -0.0682  0.3525
16476TIP3    H170919   1.395   2.267  17.085 -0.1074 -1.0193  1.0779
16476TIP3    H270920   1.264   2.196  17.056 -0.7509  0.6219 -0.1869
16477TIP3   OH270921   1.722   6.350  16.140  0.1598  0.1023  0.0642
16477TIP3    H170922   1.815   6.353  16.162  0.8532 -0.6998 -2.4551
16477TIP3    H270923   1.680   6.317  16.219  1.9433  0.7628  1.3686
16478TIP3   OH270924   2.685   5.884  10.814 -0.4588 -0.4095 -0.4147
16478TIP3    H170925   2.691   5.820  10.884 -0.2557 -0.5390 -0.5517
16478TIP3    H270926   2.638   5.839  10.744 -1.2899 -0.0570 -0.1076
16479TIP3   OH270927   6.331   6.621  13.065 -0.6239  0.0683  0.5980
16479TIP3    H170928   6.420   6.650  13.047 -0.3924  0.0710  1.6760
16479TIP3    H270929   6.276   6.673  13.006  0.2739 -2.2792 -2.5693
16480TIP3   OH270930   1.007   5.571  13.392 -0.5459  0.3066 -0.2111
16480TIP3    H170931   1.059   5.643  13.357  0.8701 -1.0682 -1.0178
16480TIP3    H270932   1.068   5.498  13.399 -2.1350 -1.0730 -0.2058
16481TIP3   OH270933   6.566   5.079   2.100  0.2031  0.3432  0.2504
16481TIP3    H170934   6.493   5.059   2.041  0.8124  0.2051 -0.4711
16481TIP3    H270935   6.549   5.026   2.178 -0.2747  0.0338 -0.0598
16482TIP3   OH270936   1.579   3.447  14.636 -0.2203  0.2083  0.3806
16482TIP3    H170937   1.561   3.436  14.543 -0.7582 -2.0084  0.6816
16482TIP3    H270938   1.493   3.444  14.678  0.1007 -0.1468  1.0386
16483TIP3   OH270939   1.874   6.528  10.493 -0.2683 -0.2061 -0.3306
16483TIP3    H170940   1.931   6.511  10.418  0.8259 -0.0757  0.4469
16483TIP3    H270941   1.819   6.450  10.500 -0.0116 -0.4490 -0.9419
16484TIP3   OH270942   6.068   5.412  14.240 -0.9474 -0.2422 -0.1919
16484TIP3    H170943   6.104   5.374  14.320  2.2079  0.1904 -1.2838
16484TIP3    H270944   6.095   5.351  14.171 -1.3913  0.7061 -1.2212
16485TIP3   OH270945   3.896   5.677  17.415  0.1121 -0.1244  0.2727
16485TIP3    H170946   3.891   5.771  17.404  1.4194 -0.0820 -0.0283
16485TIP3    H270947   3.833   5.642  17.351  1.7600  0.4443 -1.7852
16486TIP3   OH270948   5.003   6.266  14.655 -0.1238  0.0435  0.0879
16486TIP3    H170949   5.089   6.305  14.671  0.5335 -1.0974 -0.5432
16486TIP3    H270950   4.975   6.302  14.571  0.7157 -1.1680 -0.7517
16487TIP3   OH270951   4.973   4.083   5.191 -0.6306 -0.1042  0.1409
16487TIP3    H170952   5.004   4.051   5.276 -1.4146  0.4617  0.6637
16487TIP3    H270953   4.888   4.041   5.180  0.0297 -1.1926 -0.9954
16488TIP3   OH270954   0.981   6.679  17.096  0.2360 -0.2505 -0.7730
16488TIP3    H170955   1.038   6.604  17.076  0.7148  0.1697 -1.0287
16488TIP3    H270956   1.033   6.733  17.156  0.9764  1.1777 -2.5886
16489TIP3   OH270957   5.120   0.773  13.857  0.2603 -0.0643 -0.8064
16489TIP3    H170958   5.050   0.743  13.800  0.2996  0.6051 -1.2202
16489TIP3    H270959   5.097   0.740  13.943 -0.2689 -0.3298 -1.0464
16490TIP3   OH270960   1.705   2.140  14.118  0.1103  0.4487 -0.3489
16490TIP3    H170961   1.793   2.175  14.112 -0.2343  1.2536 -0.8114
16490TIP3    H270962   1.668   2.180  14.196 -0.4279  1.4889 -1.1092
16491TIP3   OH270963   6.423   1.540   4.695 -0.2429 -0.3876 -0.3929
16491TIP3    H170964   6.370   1.616   4.668 -0.8552 -0.3819  0.7648
16491TIP3    H270965   6.391   1.519   4.783 -1.4678 -3.1740 -1.3778
16492TIP3   OH270966   5.807   4.007  13.017 -0.3693  0.3689 -0.1848
16492TIP3    H170967   5.888   4.057  13.029 -0.1567  0.5514 -2.0347
16492TIP3    H270968   5.739   4.063  13.055  0.0726  1.3611 -0.8050
16493TIP3   OH270969   2.736   3.126  14.554 -0.2786  0.7264 -0.4691
16493TIP3    H170970   2.702   3.215  14.567 -0.5018  0.7038 -0.8840
16493TIP3    H270971   2.715   3.106  14.463 -1.7973 -0.4295  0.0983
16494TIP3   OH270972   1.383   0.237  15.440  0.1998 -0.3203  0.6508
16494TIP3    H170973   1.409   0.293  15.512 -0.8419  1.0749 -0.0066
16494TIP3    H270974   1.385   0.148  15.476  0.9398  0.2212  1.9930
16495TIP3   OH270975   2.878   4.907  15.399 -0.2576  0.6244  0.6376
16495TIP3    H170976   2.900   4.851  15.473  0.8377 -0.6627 -0.5887
16495TIP3    H270977   2.783   4.900  15.390 -0.0475 -2.3746 -0.4038
16496TIP3   OH270978   5.522   6.094  13.885  0.3437  0.3451 -0.1207
16496TIP3    H170979   5.567   6.034  13.826  0.2268  0.9035 -0.7923
16496TIP3    H270980   5.567   6.084  13.968  1.1101  0.2200 -0.5439
16497TIP3   OH270981   2.341   0.638   4.325 -0.3147  0.0406  0.3563
16497TIP3    H170982   2.290   0.574   4.274 -0.8828 -0.1162  1.0988
16497TIP3    H270983   2.427   0.639   4.283  0.2381 -2.3780  1.2375
16498TIP3   OH270984   2.086   6.773   1.641 -0.1570 -0.4540  0.5646
16498TIP3    H170985   2.062   6.715   1.569 -0.8124 -0.1791  0.5548
16498TIP3    H270986   2.155   6.829   1.605 -0.5699 -0.2334  0.1130
16499TIP3   OH270987   3.159   5.315   4.424 -0.0933 -0.2133 -0.0061
16499TIP3    H170988   3.159   5.264   4.342  0.2105 -0.1883 -0.0250
16499TIP3    H270989   3.147   5.250   4.493  1.3251 -0.4620  0.0463
16500TIP3   OH270990   3.254   6.410   1.409 -0.1832  0.3347  0.2828
16500TIP3    H170991   3.199   6.445   1.338  0.2964  0.5149 -0.0026
16500TIP3    H270992   3.210   6.438   1.489 -0.9484 -0.2001  0.0670
16501TIP3   OH270993   5.552   4.975  15.793 -0.4484  0.3076 -0.2536
16501TIP3    H170994   5.609   5.049  15.776 -0.8178  0.4692 -0.8303
16501TIP3    H270995   5.535   4.937  15.706  0.0089 -0.6599  0.0592
16502TIP3   OH270996   3.333   3.615  13.991 -0.0728 -0.4826 -0.1994
16502TIP3    H170997   3.350   3.537  13.938  0.2989  0.3060 -1.2867
16502TIP3    H270998   3.256   3.592  14.043 -0.0777 -1.5154 -0.6253
16503TIP3   OH270999   6.167   5.855   1.419 -0.1376  0.1665  0.6897
16503TIP3    H171000   6.255   5.892   1.413 -0.3697  0.4645 -1.5412
16503TIP3    H271001   6.115   5.923   1.462  0.6448  0.0285  1.9241
16504TIP3   OH271002   1.143   0.302  14.802 -0.0912 -0.2026 -0.6358
16504TIP3    H171003   1.193   0.221  14.797  1.0263  0.1867  2.3122
16504TIP3    H271004   1.091   0.294  14.882 -1.2556  1.3190 -1.1786
16505TIP3   OH271005   4.729   4.988  13.701  0.5008  0.0563 -0.4936
16505TIP3    H171006   4.668   4.943  13.758  1.0334 -0.1784 -0.1060
16505TIP3    H271007   4.727   4.938  13.619  0.8216 -0.4686 -0.1861
16506TIP3   OH271008   2.023   0.362   4.145  0.6486 -0.2406  0.1236
16506TIP3    H171009   1.991   0.438   4.192  0.0650 -1.3255  1.5332
16506TIP3    H271010   2.115   0.355   4.171  0.4849 -0.4889  0.6434
16507TIP3   OH271011   5.546   0.747  16.232  0.1701  0.0337 -0.3770
16507TIP3    H171012   5.609   0.819  16.226  1.4564 -0.6235  3.2194
16507TIP3    H271013   5.595   0.669  16.207  0.0041 -0.1431 -0.1577
16508TIP3   OH271014   2.945   4.464   0.386  0.8844  0.0627 -0.0543
16508TIP3    H171015   2.856   4.487   0.358  0.6200 -1.1501 -0.3039
16508TIP3    H271016   2.960   4.378   0.347  1.2980 -0.7701  1.8149
16509TIP3   OH271017   6.581   2.241   3.155 -0.7626  0.6978 -0.1123
16509TIP3    H171018   6.534   2.194   3.087 -3.7829  2.1093  0.8379
16509TIP3    H271019   6.584   2.331   3.125  0.5914  0.8060  0.2808
16510TIP3   OH271020   3.475   2.711  14.822 -0.1928 -0.3557  0.0736
16510TIP3    H171021   3.451   2.633  14.873  0.0194  0.6077  1.7183
16510TIP3    H271022   3.533   2.678  14.753 -0.6075 -1.7253  0.3494
16511TIP3   OH271023   4.450   5.521  15.504  0.0195  0.1893 -0.3970
16511TIP3    H171024   4.481   5.593  15.451  0.3439 -0.5948 -1.3037
16511TIP3    H271025   4.526   5.494  15.556  0.2786 -0.3294 -1.0248
16512TIP3   OH271026   5.735   6.073   2.882 -0.1061  0.3735  0.3371
16512TIP3    H171027   5.710   6.154   2.838 -1.2764 -0.0749  0.1277
16512TIP3    H271028   5.713   6.088   2.974 -0.7802  0.1319  0.2210
16513TIP3   OH271029   4.424   2.136   4.542 -0.0405  0.1169 -0.1063
16513TIP3    H171030   4.400   2.209   4.487 -0.5858  0.2409  0.2843
16513TIP3    H271031   4.520   2.134   4.540 -0.0649 -0.4539 -1.7802
16514TIP3   OH271032   2.028   4.987  12.975  0.0714 -0.6889 -0.0868
16514TIP3    H171033   2.046   4.991  12.882  2.3408  0.7852  0.3570
16514TIP3    H271034   2.113   4.975  13.017 -0.3719  2.1922  1.9628
16515TIP3   OH271035   4.742   0.546  12.059 -0.7942 -0.1451  0.4192
16515TIP3    H171036   4.824   0.496  12.054  0.2200  1.4336  0.4752
16515TIP3    H271037   4.686   0.494  12.116  0.5806 -0.7496  1.2891
16516TIP3   OH271038   6.017   0.425   2.504 -0.4005 -0.4513  0.6638
16516TIP3    H171039   5.935   0.385   2.472  0.0404 -0.5368 -0.4045
16516TIP3    H271040   6.010   0.517   2.478  0.3451 -0.7012 -0.5282
16517TIP3   OH271041   1.743   2.991  14.923 -0.2577  0.0084 -0.2758
16517TIP3    H171042   1.680   3.045  14.874  1.7252  2.0544 -0.7424
16517TIP3    H271043   1.746   3.032  15.010 -0.1449 -0.5649 -0.0079
16518TIP3   OH271044   4.259   2.353  15.968 -0.1545 -0.2918 -0.8969
16518TIP3    H171045   4.238   2.268  16.006 -0.6068  0.4057  0.4733
16518TIP3    H271046   4.310   2.398  16.036  1.1234  0.0993 -2.0576
16519TIP3   OH271047   5.983   6.426  15.785  0.1936 -0.1201  0.1902
16519TIP3    H171048   6.060   6.379  15.751 -0.4903 -0.9772 -0.1942
16519TIP3    H271049   5.967   6.386  15.871 -0.9295 -1.2444 -0.5164
16520TIP3   OH271050   1.567   6.175  11.498 -0.1045  0.7052 -0.1896
16520TIP3    H171051   1.555   6.087  11.462  0.0887  1.1379 -1.3743
16520TIP3    H271052   1.487   6.192  11.548  0.0834 -0.3369  0.4787
16521TIP3   OH271053   2.316   6.419   4.073 -0.3923 -0.4383 -0.2710
16521TIP3    H171054   2.315   6.365   3.994  0.3917 -0.0156 -0.5822
16521TIP3    H271055   2.227   6.413   4.108  0.0615 -3.3601  0.6998
16522TIP3   OH271056   0.888   1.406  11.210 -0.4254  0.0880 -0.4094
16522TIP3    H171057   0.879   1.371  11.299  3.4258 -1.4141 -0.3818
16522TIP3    H271058   0.942   1.485  11.221 -0.5068  0.2837 -1.3454
16523TIP3   OH271059   2.235   5.309   6.196  0.6008  0.6265 -0.3543
16523TIP3    H171060   2.189   5.385   6.231  1.5832  0.1349  2.2144
16523TIP3    H271061   2.327   5.329   6.210  0.9041 -0.6331 -0.4939
16524TIP3   OH271062   3.467   0.171   5.452 -0.0285  0.2022 -0.4883
16524TIP3    H171063   3.551   0.171   5.497 -0.1116 -0.4285 -0.3305
16524TIP3    H271064   3.425   0.089   5.478 -1.6066  1.4282  1.1691
16525TIP3   OH271065   2.511   1.557   2.765 -0.2842 -0.5299  0.3057
16525TIP3    H171066   2.526   1.629   2.826  0.1973  0.7644 -1.2658
16525TIP3    H271067   2.579   1.568   2.698 -1.0720 -1.6228 -0.7121
16526TIP3   OH271068   5.278   3.343   1.622 -0.4686 -0.1210  0.4239
16526TIP3    H171069   5.192   3.327   1.661 -0.4605 -0.9929  0.0972
16526TIP3    H271070   5.279   3.292   1.541  0.4999 -0.4439  0.6196
16527TIP3   OH271071   1.256   6.636  13.959  0.0776  0.1568 -0.4409
16527TIP3    H171072   1.200   6.666  13.887  2.7813 -0.2819 -2.9308
16527TIP3    H271073   1.328   6.700  13.961 -0.0062  0.2529  2.0646
16528TIP3   OH271074   2.062   4.541  16.022 -0.0389  0.3343 -0.4915
16528TIP3    H171075   2.085   4.547  15.930 -1.6191  0.4636 -0.9104
16528TIP3    H271076   1.973   4.576  16.027 -1.2505 -2.5534  0.5440
16529TIP3   OH271077   2.874   3.062  10.987  0.3717 -0.1751 -0.6292
16529TIP3    H171078   2.826   3.142  10.963 -0.8132 -1.2508 -2.0178
16529TIP3    H271079   2.819   3.020  11.053  0.4411 -0.3749 -0.6971
16530TIP3   OH271080   0.623   5.321   4.640  0.4916  0.6493  0.0364
16530TIP3    H171081   0.544   5.375   4.649  0.4203  0.3427  1.4706
16530TIP3    H271082   0.691   5.369   4.687  1.3986  1.2871 -1.8258
16531TIP3   OH271083   4.227   0.097   2.079 -0.4622  0.0918  0.2379
16531TIP3    H171084   4.139   0.079   2.113 -0.3270  2.6931  2.2837
16531TIP3    H271085   4.220   0.185   2.041  0.7837 -0.5310 -1.5362
16532TIP3   OH271086   1.448   5.161   3.356 -0.2236 -0.4091  0.4358
16532TIP3    H171087   1.540   5.148   3.380  1.0958  0.0269 -3.7098
16532TIP3    H271088   1.441   5.256   3.340 -1.3624 -0.4711  0.4994
16533TIP3   OH271089   5.071   3.092  13.397  0.4660  0.4192 -0.4759
16533TIP3    H171090   4.980   3.063  13.396  0.5144  0.2806 -0.7960
16533TIP3    H271091   5.086   3.128  13.309  0.7646  0.3068 -0.4706
16534TIP3   OH271092   2.268   0.416  14.788 -0.4059 -0.4269 -0.1331
16534TIP3    H171093   2.325   0.433  14.713 -0.6488  0.0162 -0.2204
16534TIP3    H271094   2.279   0.323  14.805  0.6064 -0.2894  0.0675
16535TIP3   OH271095   6.129   2.270   0.778  0.5164  0.0806  0.2524
16535TIP3    H171096   6.053   2.214   0.797 -0.2277  1.3704  1.2819
16535TIP3    H271097   6.203   2.209   0.773 -0.3712 -1.0740  0.5662
16536TIP3   OH271098   2.237   4.644   5.908  0.2121 -0.1861 -0.2952
16536TIP3    H171099   2.236   4.677   5.998  0.0425  0.3798 -0.5033
16536TIP3    H271100   2.169   4.577   5.906 -0.7912  0.8163 -0.3826
16537TIP3   OH271101   2.469   1.876   3.449  0.4425 -0.1870  0.0696
16537TIP3    H171102   2.497   1.903   3.362 -0.0387 -0.9570 -0.3289
16537TIP3    H271103   2.383   1.836   3.435  0.8090 -1.2268  0.7593
16538TIP3   OH271104   3.182   4.188  16.038 -0.0365  0.2150  0.4055
16538TIP3    H171105   3.098   4.222  16.005  0.4846  1.0443 -0.1121
16538TIP3    H271106   3.188   4.224  16.126  0.4089  1.3313 -0.0611
16539TIP3   OH271107   2.197   1.382   2.051 -0.7336 -0.3342 -0.4480
16539TIP3    H171108   2.227   1.361   2.140 -0.6544 -0.3180 -0.4702
16539TIP3    H271109   2.137   1.311   2.028 -2.0207  0.4878  0.2353
16540TIP3   OH271110   1.529   1.918   2.902  0.3957  0.5596  0.1989
16540TIP3    H171111   1.543   1.831   2.865 -0.2176 -0.0084  1.2630
16540TIP3    H271112   1.598   1.972   2.863  0.3654 -0.2210 -1.0136
16541TIP3   OH271113   4.433   0.284   2.467 -0.7234 -0.3779  0.2525
16541TIP3    H171114   4.377   0.244   2.534 -2.0222  0.4263 -0.3135
16541TIP3    H271115   4.442   0.216   2.400 -0.4897 -0.7321  0.6356
16542TIP3   OH271116   3.654   1.854   1.424 -0.0179  0.6997 -0.8514
16542TIP3    H171117   3.589   1.909   1.469  0.1051 -0.2851  0.6018
16542TIP3    H271118   3.623   1.850   1.333 -2.1300  0.0907 -0.1712
16543TIP3   OH271119   0.719   4.133   1.691  0.1533  0.1510  0.2813
16543TIP3    H171120   0.646   4.164   1.638 -0.7675  0.8988  1.9265
16543TIP3    H271121   0.787   4.199   1.679 -0.3977  0.8174  0.7504
16544TIP3   OH271122   4.585   1.812  14.538  0.2410 -0.2451  0.6612
16544TIP3    H171123   4.517   1.858  14.586 -1.3976 -1.3303 -0.4980
16544TIP3    H271124   4.634   1.764  14.605 -0.3367  0.3146  1.4950
16545TIP3   OH271125   5.108   1.890   6.055 -0.1675  0.3074  0.0464
16545TIP3    H171126   5.197   1.867   6.081  0.6159  2.7236 -0.2739
16545TIP3    H271127   5.106   1.878   5.961  0.3257  1.6182 -0.1590
16546TIP3   OH271128   5.358   6.084  15.513  0.1340 -0.3257 -0.2044
16546TIP3    H171129   5.410   6.012  15.477  0.5593 -0.2515  0.2610
16546TIP3    H271130   5.393   6.163  15.470  1.4106 -0.0978  1.1689
16547TIP3   OH271131   4.278   0.464  13.727  0.3564 -0.7895 -0.2961
16547TIP3    H171132   4.304   0.409  13.801  0.2868  0.5848  0.8064
16547TIP3    H271133   4.343   0.445  13.659  1.7437 -0.5165  0.8913
16548TIP3   OH271134   4.521   2.729   3.434 -0.7695 -0.4884  0.3823
16548TIP3    H171135   4.471   2.774   3.365 -0.5359 -0.3830  0.2817
16548TIP3    H271136   4.563   2.656   3.388  0.3322  0.2618  0.1706
16549TIP3   OH271137   2.069   3.643  11.607  0.6492 -0.1035 -0.0228
16549TIP3    H171138   2.075   3.711  11.673 -0.4869  0.7283 -0.7287
16549TIP3    H271139   2.026   3.569  11.651  1.6509 -0.2792  0.6721
16550TIP3   OH271140   4.493   5.080   1.541 -0.4454  0.2559  0.6357
16550TIP3    H171141   4.570   5.130   1.515  0.6254 -1.6631 -0.0709
16550TIP3    H271142   4.427   5.146   1.560  0.9395  1.9221 -0.0965
16551TIP3   OH271143   3.690   4.599   4.724  0.1499 -0.6281  0.7959
16551TIP3    H171144   3.767   4.543   4.733  0.6197 -0.2135 -0.4471
16551TIP3    H271145   3.616   4.540   4.742  0.5484 -2.0630 -1.7122
16552TIP3   OH271146   2.039   0.283  14.159  0.4356  0.5118  0.3597
16552TIP3    H171147   1.966   0.222  14.158  0.5272  0.3901 -0.6631
16552TIP3    H271148   1.998   0.370  14.152  0.3929  0.4228 -0.6044
16553TIP3   OH271149   3.161   5.836  16.523 -0.0018 -0.1899  0.0039
16553TIP3    H171150   3.159   5.840  16.619  0.5691  0.9437 -0.0092
16553TIP3    H271151   3.112   5.914  16.495  0.1543 -0.3093 -0.6247
16554TIP3   OH271152   5.368   0.185  11.532 -0.3034 -0.6749 -0.4040
16554TIP3    H171153   5.317   0.176  11.452 -0.7137  0.3798 -0.2690
16554TIP3    H271154   5.322   0.252  11.583  0.7103 -0.3606  0.1197
16555TIP3   OH271155   3.936   5.794   1.618 -0.2743  0.1642  0.0167
16555TIP3    H171156   3.879   5.793   1.695  0.9288 -1.4415  0.9594
16555TIP3    H271157   3.890   5.741   1.553 -1.0165  1.0136 -0.1540
16556TIP3   OH271158   5.824   0.951  15.503 -0.5672 -0.1685  0.2296
16556TIP3    H171159   5.832   1.003  15.423  1.9049 -2.9770 -1.5741
16556TIP3    H271160   5.778   0.872  15.475 -0.8517 -0.6521  1.9459
16557TIP3   OH271161   5.330   6.013   2.118  0.5674  0.9674 -0.4020
16557TIP3    H171162   5.286   6.098   2.128 -0.2765  0.3059  2.4198
16557TIP3    H271163   5.423   6.037   2.106  0.0421  2.2818 -2.3911
16558TIP3   OH271164   0.130   2.884   0.454 -0.4431 -1.1142 -0.2543
16558TIP3    H171165   0.199   2.950   0.447  0.0967 -1.4750  1.2701
16558TIP3    H271166   0.049   2.934   0.454 -0.2280 -0.6853 -2.0805
16559TIP3   OH271167   2.428   1.031   4.308 -0.4878  0.7015 -0.3232
16559TIP3    H171168   2.343   1.073   4.296 -1.4038 -0.4473  1.5822
16559TIP3    H271169   2.455   1.057   4.396 -0.1703 -1.0662  0.1366
16560TIP3   OH271170   5.404   1.062  12.396 -0.0466  0.5952 -0.0980
16560TIP3    H171171   5.324   1.068  12.344  1.0990 -1.7026 -2.3917
16560TIP3    H271172   5.397   0.979  12.443  0.3111  1.1439  0.9503
16561TIP3   OH271173   0.744   1.172   6.613 -0.0592 -0.3548 -0.1758
16561TIP3    H171174   0.661   1.151   6.656  0.1262 -3.7859 -1.1928
16561TIP3    H271175   0.722   1.172   6.519  0.8161  0.1922 -0.3884
16562TIP3   OH271176   3.966   5.852  16.896 -0.8415 -0.2953 -0.4449
16562TIP3    H171177   3.931   5.938  16.920 -0.1267  0.8744 -3.2490
16562TIP3    H271178   4.048   5.845  16.945 -1.5506 -0.0067  0.8228
16563TIP3   OH271179   6.641   6.465   0.506 -0.2728 -0.3592 -0.2593
16563TIP3    H171180   6.665   6.498   0.420 -0.2766  0.5759  0.0910
16563TIP3    H271181   6.557   6.506   0.525  0.2566  0.3236  0.6592
16564TIP3   OH271182   5.395   4.075  11.399 -0.0043  0.0085  0.2235
16564TIP3    H171183   5.463   4.037  11.344  1.5284 -0.3842  2.2559
16564TIP3    H271184   5.413   4.041  11.486 -2.6597  0.1656  0.9180
16565TIP3   OH271185   5.394   1.920  15.713  0.2262 -0.0748 -0.4621
16565TIP3    H171186   5.408   1.828  15.690  1.6933  0.5766 -2.4568
16565TIP3    H271187   5.317   1.946  15.663  1.9702  0.6848 -2.9196
16566TIP3   OH271188   2.375   2.130   5.126 -0.0694 -0.4019 -0.2769
16566TIP3    H171189   2.304   2.186   5.095 -1.2529 -2.1341 -0.8342
16566TIP3    H271190   2.366   2.131   5.221  0.0656  0.5091 -0.2660
16567TIP3   OH271191   0.119   3.307  11.759 -0.4833  0.3080 -0.0756
16567TIP3    H171192   0.028   3.303  11.730 -0.0976 -0.7652 -1.2394
16567TIP3    H271193   0.131   3.398  11.788 -1.3247  1.0623 -1.9399
16568TIP3   OH271194   3.948   2.429  15.941 -0.2101 -0.8523 -0.4190
16568TIP3    H171195   3.915   2.499  15.883 -0.4754 -1.5432 -1.1225
16568TIP3    H271196   4.043   2.437  15.937 -0.1149 -2.2483 -2.7312
16569TIP3   OH271197   3.352   2.625  16.374  0.4056  0.2355 -0.0736
16569TIP3    H171198   3.270   2.675  16.370 -0.1091 -0.5710  0.1185
16569TIP3    H271199   3.350   2.582  16.459  0.4684 -0.7199 -0.5456
16570TIP3   OH271200   6.525   0.486  12.063 -0.4169  0.4991  0.7250
16570TIP3    H171201   6.554   0.424  11.996  0.4833  0.7874  0.8319
16570TIP3    H271202   6.508   0.567  12.016 -0.9433  0.3691  0.6822
16571TIP3   OH271203   3.186   5.850   2.121 -0.3508 -0.5055 -0.0095
16571TIP3    H171204   3.123   5.830   2.190 -0.1596 -0.2283  0.2448
16571TIP3    H271205   3.172   5.781   2.056 -0.0511 -1.1692  0.6206
16572TIP3   OH271206   6.059   2.959   0.851  0.2209  0.0602 -0.1772
16572TIP3    H171207   6.141   2.992   0.886  0.5432 -1.2380  0.3597
16572TIP3    H271208   6.083   2.922   0.766  0.2629 -0.5460  0.0893
16573TIP3   OH271209   5.623   0.836   4.333 -0.2578  0.0938 -0.3558
16573TIP3    H171210   5.629   0.909   4.394 -1.4661  0.4631 -0.6538
16573TIP3    H271211   5.650   0.873   4.249 -0.6970  0.1608 -0.4704
16574TIP3   OH271212   0.364   2.578  17.192  0.0170 -0.4942  0.1079
16574TIP3    H171213   0.459   2.578  17.208 -0.0742  1.6819  0.9359
16574TIP3    H271214   0.354   2.618  17.106 -0.1841 -0.4036  0.1741
16575TIP3   OH271215   2.273   0.238   5.942 -0.3444 -0.1393  0.7013
16575TIP3    H171216   2.227   0.256   5.860 -0.2537  0.9086  0.8684
16575TIP3    H271217   2.241   0.305   6.002  1.5551  0.7639  0.7717
16576TIP3   OH271218   5.702   2.804   5.580 -0.3822  0.1564 -0.4660
16576TIP3    H171219   5.746   2.727   5.617 -1.3018  0.4343  1.2951
16576TIP3    H271220   5.619   2.770   5.545 -1.3241  0.4868  1.3658
16577TIP3   OH271221   6.359   3.245  12.179 -1.2195 -0.1190  0.0109
16577TIP3    H171222   6.433   3.185  12.186 -1.5361 -0.4963  0.1728
16577TIP3    H271223   6.399   3.332  12.176 -0.7007 -0.3756 -1.2928
16578TIP3   OH271224   0.566   1.335   0.129 -0.2034 -0.6954 -0.1701
16578TIP3    H171225   0.632   1.350   0.196 -1.3937  2.1687  0.4941
16578TIP3    H271226   0.528   1.249   0.151  1.6784 -1.3443  0.7606
16579TIP3   OH271227   6.319   4.563   1.060  0.3563  0.3510  0.0961
16579TIP3    H171228   6.273   4.482   1.035 -0.7222  0.9517  0.0488
16579TIP3    H271229   6.405   4.534   1.088  1.0143 -0.5798 -2.5689
16580TIP3   OH271230   0.347   5.323   6.064 -0.4542  0.0341 -0.4858
16580TIP3    H171231   0.381   5.408   6.090 -1.4057 -0.3457  2.3844
16580TIP3    H271232   0.425   5.271   6.043  0.3173  0.7975  0.4137
16581TIP3   OH271233   4.657   6.793   4.112  0.1225  0.1080 -0.4619
16581TIP3    H171234   4.573   6.756   4.087 -0.5482  1.7253 -0.7482
16581TIP3    H271235   4.705   6.799   4.029  0.7813 -1.3441 -0.2196
16582TIP3   OH271236   0.839   5.357  13.995  0.5547 -0.2406  0.1313
16582TIP3    H171237   0.796   5.275  13.972  1.4316 -0.4720 -0.7212
16582TIP3    H271238   0.906   5.333  14.058  0.5137 -0.1086  0.2272
16583TIP3   OH271239   1.000   4.447   3.780  0.6606  0.2845 -0.3213
16583TIP3    H171240   0.927   4.451   3.718  1.5095 -1.3042 -1.5217
16583TIP3    H271241   0.972   4.382   3.845  0.8499 -0.1002 -0.6141
16584TIP3   OH271242   4.757   2.653  16.022 -0.5045  0.2765  0.5514
16584TIP3    H171243   4.680   2.651  15.964 -0.0844  0.9964 -0.0591
16584TIP3    H271244   4.726   2.697  16.101 -0.9467 -0.2334  0.6707
16585TIP3   OH271245   3.165   5.138  16.827  0.3368 -0.0753 -0.1502
16585TIP3    H171246   3.150   5.206  16.893  0.5063 -0.3130  0.1388
16585TIP3    H271247   3.081   5.129  16.782  0.5688  0.9935 -0.8382
16586TIP3   OH271248   1.919   1.105  13.915 -0.5267  0.0938 -0.5863
16586TIP3    H171249   1.922   1.111  13.819 -1.6562 -1.4048 -0.7418
16586TIP3    H271250   2.003   1.143  13.943 -0.3993  1.0598 -2.1176
16587TIP3   OH271251   1.198   4.677   6.758  0.3949  0.1226 -0.6510
16587TIP3    H171252   1.155   4.655   6.675  0.7187 -1.6062 -0.4088
16587TIP3    H271253   1.221   4.592   6.796  0.3848  0.8717  1.1463
16588TIP3   OH271254   0.380   6.474  14.111  0.7297 -0.1351 -0.0814
16588TIP3    H171255   0.290   6.499  14.094  0.8533 -0.1121 -0.7442
16588TIP3    H271256   0.384   6.381  14.087  0.7090 -0.3250  0.6360
16589TIP3   OH271257   3.116   3.332  15.641 -0.1670 -0.2016 -0.0700
16589TIP3    H171258   3.158   3.373  15.566  0.4285  1.1683  0.9562
16589TIP3    H271259   3.029   3.374  15.646 -0.5722 -0.9768 -0.5392
16590TIP3   OH271260   5.378   1.844   3.921 -0.3711 -0.0608  0.1836
16590TIP3    H171261   5.403   1.843   3.829  0.6795  2.0920  0.3828
16590TIP3    H271262   5.285   1.869   3.921 -0.7414 -1.3581 -0.2992
16591TIP3   OH271263   3.771   6.067  11.782  0.1011  0.7247  0.1073
16591TIP3    H171264   3.743   6.158  11.788 -1.4457  0.1665  2.2612
16591TIP3    H271265   3.712   6.019  11.840  1.2520 -1.5813 -0.5039
16592TIP3   OH271266   0.356   0.797   4.882 -0.2386  0.6528  0.0773
16592TIP3    H171267   0.382   0.806   4.791  0.3422  0.5997  0.2296
16592TIP3    H271268   0.435   0.821   4.932 -0.5658  0.7380  0.5620
16593TIP3   OH271269   4.950   0.133   4.820  0.0015  0.2965 -0.7598
16593TIP3    H171270   4.954   0.227   4.840 -0.5357  0.7266 -2.5399
16593TIP3    H271271   5.009   0.122   4.745  1.2824 -1.0898  0.3963
16594TIP3   OH271272   2.833   3.427   0.034  0.2159  0.6150  0.2800
16594TIP3    H171273   2.839   3.447  -0.059 -0.9261 -1.5037 -0.3039
16594TIP3    H271274   2.922   3.442   0.067  0.6434  1.3684 -1.1318
16595TIP3   OH271275   1.494   0.270  14.067 -0.3205  0.0321  0.4300
16595TIP3    H171276   1.508   0.185  14.024  0.1961  0.4572 -0.2759
16595TIP3    H271277   1.405   0.295  14.042 -0.7649 -0.6432  1.2755
16596TIP3   OH271278   6.025   6.217  13.498  0.0035 -0.2814  0.2036
16596TIP3    H171279   6.090   6.167  13.546 -1.0668 -1.7620  0.1775
16596TIP3    H271280   5.978   6.152  13.445  1.7899  1.3235 -3.7576
16597TIP3   OH271281   6.629   3.388   6.977  0.1545  0.4943 -0.0152
16597TIP3    H171282   6.548   3.426   6.942  0.1084  0.3253 -0.0889
16597TIP3    H271283   6.694   3.458   6.967  0.2892  0.2423 -0.9997
16598TIP3   OH271284   2.881   6.391  16.546 -0.3552  0.4542  0.0912
16598TIP3    H171285   2.969   6.419  16.573 -1.1872  0.4439  3.2810
16598TIP3    H271286   2.844   6.467  16.503  1.7351 -0.1018 -2.9989
16599TIP3   OH271287   4.601   4.113  15.875 -0.4297 -0.2111 -0.1851
16599TIP3    H171288   4.596   4.022  15.847  0.2475 -0.1756 -0.4306
16599TIP3    H271289   4.541   4.160  15.817  1.6677  0.0219 -2.2731
16600TIP3   OH271290   5.271   3.583   4.356  0.0219 -0.0914 -0.7705
16600TIP3    H171291   5.269   3.662   4.301 -0.1474 -0.8082 -1.8084
16600TIP3    H271292   5.312   3.516   4.301  1.6850 -0.3244  0.6704
16601TIP3   OH271293   1.775   5.267   4.918  0.9867 -0.1321 -0.0013
16601TIP3    H171294   1.808   5.347   4.876  2.1793 -1.5282 -1.8704
16601TIP3    H271295   1.823   5.261   5.000  0.8695  1.0624  0.1758
16602TIP3   OH271296   4.108   3.488   1.485  0.1621  0.0904  0.5617
16602TIP3    H171297   4.036   3.500   1.423 -0.3472 -1.1811  0.8715
16602TIP3    H271298   4.155   3.571   1.484 -0.1089  0.2619 -1.1751
16603TIP3   OH271299   1.325   5.434   4.154  0.0269  0.2030 -0.2560
16603TIP3    H171300   1.264   5.396   4.218 -0.7001  0.2147 -0.9278
16603TIP3    H271301   1.397   5.467   4.207  0.1118 -1.0319  0.4471
16604TIP3   OH271302   4.170   4.300   3.968 -0.3030  0.2440  0.0162
16604TIP3    H171303   4.139   4.326   4.055 -0.8049 -0.4831  0.0590
16604TIP3    H271304   4.147   4.374   3.912  1.1207  1.2652  0.7012
16605TIP3   OH271305   2.670   1.085   3.846 -0.0494 -0.5050  0.5575
16605TIP3    H171306   2.751   1.110   3.890 -1.4415  0.7349  2.5532
16605TIP3    H271307   2.605   1.077   3.916 -1.9300 -0.4038 -1.0728
16606TIP3   OH271308   1.216   0.999   3.568  0.2608  0.2056  0.0402
16606TIP3    H171309   1.260   0.956   3.494 -1.1398 -1.1992 -0.0126
16606TIP3    H271310   1.124   0.980   3.555 -0.2021  1.5554  1.1521
16607TIP3   OH271311   5.581   4.074  12.378  0.3896 -0.7246  1.4901
16607TIP3    H171312   5.664   4.101  12.338 -1.6635  2.9450 -0.8502
16607TIP3    H271313   5.595   4.087  12.472  3.1653 -2.7814  1.5044
16608TIP3   OH271314   0.654   5.424   3.283  0.4444 -0.4112  0.2248
16608TIP3    H171315   0.641   5.418   3.378 -0.3185 -0.7230  0.1091
16608TIP3    H271316   0.645   5.334   3.252 -2.1509  0.0241 -0.4771
16609TIP3   OH271317   2.420   4.867  11.351 -0.4558  0.3027  0.5374
16609TIP3    H171318   2.370   4.946  11.373  1.5253  1.7197  0.1857
16609TIP3    H271319   2.397   4.850  11.259 -0.2238  0.9999  0.3445
16610TIP3   OH271320   4.681   2.334   3.989  0.0737  0.1496  0.0541
16610TIP3    H171321   4.598   2.349   3.944  0.9107  1.2732 -1.2134
16610TIP3    H271322   4.708   2.421   4.019 -0.1400 -0.4764  2.2446
16611TIP3   OH271323   0.544   4.787   5.003  0.2414  0.7185 -0.4811
16611TIP3    H171324   0.626   4.750   4.972  0.7898 -0.8346  2.5074
16611TIP3    H271325   0.565   4.878   5.024  1.1905  0.3787  0.1138
16612TIP3   OH271326   1.326   6.080  14.571 -0.0861  0.0212  0.8366
16612TIP3    H171327   1.237   6.044  14.578 -0.4913  1.0269  1.0188
16612TIP3    H271328   1.332   6.112  14.481  0.3776 -0.7436  0.5857
16613TIP3   OH271329   3.836   2.217   2.612  0.2674 -0.0279 -0.7400
16613TIP3    H171330   3.747   2.205   2.579  0.0284 -1.5098  0.3273
16613TIP3    H271331   3.825   2.243   2.703  0.8849 -1.8879 -0.0810
16614TIP3   OH271332   4.376   6.696  15.314  0.1446 -0.0364 -0.3667
16614TIP3    H171333   4.331   6.670  15.395  0.8551  0.5744  0.2349
16614TIP3    H271334   4.331   6.775  15.285 -1.0053 -1.0051 -1.3475
16615TIP3   OH271335   3.124   1.594  16.792  0.2445 -0.0310 -0.5491
16615TIP3    H171336   3.041   1.577  16.748 -0.3063 -0.2900  0.5587
16615TIP3    H271337   3.154   1.509  16.824 -0.7284  0.4499  1.8776
16616TIP3   OH271338   1.967   5.349  10.809 -0.2305 -0.2016 -0.1710
16616TIP3    H171339   2.019   5.394  10.742  0.2674 -3.5029 -2.2357
16616TIP3    H271340   1.889   5.319  10.762 -1.0709 -0.5283  1.3916
16617TIP3   OH271341   1.777   2.542  14.524 -0.1132 -0.0223 -0.4865
16617TIP3    H171342   1.793   2.449  14.541  0.6870  0.4691  1.8917
16617TIP3    H271343   1.682   2.548  14.517 -0.1259 -1.1370 -1.6537
16618TIP3   OH271344   3.561   4.012  12.086  0.4348  0.1072  0.0201
16618TIP3    H171345   3.606   4.092  12.114 -0.7534  0.0632  2.3297
16618TIP3    H271346   3.495   4.042  12.024 -0.1291  0.9924  1.0105
16619TIP3   OH271347   6.202   1.171   5.448  0.1831 -0.0142 -0.4227
16619TIP3    H171348   6.262   1.100   5.424  0.5631  0.8374 -2.1316
16619TIP3    H271349   6.134   1.168   5.381 -1.0256 -0.1421  0.7653
16620TIP3   OH271350   0.557   6.469   5.784 -0.1541 -0.3290  0.1524
16620TIP3    H171351   0.549   6.404   5.855  1.4968 -0.5045  0.2116
16620TIP3    H271352   0.583   6.550   5.829  0.4862 -0.3358 -0.1988
16621TIP3   OH271353   4.685   0.913   2.915  1.0899  0.6361 -0.2131
16621TIP3    H171354   4.709   0.858   2.990  1.9925  1.2446 -0.0397
16621TIP3    H271355   4.638   0.987   2.954 -0.6410 -0.2647 -0.4981
16622TIP3   OH271356   0.754   5.941   6.261  0.2071 -0.0706  0.4320
16622TIP3    H171357   0.758   5.943   6.357 -0.0372  0.3424  0.4347
16622TIP3    H271358   0.667   5.973   6.240  0.6155  0.8046  0.0336
16623TIP3   OH271359   4.193   4.827  13.300 -0.2027  0.1973 -0.4360
16623TIP3    H171360   4.135   4.808  13.373 -1.6791  2.2201 -0.9756
16623TIP3    H271361   4.278   4.843  13.340  0.0197 -2.6098  0.4043
16624TIP3   OH271362   0.022   1.488   4.189 -0.3717  0.5501  0.3347
16624TIP3    H171363   0.078   1.564   4.206  1.8105 -0.0969 -2.8489
16624TIP3    H271364   0.062   1.417   4.240  0.0271  0.7070  0.2462
16625TIP3   OH271365   2.474   6.002  11.966  1.1215  0.3855  0.4528
16625TIP3    H171366   2.414   6.032  12.034  0.8926  1.1560 -0.0786
16625TIP3    H271367   2.503   6.082  11.922  0.8405 -0.1362 -0.7099
16626TIP3   OH271368   3.974   4.857   2.702 -0.1369  0.2392  1.0901
16626TIP3    H171369   3.927   4.937   2.677  1.4522  0.5563 -1.1807
16626TIP3    H271370   4.048   4.889   2.754 -0.0153  0.1867  0.9520
16627TIP3   OH271371   3.124   5.757   1.305 -0.0126 -0.1663 -0.3474
16627TIP3    H171372   3.161   5.759   1.393  1.1513  1.1911 -0.8205
16627TIP3    H271373   3.030   5.765   1.318  0.2646  1.8081  0.7411
16628TIP3   OH271374   4.888   2.431  12.501 -0.1123  0.2550  0.5018
16628TIP3    H171375   4.904   2.414  12.593 -2.5863  2.4383  1.4623
16628TIP3    H271376   4.958   2.490  12.475  1.2740 -1.2872  0.5869
16629TIP3   OH271377   1.629   5.377   4.416  0.3007  0.3872 -0.3093
16629TIP3    H171378   1.536   5.392   4.435  0.0122 -0.6148 -0.8632
16629TIP3    H271379   1.673   5.454   4.451 -0.3142 -0.7019  3.3555
16630TIP3   OH271380   5.105   3.898  16.746  0.0738  0.2489  0.0114
16630TIP3    H171381   5.151   3.980  16.764  0.0973  0.4010 -0.7198
16630TIP3    H271382   5.028   3.901  16.804 -0.7363  1.4925 -1.0722
16631TIP3   OH271383   5.681   5.889   4.032 -0.5801  0.6673  0.1626
16631TIP3    H171384   5.702   5.873   3.940 -0.5753 -0.3872  0.3343
16631TIP3    H271385   5.668   5.802   4.069  2.7829  0.8108  1.9795
16632TIP3   OH271386   3.542   1.207   3.160  0.5819  0.0010  0.4903
16632TIP3    H171387   3.530   1.182   3.068  0.5680 -1.1265  0.7757
16632TIP3    H271388   3.490   1.142   3.208 -0.1242  1.1159  1.2560
16633TIP3   OH271389   5.981   0.698   2.721  0.0028 -0.2881 -0.2357
16633TIP3    H171390   6.072   0.722   2.708 -0.5820  2.4832  0.1628
16633TIP3    H271391   5.952   0.665   2.636  0.8886  0.6911 -0.9439
16634TIP3   OH271392   5.733   1.870  12.550 -0.0479  0.5539 -0.3604
16634TIP3    H171393   5.795   1.825  12.492 -0.7246 -1.2387  0.2236
16634TIP3    H271394   5.686   1.930  12.493 -0.3319 -0.7796 -1.5855
16635TIP3   OH271395   6.576   1.505  14.561 -0.6617  0.1776  0.1937
16635TIP3    H171396   6.634   1.505  14.485 -0.0864  0.8482  0.6096
16635TIP3    H271397   6.568   1.413  14.586  0.6171  0.1048  0.4018
16636TIP3   OH271398   5.935   0.738  14.863  0.3068  0.1826 -0.2042
16636TIP3    H171399   5.932   0.647  14.894  2.7995  0.0570 -0.0985
16636TIP3    H271400   5.874   0.785  14.921 -1.3330 -1.4489 -0.5277
16637TIP3   OH271401   0.495   2.856  14.198 -0.1961  0.5459  0.0615
16637TIP3    H171402   0.517   2.799  14.271  0.0908 -2.3334 -2.0967
16637TIP3    H271403   0.577   2.865  14.148 -0.9085  0.4126 -1.1842
16638TIP3   OH271404   1.175   3.456   5.085  0.3061  0.5416 -0.3424
16638TIP3    H171405   1.163   3.366   5.114 -0.8115  1.0100  0.7774
16638TIP3    H271406   1.217   3.449   5.000  0.2222 -1.0343 -0.2827
16639TIP3   OH271407   1.240   1.920  16.229  0.0915 -0.3164 -0.3608
16639TIP3    H171408   1.219   1.976  16.304 -0.6222  0.0282 -0.8102
16639TIP3    H271409   1.324   1.879  16.253 -0.5564 -0.8977  1.0049
16640TIP3   OH271410   3.085   6.095  12.592 -0.1950  0.5433  0.3743
16640TIP3    H171411   3.119   6.019  12.639 -0.2769  0.2219 -0.0808
16640TIP3    H271412   3.116   6.171  12.642 -0.1272  0.2097  0.8378
16641TIP3   OH271413   0.938   4.282  16.067 -0.2701 -0.2252 -0.0680
16641TIP3    H171414   0.927   4.315  15.978  0.2550  0.0590 -0.0262
16641TIP3    H271415   0.880   4.337  16.120 -0.1370 -0.0143 -0.1435
16642TIP3   OH271416   3.247   6.231  16.158 -0.4194  0.3610  0.2426
16642TIP3    H171417   3.248   6.199  16.068  0.6981  0.4510  0.2088
16642TIP3    H271418   3.220   6.155  16.210 -1.3041  0.3728 -0.1766
16643TIP3   OH271419   3.192   0.350  13.007 -0.2094  0.4437 -0.4619
16643TIP3    H171420   3.171   0.266  12.967 -1.5293  1.1228 -1.2715
16643TIP3    H271421   3.152   0.415  12.948 -1.8717  1.5071  1.7176
16644TIP3   OH271422   3.521   5.270  13.751 -0.1690 -0.2597 -0.5617
16644TIP3    H171423   3.437   5.291  13.712 -0.4025 -0.7964 -0.3545
16644TIP3    H271424   3.548   5.351  13.794  0.1014  0.3465 -1.8298
16645TIP3   OH271425   5.417   0.646   4.342  0.1861  0.4205 -0.4880
16645TIP3    H171426   5.499   0.688   4.372 -0.0492  1.0464 -0.6976
16645TIP3    H271427   5.379   0.710   4.281 -0.6366  0.2863 -0.1245
16646TIP3   OH271428   0.505   2.438  16.018 -0.1689  0.2382  0.2001
16646TIP3    H171429   0.450   2.374  15.974 -1.5996  0.5357  1.4504
16646TIP3    H271430   0.591   2.427  15.980 -0.8162 -1.1239 -0.9392
16647TIP3   OH271431   3.622   1.711   5.430  0.4168  0.6124  0.4699
16647TIP3    H171432   3.705   1.696   5.385  0.9855  0.7857  1.4216
16647TIP3    H271433   3.572   1.768   5.372  1.3021  1.1849  0.2611
16648TIP3   OH271434   3.941   2.179  15.809 -0.6119 -0.0010  0.5627
16648TIP3    H171435   3.934   2.134  15.893  1.2432 -0.9606  0.2577
16648TIP3    H271436   3.984   2.262  15.830  0.2597 -0.4300  0.5412
16649TIP3   OH271437   5.460   3.692  13.835  0.1282  0.2769 -0.0093
16649TIP3    H171438   5.408   3.685  13.755  0.2539  1.7468 -0.2621
16649TIP3    H271439   5.476   3.786  13.844  1.3511 -0.0016  0.9584
16650TIP3   OH271440   0.137   2.079  17.348  0.4005 -0.9368  0.1019
16650TIP3    H171441   0.047   2.046  17.346  0.5524 -1.5137  1.5622
16650TIP3    H271442   0.183   2.019  17.407  1.1771  0.6971  1.2171
16651TIP3   OH271443   2.431   1.689  11.912  0.3132  0.5371  0.4130
16651TIP3    H171444   2.400   1.601  11.890  0.5342  0.3911  0.6934
16651TIP3    H271445   2.361   1.725  11.967  0.1579  0.5927  0.1858
16652TIP3   OH271446   6.590   4.604  16.806  0.3161 -0.2725 -0.2130
16652TIP3    H171447   6.533   4.553  16.863 -1.7180 -0.2148 -2.0792
16652TIP3    H271448   6.652   4.541  16.770 -0.3670 -0.8926 -0.3118
16653TIP3   OH271449   1.783   6.187   3.078 -0.0553  0.2458 -0.2290
16653TIP3    H171450   1.812   6.128   3.008 -0.8749 -1.4100  0.7746
16653TIP3    H271451   1.712   6.140   3.121  0.3591  1.2710  1.6603
16654TIP3   OH271452   0.276   3.651  17.124 -0.6193 -0.7989 -0.4992
16654TIP3    H171453   0.355   3.627  17.076 -0.9472 -2.5402 -0.2112
16654TIP3    H271454   0.296   3.738  17.160  2.0327 -2.0427  1.3379
16655TIP3   OH271455   6.329   5.964   0.773 -0.1358 -0.3085 -0.2086
16655TIP3    H171456   6.391   5.903   0.733 -0.3435 -0.7886  0.1831
16655TIP3    H271457   6.257   5.971   0.710 -1.4069 -2.6015  0.8744
16656TIP3   OH271458   4.374   6.789   0.225  0.4545 -0.0858  0.2027
16656TIP3    H171459   4.332   6.759   0.144  0.6708  0.9918 -0.3300
16656TIP3    H271460   4.464   6.807   0.200  0.7198 -0.4390  0.8717
16657TIP3   OH271461   3.070   5.566   3.387  0.2996 -0.3065  0.2110
16657TIP3    H171462   3.062   5.500   3.455 -1.8291 -0.7955 -0.4412
16657TIP3    H271463   3.153   5.610   3.405  0.4409 -1.3387  2.2687
16658TIP3   OH271464   0.458   0.354  15.965 -0.3248  0.3297 -0.0686
16658TIP3    H171465   0.364   0.366  15.976 -0.5091 -0.5343 -0.5979
16658TIP3    H271466   0.489   0.438  15.932 -1.1144  0.2611 -1.0321
16659TIP3   OH271467   2.166   2.217  13.962 -0.3376 -0.4623  0.5407
16659TIP3    H171468   2.145   2.177  13.877 -1.1694  0.2288  0.4090
16659TIP3    H271469   2.092   2.194  14.018  0.4450 -1.3331  1.2393
16660TIP3   OH271470   1.832   5.937  14.981 -0.2044 -0.2533 -0.5648
16660TIP3    H171471   1.774   5.884  15.037 -1.6096  0.1992 -1.5416
16660TIP3    H271472   1.870   6.001  15.041 -0.6727 -0.6010  0.1211
16661TIP3   OH271473   4.828   4.479   5.284 -0.1919  0.2945  0.8077
16661TIP3    H171474   4.830   4.481   5.188 -1.7339 -1.2746  0.6821
16661TIP3    H271475   4.913   4.443   5.309 -0.3682 -0.8252 -0.0892
16662TIP3   OH271476   6.519   3.840   0.122  0.2683  0.3269 -1.0060
16662TIP3    H171477   6.501   3.868   0.032  1.6792  1.3757 -1.0044
16662TIP3    H271478   6.589   3.775   0.113 -0.2013 -0.2282 -0.7118
16663TIP3   OH271479   2.105   3.618  12.003 -0.4369 -0.0361 -0.2420
16663TIP3    H171480   2.200   3.632  12.010 -0.6841  1.6383  0.0437
16663TIP3    H271481   2.073   3.631  12.092 -1.0029 -0.1835 -0.4224
16664TIP3   OH271482   2.945   5.057  14.997  0.0250  0.4974 -0.6518
16664TIP3    H171483   2.970   5.043  14.905  0.4350  0.9573 -0.6170
16664TIP3    H271484   2.927   5.151  15.002 -0.1296  0.4466 -0.2926
16665TIP3   OH271485   5.294   0.847   2.910 -0.6274 -0.8792 -0.1246
16665TIP3    H171486   5.359   0.913   2.932  0.7590 -2.1075 -0.3842
16665TIP3    H271487   5.276   0.862   2.817 -0.4010 -0.8020 -0.1573
16666TIP3   OH271488   5.419   2.458   4.944  0.1745 -0.2051 -0.4653
16666TIP3    H171489   5.449   2.540   4.905  0.1811  0.6148  1.1774
16666TIP3    H271490   5.486   2.395   4.920  2.5727  1.2677  1.8921
16667TIP3   OH271491   6.567   1.420   5.392  0.4400  0.5617  0.1894
16667TIP3    H171492   6.566   1.347   5.329  1.1108 -0.1764  0.9933
16667TIP3    H271493   6.660   1.438   5.405  0.2810  1.4783  0.1238
16668TIP3   OH271494   6.315   3.699   4.433  0.4856  0.1757 -0.6741
16668TIP3    H171495   6.403   3.704   4.471  0.3317  1.7840 -0.4394
16668TIP3    H271496   6.260   3.665   4.504  0.3277  2.4780  0.3983
16669TIP3   OH271497   4.712   2.629  11.934 -0.0039  0.1301 -0.0051
16669TIP3    H171498   4.746   2.665  12.016  0.2539  1.0727 -0.5177
16669TIP3    H271499   4.622   2.662  11.928  0.0854  0.3314 -0.2590
16670TIP3   OH271500   3.756   2.806   3.447  0.2499 -0.2081  0.2023
16670TIP3    H171501   3.744   2.891   3.405  0.3894 -0.9768 -1.4843
16670TIP3    H271502   3.831   2.818   3.505 -0.1130  0.9678  0.4478
16671TIP3   OH271503   1.989   0.980  15.565  0.0330 -0.2430  0.2717
16671TIP3    H171504   1.897   0.997  15.588  0.4046  1.0035  0.9856
16671TIP3    H271505   2.005   1.037  15.490 -0.1016 -1.4014 -0.6601
16672TIP3   OH271506   6.355   1.961  17.087 -0.1415  0.5294 -0.2207
16672TIP3    H171507   6.425   1.980  17.025  0.1212  2.5750  0.6410
16672TIP3    H271508   6.386   1.996  17.171 -0.8541 -1.3723  0.9196
16673TIP3   OH271509   4.838   3.400  11.883 -0.6820  0.0077 -0.3969
16673TIP3    H171510   4.809   3.309  11.889  0.0919 -0.5301 -3.3417
16673TIP3    H271511   4.868   3.411  11.793  0.4422  2.8591  0.1815
16674TIP3   OH271512   6.348   6.756   4.553 -0.7510  0.3297  0.2693
16674TIP3    H171513   6.268   6.795   4.589 -0.8808 -0.2784  0.6603
16674TIP3    H271514   6.400   6.734   4.630  0.0401  1.2009  0.0048
16675TIP3   OH271515   0.662   2.561   5.640 -0.3004 -0.1792 -0.0648
16675TIP3    H171516   0.711   2.534   5.562 -1.3843 -0.4774 -0.6691
16675TIP3    H271517   0.619   2.481   5.670 -0.6075  0.1211  0.3116
16676TIP3   OH271518   6.681   5.207   5.659 -0.3178 -0.9698  0.3822
16676TIP3    H171519   6.626   5.129   5.674 -1.0501 -0.2048  1.9984
16676TIP3    H271520   6.730   5.218   5.741 -0.6590  0.5722  0.4184
16677TIP3   OH271521   6.251   6.657   5.984 -0.1603 -0.1281  0.0444
16677TIP3    H171522   6.169   6.608   5.985  0.3638 -1.0418  1.5941
16677TIP3    H271523   6.262   6.688   6.074 -0.2275  2.4862 -0.7808
16678TIP3   OH271524   0.635   6.545  11.328  0.1633 -0.4875 -0.6926
16678TIP3    H171525   0.714   6.509  11.369  0.5622  0.9090 -0.1887
16678TIP3    H271526   0.567   6.534  11.394 -0.0638 -1.6191 -1.0965
16679TIP3   OH271527   2.006   5.637  16.222 -0.1003  0.1846  0.1665
16679TIP3    H171528   1.992   5.543  16.232  0.4338  0.0333 -0.4600
16679TIP3    H271529   1.944   5.663  16.153  0.6368  0.0526 -0.5551
16680TIP3   OH271530   0.535   1.921   3.303  0.1042 -0.4533 -0.3013
16680TIP3    H171531   0.581   1.839   3.287 -0.3359 -0.7682  0.0546
16680TIP3    H271532   0.594   1.970   3.361 -0.6696 -1.4863  1.4318
16681TIP3   OH271533   3.813   3.026   4.413  0.4219 -0.3740  0.2117
16681TIP3    H171534   3.782   3.091   4.477  0.4996 -0.6802  0.5593
16681TIP3    H271535   3.750   3.032   4.341  0.8353  0.6055 -0.0870
16682TIP3   OH271536   3.536   3.771  12.976  0.6752 -0.0270  0.5488
16682TIP3    H171537   3.477   3.773  12.901  2.1175 -0.6341 -0.6499
16682TIP3    H271538   3.529   3.682  13.010  1.1491 -0.2019  0.1926
16683TIP3   OH271539   2.495   1.682  17.335  0.2852  0.0608 -0.4732
16683TIP3    H171540   2.590   1.671  17.333  0.2777 -0.3189  0.6410
16683TIP3    H271541   2.481   1.754  17.397 -0.2828 -2.2455  2.3211
16684TIP3   OH271542   1.391   1.799  15.799 -0.1306  0.0796  0.4648
16684TIP3    H171543   1.461   1.864  15.792 -0.0031  0.1002  1.7645
16684TIP3    H271544   1.315   1.842  15.760 -0.2035  1.2503  1.8464
16685TIP3   OH271545   1.191   3.382  14.321 -0.4633 -0.4724  0.0430
16685TIP3    H171546   1.135   3.356  14.394 -0.4947  1.9328  0.9628
16685TIP3    H271547   1.255   3.312  14.314  0.2314 -0.3022  3.1355
16686TIP3   OH271548   3.974   1.911  17.328  0.4274  0.0378 -1.0573
16686TIP3    H171549   3.993   2.005  17.331  0.6053 -0.0120 -0.4941
16686TIP3    H271550   4.040   1.875  17.270  0.8754  0.1419 -0.6184
16687TIP3   OH271551   5.287   2.380   1.754  0.4934 -0.6028 -0.2759
16687TIP3    H171552   5.205   2.331   1.753  0.0589 -0.0139  1.6601
16687TIP3    H271553   5.343   2.334   1.816 -0.3254  1.7777  2.4693
16688TIP3   OH271554   5.274   2.006  13.341 -0.1456 -0.6169 -0.3868
16688TIP3    H171555   5.261   2.097  13.368 -0.2477 -1.1252  1.4369
16688TIP3    H271556   5.185   1.969  13.339 -0.0328 -0.9075 -0.1748
16689TIP3   OH271557   4.403   4.495   3.287  0.1439 -0.3466 -0.5097
16689TIP3    H171558   4.324   4.470   3.240 -0.2348  1.4795 -0.9413
16689TIP3    H271559   4.433   4.575   3.244  0.4458  0.7549  1.5834
16690TIP3   OH271560   0.621   6.740   4.906 -0.2274 -0.4497 -0.5074
16690TIP3    H171561   0.612   6.655   4.949 -2.3461  0.1807  0.4260
16690TIP3    H271562   0.638   6.802   4.978 -0.8491  0.2110 -0.9168
16691TIP3   OH271563   2.287   6.174  13.112  0.1249  0.2322  0.5795
16691TIP3    H171564   2.206   6.212  13.146 -0.6526  0.1929 -1.1202
16691TIP3    H271565   2.317   6.237  13.046 -0.1137 -1.0977 -0.8627
16692TIP3   OH271566   5.635   6.723  13.390  0.1599 -0.5574  0.3710
16692TIP3    H171567   5.588   6.806  13.390 -0.6511 -1.0038  0.8649
16692TIP3    H271568   5.703   6.734  13.324 -0.4748  0.2005 -0.1742
16693TIP3   OH271569   1.345   3.425  16.827 -0.4330 -0.5482  0.5329
16693TIP3    H171570   1.258   3.462  16.845  0.3545  1.4377  0.5101
16693TIP3    H271571   1.394   3.438  16.908  0.5347  0.5335 -0.1914
16694TIP3   OH271572   6.582   0.627  13.808 -1.1411 -0.9270  0.1124
16694TIP3    H171573   6.651   0.634  13.874 -0.0766 -0.9445 -0.9663
16694TIP3    H271574   6.560   0.534  13.806 -1.5818 -0.8498  0.8165
16695TIP3   OH271575   4.042   5.808   0.318 -0.1371  0.4503  0.5391
16695TIP3    H171576   4.076   5.718   0.319  1.0943  0.7747  4.6875
16695TIP3    H271577   3.952   5.799   0.286  0.0223 -2.2080  0.6143
16696TIP3   OH271578   3.910   1.901   4.306  0.0755 -0.2614 -0.3677
16696TIP3    H171579   3.897   1.948   4.389 -0.6793 -1.7832  0.4085
16696TIP3    H271580   3.857   1.822   4.314  1.1630 -1.1820 -1.7203
16697TIP3   OH271581   1.969   2.928   4.978 -0.1376  0.1482 -0.3260
16697TIP3    H171582   2.045   2.871   4.978  0.0629  0.4133 -0.2345
16697TIP3    H271583   1.953   2.948   4.886 -1.8447 -2.2070 -0.6241
16698TIP3   OH271584   0.871   4.990  16.789  0.0997 -0.6704 -0.2605
16698TIP3    H171585   0.841   4.994  16.699 -0.6809 -0.3364  0.0089
16698TIP3    H271586   0.881   4.896  16.807 -1.2788 -0.8180 -0.1955
16699TIP3   OH271587   3.650   2.458  14.959  0.0909 -0.0028  0.3863
16699TIP3    H171588   3.562   2.473  14.992  0.4820  0.7323  1.1298
16699TIP3    H271589   3.662   2.363  14.965 -0.2594  0.0037  1.2966
16700TIP3   OH271590   2.719   4.752  12.617  0.1147  0.1683 -0.1074
16700TIP3    H171591   2.725   4.719  12.528 -0.2806  0.1772 -0.1398
16700TIP3    H271592   2.755   4.682  12.671  0.7848  0.3461 -0.3062
16701TIP3   OH271593   6.470   3.787  17.088 -0.2755  0.7157 -0.5163
16701TIP3    H171594   6.562   3.810  17.100 -0.1255 -0.5696  1.0968
16701TIP3    H271595   6.462   3.698  17.121 -2.0104  0.6072 -1.0985
16702TIP3   OH271596   4.117   3.212  14.710  0.1424  0.1459 -0.6280
16702TIP3    H171597   4.146   3.283  14.767 -0.3815  1.0962 -1.5188
16702TIP3    H271598   4.157   3.231  14.625 -0.0254 -0.6104 -0.8854
16703TIP3   OH271599   5.555   1.146   3.953 -0.3888  0.3233 -0.7495
16703TIP3    H171600   5.608   1.201   3.895 -1.5798  0.4949 -1.7195
16703TIP3    H271601   5.519   1.079   3.895 -0.1369 -0.5934  0.1518
16704TIP3   OH271602   2.773   4.766  11.757  0.0524  0.6241 -0.2871
16704TIP3    H171603   2.703   4.727  11.704  0.0660  0.4864 -0.2033
16704TIP3    H271604   2.837   4.696  11.768  0.6341  1.0113 -1.1291
16705TIP3   OH271605   2.142   5.301   1.155  0.2197 -0.2226 -0.0515
16705TIP3    H171606   2.167   5.247   1.080  2.9841  0.5415  0.1902
16705TIP3    H271607   2.169   5.390   1.131  2.2371 -0.1174  2.1473
16706TIP3   OH271608   5.922   1.785   4.947  0.5429  0.1216  0.3437
16706TIP3    H171609   5.866   1.763   4.872 -0.6730  1.4557  0.7960
16706TIP3    H271610   5.924   1.880   4.948  0.3465  0.1466  2.1214
16707TIP3   OH271611   1.044   4.938   0.717  0.0428 -0.0558  0.1886
16707TIP3    H171612   0.957   4.964   0.686 -0.2365  1.6811  2.1880
16707TIP3    H271613   1.041   4.842   0.717 -2.5307 -0.0801  1.7142
16708TIP3   OH271614   2.857   0.596   3.046 -0.2794  0.1931  0.4934
16708TIP3    H171615   2.817   0.661   3.104  0.6998 -0.1464  1.5699
16708TIP3    H271616   2.951   0.612   3.052 -0.1757  0.6424 -1.6122
16709TIP3   OH271617   5.434   2.800   5.554  0.1448  1.4939  0.9185
16709TIP3    H171618   5.413   2.876   5.500 -2.6140  0.2195  0.0143
16709TIP3    H271619   5.393   2.819   5.639 -0.2802  1.1699  0.7895
16710TIP3   OH271620   0.076   6.445  16.840 -0.3619  0.1948  0.1217
16710TIP3    H171621   0.025   6.505  16.785 -0.2953 -0.5099 -0.7233
16710TIP3    H271622   0.144   6.501  16.878  0.3600  0.4913 -1.4935
16711TIP3   OH271623   5.301   0.930  16.754 -0.1708 -0.1724 -0.3479
16711TIP3    H171624   5.383   0.976  16.771  0.0476 -1.0204  1.0401
16711TIP3    H271625   5.298   0.922  16.659  0.6266  1.1499 -0.5138
16712TIP3   OH271626   1.343   1.036  14.351  0.4715  0.5717 -0.6569
16712TIP3    H171627   1.345   1.029  14.446  1.4804  1.2103 -0.6165
16712TIP3    H271628   1.435   1.032  14.325  0.1737 -0.2373 -1.6576
16713TIP3   OH271629   3.295   5.183  15.321  0.1313 -0.4866  0.4287
16713TIP3    H171630   3.299   5.165  15.415  1.9660  0.3778  0.5560
16713TIP3    H271631   3.272   5.275  15.315 -1.2819 -0.8427 -0.0353
16714TIP3   OH271632   4.813   6.050  15.204  0.1626 -0.2327 -0.4410
16714TIP3    H171633   4.733   6.019  15.246  0.0614 -1.1975 -1.3358
16714TIP3    H271634   4.881   6.040  15.271 -0.5462  1.2091  0.5519
16715TIP3   OH271635   6.019   5.442   0.662 -0.2328 -0.0967  0.3410
16715TIP3    H171636   5.927   5.466   0.650  0.1365  0.1099 -2.7875
16715TIP3    H271637   6.041   5.390   0.585  2.5596  0.8024  0.4126
16716TIP3   OH271638   0.533   5.704  14.419  0.2768 -0.0719  0.5420
16716TIP3    H171639   0.580   5.622  14.432 -0.0380 -0.5048 -0.8883
16716TIP3    H271640   0.589   5.755  14.360 -0.9113 -0.5200 -1.0391
16717TIP3   OH271641   3.417   2.847   2.346 -0.5085  0.2767  0.0782
16717TIP3    H171642   3.431   2.883   2.433 -0.4995  0.7363 -0.1093
16717TIP3    H271643   3.349   2.780   2.358  0.8905 -1.0848  0.7775
16718TIP3   OH271644   4.595   6.394  16.228 -0.2084 -0.4200 -0.1111
16718TIP3    H171645   4.676   6.433  16.195 -0.3722  0.2520  0.2652
16718TIP3    H271646   4.615   6.370  16.319 -0.4505 -0.1898  0.0044
16719TIP3   OH271647   5.107   5.227   0.791  0.2533  0.6916  0.5209
16719TIP3    H171648   5.028   5.243   0.739  1.0352  0.4352 -0.7832
16719TIP3    H271649   5.095   5.138   0.826  0.3843  0.2628 -0.4841
16720TIP3   OH271650   6.340   1.345   0.317 -0.1418 -0.2126 -0.0845
16720TIP3    H171651   6.354   1.400   0.394  0.0389  1.3818 -1.1902
16720TIP3    H271652   6.294   1.268   0.350  1.0082 -0.1627  1.7941
16721TIP3   OH271653   4.053   5.775   5.613  0.2651  1.0366  0.1297
16721TIP3    H171654   4.118   5.707   5.595 -1.5060 -0.4972 -0.8147
16721TIP3    H271655   4.063   5.836   5.540 -2.0610 -1.4357 -2.5463
16722TIP3   OH271656   2.199   3.125  14.293 -0.8249  0.4574  0.7725
16722TIP3    H171657   2.198   3.081  14.378  1.0429  1.2167  1.2455
16722TIP3    H271658   2.107   3.128  14.266 -1.2021 -2.4814  1.3253
16723TIP3   OH271659   4.069   3.047  11.894  0.0789  0.1637 -0.2698
16723TIP3    H171660   4.078   2.976  11.831 -0.0040  2.2295 -2.8372
16723TIP3    H271661   4.000   3.019  11.953  0.6592 -2.1996 -0.6399
16724TIP3   OH271662   6.576   0.969   2.214 -0.1370 -0.0087  0.2483
16724TIP3    H171663   6.549   0.880   2.236  0.2520 -0.8308 -2.2054
16724TIP3    H271664   6.672   0.966   2.212 -0.0916  0.6812  0.8970
16725TIP3   OH271665   3.521   4.592  13.698 -0.0543 -0.4327  0.2330
16725TIP3    H171666   3.464   4.650  13.748  2.2916 -1.2325  4.3547
16725TIP3    H271667   3.607   4.634  13.703  0.7311 -1.7756 -1.2293
16726TIP3   OH271668   1.833   5.569  11.559 -0.0277  0.4832 -0.2049
16726TIP3    H171669   1.827   5.590  11.652  2.7380 -0.3794  0.2527
16726TIP3    H271670   1.770   5.628  11.517 -0.6155  1.5898  2.0844
16727TIP3   OH271671   6.407   3.280   2.927 -0.5180  0.3348 -0.0659
16727TIP3    H171672   6.320   3.295   2.889 -0.0204 -0.0022 -1.4129
16727TIP3    H271673   6.414   3.185   2.934 -0.6257  0.3996  0.9541
16728TIP3   OH271674   5.205   5.511   3.026 -0.0685  0.1428 -0.1016
16728TIP3    H171675   5.125   5.468   3.054  1.2346 -1.9671  0.6448
16728TIP3    H271676   5.228   5.569   3.099 -1.2049  1.2483 -0.5926
16729TIP3   OH271677   0.872   4.230  10.311  0.0163 -0.6096 -0.1384
16729TIP3    H171678   0.968   4.228  10.318  0.1931 -0.7398 -2.1200
16729TIP3    H271679   0.847   4.311  10.356  0.8969 -1.3080  1.7124
16730TIP3   OH271680   6.715   5.985   4.867  0.0819 -0.9249  0.3314
16730TIP3    H171681   6.757   5.941   4.941  0.6907  1.9610  1.8600
16730TIP3    H271682   6.621   5.970   4.880  0.1616 -0.2648  1.8824
16731TIP3   OH271683   6.662   5.557  12.842  0.5626 -0.2200  0.5798
16731TIP3    H171684   6.748   5.576  12.881  0.5285 -0.3638  0.7260
16731TIP3    H271685   6.682   5.515  12.759  0.6333 -0.3697  0.6720
16732TIP3   OH271686   2.307   6.376  12.924 -0.2978 -0.3041  0.3217
16732TIP3    H171687   2.338   6.455  12.968 -1.4024 -0.6294  1.7676
16732TIP3    H271688   2.353   6.375  12.840  1.2022  0.8332  1.0901
16733TIP3   OH271689   0.258   4.406   2.886 -0.6820 -0.2868  0.2885
16733TIP3    H171690   0.318   4.331   2.878 -1.1581 -0.5826 -0.7263
16733TIP3    H271691   0.172   4.366   2.901 -0.9538  0.0414 -0.3375
16734TIP3   OH271692   1.937   4.903   0.043 -0.0947  0.5843  0.2693
16734TIP3    H171693   2.000   4.965   0.005  0.8438 -0.2983  0.3582
16734TIP3    H271694   1.911   4.848  -0.030 -0.1075  0.4040  0.4093
16735TIP3   OH271695   4.192   0.122  16.521 -0.1768 -0.4157  0.1117
16735TIP3    H171696   4.223   0.137  16.431  0.6217 -1.3309  0.2099
16735TIP3    H271697   4.213   0.030  16.538 -0.9182 -0.4343  1.0118
16736TIP3   OH271698   2.451   4.582   3.412  0.3319  0.2162 -0.2115
16736TIP3    H171699   2.503   4.628   3.345  1.9848 -2.1847 -0.7275
16736TIP3    H271700   2.504   4.587   3.491 -0.5206  1.0426  0.3223
16737TIP3   OH271701   5.554   5.578   5.288  0.0353  0.0812  0.4755
16737TIP3    H171702   5.462   5.565   5.268 -0.0183  0.9777  0.0610
16737TIP3    H271703   5.567   5.535   5.372 -0.1193 -2.3733 -0.6713
16738TIP3   OH271704   3.314   4.136  15.783  0.3210  0.1090 -0.3553
16738TIP3    H171705   3.303   4.055  15.733  3.9104 -1.7145  1.4052
16738TIP3    H271706   3.273   4.118  15.867  0.1001  0.5948 -0.3573
16739TIP3   OH271707   2.640   2.606   2.126 -0.5902  0.1344 -0.1039
16739TIP3    H171708   2.707   2.617   2.194 -0.4402 -0.0184 -0.2231
16739TIP3    H271709   2.661   2.522   2.086  1.4211  1.6508 -2.5897
16740TIP3   OH271710   2.129   0.846  16.675 -0.1806 -0.1695  0.5388
16740TIP3    H171711   2.037   0.861  16.653  0.3218  1.6130 -0.5349
16740TIP3    H271712   2.137   0.874  16.766 -0.8386 -1.0064  0.8612
16741TIP3   OH271713   2.301   0.796  15.108 -0.4315 -0.5058 -0.0532
16741TIP3    H171714   2.295   0.848  15.028 -4.3827  1.7509  1.4212
16741TIP3    H271715   2.252   0.716  15.088 -1.3263  0.0100  0.0245
16742TIP3   OH271716   2.735   4.238  11.271  0.0799  0.4721  0.0426
16742TIP3    H171717   2.703   4.327  11.281  1.3337  1.1354 -1.4877
16742TIP3    H271718   2.810   4.245  11.212  1.2042 -1.3843  1.1171
16743TIP3   OH271719   1.325   3.235   0.865 -0.0652 -0.0406 -0.4149
16743TIP3    H171720   1.311   3.326   0.839 -1.4225  0.3147  1.3112
16743TIP3    H271721   1.398   3.239   0.927  0.0417 -0.1727 -0.5319
16744TIP3   OH271722   5.666   1.318   4.571  0.0851  0.4945 -0.3421
16744TIP3    H171723   5.697   1.278   4.652  0.3091 -2.1379 -1.6297
16744TIP3    H271724   5.571   1.320   4.579  0.1067  0.2602 -0.0328
16745TIP3   OH271725   5.008   0.576  15.777  0.1268  0.2392  0.0995
16745TIP3    H171726   5.048   0.512  15.836 -1.4699 -0.1648  0.8065
16745TIP3    H271727   4.983   0.648  15.834 -2.9409 -0.8524  0.3244
16746TIP3   OH271728   1.457   6.686  13.212 -0.1156  0.1773  0.1374
16746TIP3    H171729   1.469   6.728  13.127 -1.3907  1.1220  0.3852
16746TIP3    H271730   1.417   6.602  13.192 -1.7972  1.0025 -0.1673
16747TIP3   OH271731   0.802   3.433   5.049 -0.3707 -0.1821 -0.4021
16747TIP3    H171732   0.810   3.485   4.969  0.4005 -0.4105 -0.4845
16747TIP3    H271733   0.738   3.365   5.026 -0.8131  0.2684 -0.5358
16748TIP3   OH271734   1.448   0.605  13.638  0.8753  0.4465 -0.6409
16748TIP3    H171735   1.503   0.529  13.657 -1.7441 -1.0640  1.5328
16748TIP3    H271736   1.411   0.587  13.551  1.0917 -0.2366 -0.5974
16749TIP3   OH271737   5.283   2.670  16.230  0.4794  0.2396 -0.7474
16749TIP3    H171738   5.235   2.744  16.268 -0.5441 -0.9648  0.4069
16749TIP3    H271739   5.318   2.623  16.306  0.9721 -0.5552 -1.4489
16750TIP3   OH271740   3.897   2.468  11.031 -0.4583  0.6305  0.4503
16750TIP3    H171741   3.872   2.487  10.941  1.0378  0.1827 -0.0736
16750TIP3    H271742   3.893   2.553  11.075  2.2341  1.5499 -0.9068
16751TIP3   OH271743   1.778   4.589   0.527 -0.3854  0.1828 -0.5449
16751TIP3    H171744   1.857   4.538   0.547  1.0843  2.5004 -0.0251
16751TIP3    H271745   1.742   4.610   0.613 -1.9125 -1.2455 -0.7850
16752TIP3   OH271746   1.112   5.477  16.077  0.3709  0.2633  0.4452
16752TIP3    H171747   1.079   5.555  16.034 -0.5521  0.0413  0.7299
16752TIP3    H271748   1.173   5.438  16.014  0.1325  0.7068 -0.0621
16753TIP3   OH271749   6.194   6.716  16.535  0.3129 -0.1373 -0.0358
16753TIP3    H171750   6.227   6.805  16.523  0.4165  0.3078  2.8552
16753TIP3    H271751   6.102   6.721  16.508 -0.2392  1.4310  1.8714
16754TIP3   OH271752   2.184   4.402  13.001 -0.3921  0.7873  0.8449
16754TIP3    H171753   2.254   4.424  13.062  0.2342 -2.4351  1.4942
16754TIP3    H271754   2.217   4.326  12.953 -2.4070  0.8579 -0.7984
16755TIP3   OH271755   3.796   1.360  17.078 -0.2438 -0.4505  0.2478
16755TIP3    H171756   3.852   1.303  17.026  1.5607 -0.0699  1.6581
16755TIP3    H271757   3.780   1.311  17.159  1.3056  0.9332  1.4636
16756TIP3   OH271758   3.601   1.043  15.173 -0.0787 -0.5949 -0.3136
16756TIP3    H171759   3.567   1.014  15.258 -0.0652 -0.2662 -0.1966
16756TIP3    H271760   3.665   0.976  15.149 -0.0460 -0.6629 -0.0409
16757TIP3   OH271761   0.434   1.522  15.792  0.0499  0.2846 -0.1942
16757TIP3    H171762   0.490   1.461  15.839 -0.2266  0.5375  0.4851
16757TIP3    H271763   0.389   1.468  15.727  0.7689  0.0108 -0.4712
16758TIP3   OH271764   4.596   6.493  13.359  0.5232  0.1170  0.1217
16758TIP3    H171765   4.530   6.494  13.289  0.7797 -0.3918 -0.1286
16758TIP3    H271766   4.661   6.557  13.331  1.1098 -0.7624 -0.5871
16759TIP3   OH271767   4.368   6.598  16.330 -0.6771  0.5740 -0.1389
16759TIP3    H171768   4.332   6.554  16.253  1.6406 -1.2656 -0.2655
16759TIP3    H271769   4.329   6.552  16.405  0.9083 -1.0975 -0.2750
16760TIP3   OH271770   4.048   2.473  11.937 -0.0380 -0.3546 -1.0035
16760TIP3    H171771   4.010   2.466  12.025  3.1911 -1.6745  0.4252
16760TIP3    H271772   4.028   2.389  11.896 -1.2575  0.1386 -1.4864
16761TIP3   OH271773   5.269   4.655  11.419 -0.1630  0.1109 -0.1966
16761TIP3    H171774   5.304   4.733  11.376 -0.5901  0.3145 -0.1828
16761TIP3    H271775   5.321   4.647  11.499 -0.4954  0.7218  0.0889
16762TIP3   OH271776   5.639   4.706   6.045 -0.9579  0.2666  0.0128
16762TIP3    H171777   5.610   4.619   6.072 -0.9664  0.8015  1.8546
16762TIP3    H271778   5.573   4.766   6.081 -0.2264  1.1271 -0.0324
16763TIP3   OH271779   5.397   2.277   3.942  0.3372 -0.5247 -0.0853
16763TIP3    H171780   5.383   2.219   4.017  0.1320 -0.2465  0.0923
16763TIP3    H271781   5.362   2.229   3.867  3.2377 -2.1476 -0.5552
16764TIP3   OH271782   2.052   2.326   2.082  0.1401  0.6552 -0.2445
16764TIP3    H171783   2.095   2.411   2.068  0.5846  0.3245 -0.9207
16764TIP3    H271784   2.114   2.277   2.136 -1.2642  1.6757  2.5129
16765TIP3   OH271785   5.864   0.124  13.315  0.1530 -0.0765  0.8156
16765TIP3    H171786   5.807   0.199  13.333  0.0319  0.2122 -0.6910
16765TIP3    H271787   5.925   0.155  13.248 -0.8398 -1.7085 -0.9423
16766TIP3   OH271788   5.435   3.324  15.985 -0.1517  0.1816 -0.0508
16766TIP3    H171789   5.476   3.313  15.899 -1.0472 -3.2081 -0.2072
16766TIP3    H271790   5.494   3.280  16.045 -0.6949  0.4157  0.6696
16767TIP3   OH271791   1.584   0.967  11.653  0.3125 -0.4235 -0.1471
16767TIP3    H171792   1.585   0.875  11.676  0.9670 -0.4834 -0.3718
16767TIP3    H271793   1.672   0.983  11.617  1.1669  0.8980  2.2922
16768TIP3   OH271794   1.658   5.815  11.127 -0.2909  0.4562  0.0063
16768TIP3    H171795   1.622   5.732  11.099 -0.8622  1.1903 -1.5401
16768TIP3    H271796   1.640   5.819  11.221 -0.6737 -0.9407  0.0044
16769TIP3   OH271797   2.113   1.970  11.853  0.0871 -0.0622 -0.4971
16769TIP3    H171798   2.031   2.014  11.831  0.3775  0.3651 -0.7306
16769TIP3    H271799   2.181   2.036  11.839  0.5213 -0.5547 -0.7610
16770TIP3   OH271800   2.082   0.614  17.413 -0.1830 -0.4087  0.6442
16770TIP3    H171801   2.109   0.531  17.453 -0.9750 -0.8131  0.3558
16770TIP3    H271802   2.016   0.589  17.349 -0.8281  0.5012  0.9490
16771TIP3   OH271803   3.557   0.892  17.315  0.5782  0.5040 -0.1404
16771TIP3    H171804   3.507   0.963  17.354  0.1316 -1.1256  2.5538
16771TIP3    H271805   3.496   0.818  17.312  1.8520 -0.6177  0.1555
16772TIP3   OH271806   2.499   0.137   1.211  0.6897 -0.4654  0.0301
16772TIP3    H171807   2.534   0.145   1.300  0.0891  0.8057  0.1820
16772TIP3    H271808   2.548   0.201   1.160 -0.4152  0.3415 -0.0561
16773TIP3   OH271809   1.454   2.814  16.847 -0.3758  0.2208 -0.2543
16773TIP3    H171810   1.480   2.906  16.855 -1.9044  0.5841  1.2731
16773TIP3    H271811   1.488   2.787  16.762  0.2438  2.1645 -0.6866
16774TIP3   OH271812   3.819   2.637  15.067  0.0191 -0.4756  0.4639
16774TIP3    H171813   3.765   2.570  15.025  0.2288  0.0451 -0.6695
16774TIP3    H271814   3.873   2.672  14.996 -0.9712  1.7708  0.7223
16775TIP3   OH271815   1.916   1.734  13.804  0.2859 -0.0108  0.3243
16775TIP3    H171816   1.886   1.798  13.869 -0.0131 -0.4219  0.5948
16775TIP3    H271817   1.839   1.679  13.788  0.7164 -0.6818  0.5449
16776TIP3   OH271818   0.950   1.664  10.875  0.1699  0.3975 -0.8679
16776TIP3    H171819   0.992   1.588  10.836 -0.0132 -0.6741  0.9227
16776TIP3    H271820   1.022   1.722  10.899  0.3384  0.5668 -1.7461
16777TIP3   OH271821   0.522   4.126   4.698 -0.4381  0.6327  0.9677
16777TIP3    H171822   0.515   4.030   4.691  0.7849  0.5831  0.1952
16777TIP3    H271823   0.480   4.159   4.618 -0.1610  0.7025  0.8495
16778TIP3   OH271824   0.110   4.653   1.969  0.4112 -0.4159 -0.0392
16778TIP3    H171825   0.017   4.662   1.989  0.6002 -0.1306  0.7659
16778TIP3    H271826   0.151   4.637   2.054  1.3429  1.5122 -0.0609
16779TIP3   OH271827   2.470   0.345  11.743  0.8080  0.1205 -0.0856
16779TIP3    H171828   2.543   0.322  11.686 -0.2715  2.4746 -2.6446
16779TIP3    H271829   2.398   0.290  11.714  0.4038  0.9439 -0.7030
16780TIP3   OH271830   0.802   1.318  11.486  0.1696 -0.6152  0.2318
16780TIP3    H171831   0.888   1.287  11.516  0.9351  0.9874 -0.2115
16780TIP3    H271832   0.743   1.299  11.559  1.5912  1.3754  2.0159
16781TIP3   OH271833   5.464   4.526   4.080 -0.6491  0.0102  0.2682
16781TIP3    H171834   5.533   4.591   4.097 -1.4086  0.6239  1.0786
16781TIP3    H271835   5.476   4.460   4.148 -0.1007 -0.5346 -0.3412
16782TIP3   OH271836   1.545   3.230  16.447  0.6344 -0.0687  0.4074
16782TIP3    H171837   1.470   3.286  16.464  1.0231  0.4449  0.4436
16782TIP3    H271838   1.607   3.285  16.399  0.8701 -0.5712  0.1178
16783TIP3   OH271839   1.279   2.871   4.012  0.2581 -0.4495 -0.3221
16783TIP3    H171840   1.307   2.916   4.092  2.3449 -1.9643 -0.1299
16783TIP3    H271841   1.294   2.935   3.942 -2.1160  1.0973  0.4745
16784TIP3   OH271842   6.743   5.957  11.356  0.0272  0.3654 -0.6573
16784TIP3    H171843   6.835   5.985  11.359 -0.0178  0.5131 -0.6563
16784TIP3    H271844   6.700   6.021  11.299  0.4911 -1.3210 -3.0752
16785TIP3   OH271845   1.782   1.644  16.180  0.1015  0.0609 -0.1329
16785TIP3    H171846   1.793   1.594  16.261 -0.7689 -0.2669 -0.1995
16785TIP3    H271847   1.860   1.625  16.128  1.0152  0.8486  0.9198
16786TIP3   OH271848   0.484   0.627  15.827 -0.2124 -0.4202  0.3473
16786TIP3    H171849   0.446   0.695  15.773 -0.8698 -1.8870 -1.1126
16786TIP3    H271850   0.570   0.611  15.790  0.2991  0.1944  1.2311
16787TIP3   OH271851   4.890   0.036   0.473  0.4291  0.3154  0.3057
16787TIP3    H171852   4.953   0.021   0.544 -0.0878 -1.8955  0.3870
16787TIP3    H271853   4.807   0.051   0.517 -0.0399 -1.7793  0.2536
16788TIP3   OH271854   4.917   5.265   2.228  0.1635  0.0393  1.0372
16788TIP3    H171855   4.826   5.274   2.200  0.9131  1.2916 -1.2892
16788TIP3    H271856   4.929   5.336   2.292 -0.1707  0.7261  0.3604
16789TIP3   OH271857   3.745   2.169  14.994 -0.1623  0.6643  0.7178
16789TIP3    H171858   3.817   2.129  14.945  0.0284  1.9569 -0.1062
16789TIP3    H271859   3.700   2.095  15.035  0.8385 -0.2821  0.1638
16790TIP3   OH271860   4.795   1.040   4.171  0.0021 -0.3191  1.3124
16790TIP3    H171861   4.757   1.024   4.258 -0.7650  0.3050  1.1017
16790TIP3    H271862   4.723   1.024   4.110  0.1484  0.5843  0.8870
16791TIP3   OH271863   6.390   6.063   0.238  0.6955  0.2145  0.1467
16791TIP3    H171864   6.336   6.133   0.201 -0.5895 -0.4061  0.7792
16791TIP3    H271865   6.445   6.107   0.302 -2.5480  0.3005  3.1770
16792TIP3   OH271866   4.100   4.017   2.625 -0.0404 -0.8148  0.1732
16792TIP3    H171867   4.072   4.029   2.716  0.2128 -0.2501  0.1791
16792TIP3    H271868   4.177   4.073   2.616 -0.8664  0.2233 -0.7807
16793TIP3   OH271869   1.088   6.119  13.657 -0.1651  0.0520  0.2743
16793TIP3    H171870   1.093   6.024  13.663  0.2362 -0.0547 -1.2442
16793TIP3    H271871   1.175   6.149  13.683  1.2210 -0.3293 -3.3220
16794TIP3   OH271872   5.466   2.898  15.952 -0.0019  0.2001  0.3387
16794TIP3    H171873   5.493   2.930  15.866  0.8836 -0.2247  0.4452
16794TIP3    H271874   5.547   2.869  15.993 -0.6757 -1.6340  0.4589
16795TIP3   OH271875   2.930   1.372   0.418  0.4827 -0.2652 -0.2143
16795TIP3    H171876   2.982   1.422   0.481 -0.7816 -0.7243  1.2534
16795TIP3    H271877   2.951   1.280   0.436  0.2660 -0.3983 -0.6074
16796TIP3   OH271878   1.607   2.240   2.913  0.4098 -0.1787  0.1902
16796TIP3    H171879   1.674   2.174   2.895  1.2250  0.7250 -0.1793
16796TIP3    H271880   1.525   2.197   2.891  0.9880 -0.8109 -0.8235
16797TIP3   OH271881   2.653   5.389   4.836 -0.4948 -0.2686  0.4450
16797TIP3    H171882   2.659   5.449   4.911  0.3767 -0.3089  0.4219
16797TIP3    H271883   2.659   5.302   4.875 -1.3254 -0.3425  0.4358
16798TIP3   OH271884   4.288   6.188  11.998  0.1634 -0.1902  0.3541
16798TIP3    H171885   4.194   6.173  11.986  0.1123  0.8614 -0.7868
16798TIP3    H271886   4.292   6.272  12.044  0.5434  0.6933 -1.2154
16799TIP3   OH271887   5.721   0.969   4.105 -1.0124 -0.2515  0.4021
16799TIP3    H171888   5.815   0.981   4.110 -0.9985 -0.3429  0.3693
16799TIP3    H271889   5.687   1.053   4.075 -0.9388 -0.2269  0.3886
16800TIP3   OH271890   3.449   5.211  11.570 -0.0767  0.1287  0.3144
16800TIP3    H171891   3.514   5.204  11.500 -0.2659  0.0914  0.1422
16800TIP3    H271892   3.388   5.140  11.553  1.2718 -1.5037  1.9899
16801TIP3   OH271893   1.479   1.433   4.379  0.5815  0.1562  0.0409
16801TIP3    H171894   1.513   1.434   4.469  2.2875  0.3818 -0.5627
16801TIP3    H271895   1.443   1.345   4.368  1.8652 -0.4361  0.4281
16802TIP3   OH271896   0.958   5.000  15.034  0.0425 -0.0174 -0.4800
16802TIP3    H171897   0.951   5.059  15.109  0.6083  0.0052 -0.4426
16802TIP3    H271898   0.978   5.057  14.960  1.6678 -0.2630 -0.2508
16803TIP3   OH271899   5.305   1.899  16.210 -0.5417 -0.4310  0.1083
16803TIP3    H171900   5.264   1.972  16.257  1.9275  0.6330  0.8113
16803TIP3    H271901   5.348   1.941  16.135  0.5528 -1.2005  0.2839
16804TIP3   OH271902   1.567   2.302  17.047 -0.0870 -0.5371  0.3356
16804TIP3    H171903   1.587   2.308  17.141  0.9016  0.1140  0.1022
16804TIP3    H271904   1.628   2.363  17.006 -0.9114 -0.3719 -0.6837
16805TIP3   OH271905   0.018   5.429   1.757 -0.4001  0.4912 -0.6875
16805TIP3    H171906  -0.040   5.504   1.768  0.1100  1.1938 -2.4899
16805TIP3    H271907  -0.021   5.379   1.685 -1.3724 -1.6680  1.1853
16806TIP3   OH271908   6.675   1.192   2.399 -0.5992 -0.0453  0.0744
16806TIP3    H171909   6.601   1.132   2.405  0.6073 -1.8013 -1.4036
16806TIP3    H271910   6.673   1.223   2.309  0.3772 -0.0379  0.0475
16807TIP3   OH271911   0.924   0.868  15.941  0.6026 -0.2798 -0.0279
16807TIP3    H171912   0.993   0.880  16.006 -0.0191 -0.2162  0.6280
16807TIP3    H271913   0.873   0.794  15.973  0.5730 -0.5621 -0.6997
16808TIP3   OH271914   0.443   5.425   1.481 -0.7434  0.1455 -0.4334
16808TIP3    H171915   0.501   5.498   1.500  1.2063 -1.5772  0.7336
16808TIP3    H271916   0.438   5.421   1.386 -0.5358  1.4822 -0.5150
16809TIP3   OH271917   5.534   2.686  10.944  0.0798  1.0303 -0.3211
16809TIP3    H171918   5.598   2.617  10.928  0.0930  1.0576 -0.3866
16809TIP3    H271919   5.582   2.752  10.995 -0.1584  0.6144  0.4679
16810TIP3   OH271920   1.791   3.965  15.305 -0.0008  0.3409 -0.8852
16810TIP3    H171921   1.852   4.033  15.334 -0.7234  0.6664 -0.0663
16810TIP3    H271922   1.767   3.920  15.386 -1.0630  0.4100 -1.1552
16811TIP3   OH271923   6.015   0.602  12.629 -0.4716 -0.6461 -0.1461
16811TIP3    H171924   5.940   0.595  12.571 -0.2655 -0.0460 -0.4939
16811TIP3    H271925   6.004   0.686  12.673  0.4238 -0.1454 -0.8288
16812TIP3   OH271926   0.260   1.400   1.747 -0.4087 -0.2905 -0.6317
16812TIP3    H171927   0.346   1.369   1.717 -0.3816  0.5713 -1.4718
16812TIP3    H271928   0.280   1.459   1.820 -0.3980 -1.3708  0.2605
16813TIP3   OH271929   0.275   1.766   3.766  0.0565 -1.1231  0.3096
16813TIP3    H171930   0.223   1.831   3.718 -0.1490 -0.4027  1.4814
16813TIP3    H271931   0.315   1.815   3.838  1.6661 -1.8569 -0.0451
16814TIP3   OH271932   0.627   3.981  16.194 -0.4068  0.1528 -0.2087
16814TIP3    H171933   0.624   3.979  16.099 -0.5384 -2.2629 -0.2167
16814TIP3    H271934   0.671   3.900  16.219 -0.9111  0.4236  1.7977
16815TIP3   OH271935   4.112   5.062  12.421 -0.3513  0.9766 -0.1181
16815TIP3    H171936   4.185   5.082  12.362 -0.8534  1.0751 -0.7099
16815TIP3    H271937   4.149   5.074  12.508  0.1587  1.6972 -0.4175
16816TIP3   OH271938   0.030   1.993  11.013 -0.4855  0.3806 -0.5750
16816TIP3    H171939   0.090   2.003  10.939 -0.4906  3.9173 -0.2658
16816TIP3    H271940  -0.051   2.035  10.983 -0.5226  1.7632  1.3135
16817TIP3   OH271941   0.971   4.921  17.285  0.2343 -0.3612  0.1768
16817TIP3    H171942   0.902   4.971  17.242  1.4600 -0.1094 -1.5824
16817TIP3    H271943   0.996   4.974  17.360 -1.8164 -0.7127  1.1718
16818TIP3   OH271944   3.514   4.614  14.293  0.0129  0.6604  0.2349
16818TIP3    H171945   3.509   4.607  14.198  0.3363  0.0271  0.2615
16818TIP3    H271946   3.600   4.578  14.316  1.3001  3.5936  0.5242
16819TIP3   OH271947   4.875   1.792  13.827 -0.5766 -0.2504 -0.2583
16819TIP3    H171948   4.939   1.861  13.805 -3.1412  1.4935 -3.0478
16819TIP3    H271949   4.805   1.839  13.873 -2.0099 -1.1032 -1.4940
16820TIP3   OH271950   0.319   2.824  16.014  0.4144 -0.2626 -0.2492
16820TIP3    H171951   0.289   2.742  16.054  1.1917 -0.2852  0.3050
16820TIP3    H271952   0.325   2.885  16.087 -0.0696  0.2734 -0.6470
16821TIP3   OH271953   4.840   5.715  16.038 -0.5934 -0.0770 -0.6448
16821TIP3    H171954   4.864   5.727  15.946 -0.6401 -0.0379 -0.6526
16821TIP3    H271955   4.921   5.688  16.081  0.0893  2.3527 -0.2238
16822TIP3   OH271956   1.954   3.136   3.595  0.1352  0.2975 -0.3174
16822TIP3    H171957   2.022   3.125   3.529 -0.6767  0.3851 -1.1954
16822TIP3    H271958   1.943   3.231   3.602 -0.6167  0.2620 -0.9486
16823TIP3   OH271959   1.912   3.639   2.099 -0.1173 -0.4650 -0.0248
16823TIP3    H171960   2.004   3.648   2.125 -0.0542  1.0300 -0.6617
16823TIP3    H271961   1.915   3.589   2.017  0.2797  0.7990 -0.8137
16824TIP3   OH271962   3.644   1.517  12.981 -0.1936  0.2818  0.1881
16824TIP3    H171963   3.648   1.439  12.926 -0.9100 -0.4594  1.1615
16824TIP3    H271964   3.696   1.495  13.058 -2.5609 -0.2901  1.7150
16825TIP3   OH271965   6.003   3.997   1.008 -0.5459 -0.4921 -0.1034
16825TIP3    H171966   5.969   3.908   1.019  0.9393 -0.9490  1.1720
16825TIP3    H271967   6.044   4.018   1.092  0.9518  0.5824 -1.0431
16826TIP3   OH271968   5.087   5.397   4.179  0.6782  0.0245 -0.1426
16826TIP3    H171969   5.032   5.475   4.168 -1.1152 -0.9988  0.9447
16826TIP3    H271970   5.162   5.427   4.230 -1.3712  0.5875  2.8038
16827TIP3   OH271971   5.530   5.447   2.450 -0.2286 -0.1579  0.0843
16827TIP3    H171972   5.523   5.460   2.545  0.3498 -1.3885  0.3228
16827TIP3    H271973   5.589   5.371   2.441 -2.2946 -1.7142 -1.1648
16828TIP3   OH271974   5.928   4.537  15.960 -0.1429 -0.4441 -0.0768
16828TIP3    H171975   5.963   4.608  15.907 -1.4325 -0.6480 -1.2688
16828TIP3    H271976   5.877   4.581  16.028  0.0671 -0.2116 -0.0671
16829TIP3   OH271977   4.682   0.947   2.377  0.3125 -0.3117  0.1881
16829TIP3    H171978   4.600   0.967   2.331  0.5681 -1.0513 -0.6115
16829TIP3    H271979   4.655   0.934   2.469 -0.0461  2.2600  0.5047
16830TIP3   OH271980   6.396   1.121  12.395 -1.1520 -0.2838 -0.0651
16830TIP3    H171981   6.480   1.077  12.382 -1.4728 -0.7377 -0.6562
16830TIP3    H271982   6.376   1.108  12.488 -0.2163  0.4765  0.2585
16831TIP3   OH271983   4.238   6.724   5.462 -0.2100  0.3597 -0.3533
16831TIP3    H171984   4.273   6.780   5.533  1.3500 -0.2309 -0.6108
16831TIP3    H271985   4.313   6.671   5.436 -0.9219  0.1623 -2.0731
16832TIP3   OH271986   4.341   2.980   2.004 -0.3200  0.3770  0.5733
16832TIP3    H171987   4.385   2.905   2.045 -0.6620 -0.2409 -0.1636
16832TIP3    H271988   4.358   2.970   1.910  0.4300  1.7522  0.5346
16833TIP3   OH271989   6.171   5.279  15.539  0.3311  0.9297  0.4238
16833TIP3    H171990   6.252   5.278  15.591  1.0573 -2.0004 -0.5462
16833TIP3    H271991   6.114   5.216  15.584 -0.6454  1.4766 -0.0361
16834TIP3   OH271992   0.825   0.896   5.823  0.1735 -0.0796  0.7246
16834TIP3    H171993   0.827   0.954   5.746 -0.5798 -2.2416 -1.0280
16834TIP3    H271994   0.812   0.955   5.897 -2.9038  1.8590 -1.1414
16835TIP3   OH271995   5.768   6.554   0.936 -0.0909  0.1744  0.2895
16835TIP3    H171996   5.837   6.604   0.892  0.5696 -1.1589 -0.2329
16835TIP3    H271997   5.746   6.484   0.874  2.3297 -3.0621  2.7823
16836TIP3   OH271998   1.937   0.219  13.907 -0.0885  0.2614 -0.0034
16836TIP3    H171999   2.008   0.171  13.949 -0.7782 -0.0827  0.7920
16836TIP3    H272000   1.975   0.249  13.824  1.1079  0.4518  0.5907
16837TIP3   OH272001   0.778   1.687  11.648 -0.3794  0.1178 -0.0465
16837TIP3    H172002   0.690   1.725  11.652 -0.4230 -0.0821  1.2850
16837TIP3    H272003   0.787   1.656  11.558 -1.1500  1.3625 -0.5850
16838TIP3   OH272004   4.653   4.438   2.157  0.0571 -0.3292  0.0175
16838TIP3    H172005   4.700   4.512   2.119  1.1154 -0.3677  1.1721
16838TIP3    H272006   4.699   4.420   2.240 -0.1896 -2.2385 -0.2009
16839TIP3   OH272007   1.997   5.727   3.526 -0.8697 -0.0586  0.6937
16839TIP3    H172008   1.937   5.685   3.587 -0.5885  1.0833  1.7957
16839TIP3    H272009   1.959   5.710   3.439 -1.7703 -0.9246  1.2412
16840TIP3   OH272010   6.328   5.702   5.870 -0.0782  0.0733 -0.2461
16840TIP3    H172011   6.244   5.733   5.835 -1.2489  0.1953  2.3727
16840TIP3    H272012   6.313   5.609   5.890 -0.3665  0.5389  2.0660
16841TIP3   OH272013   3.450   0.239  15.864 -0.5567  0.0321 -0.0762
16841TIP3    H172014   3.498   0.271  15.940  0.7351 -1.9499  0.0056
16841TIP3    H272015   3.415   0.154  15.891 -3.8719  1.1934 -0.2690
16842TIP3   OH272016   1.464   0.948   4.085  0.2943 -0.1373 -0.3177
16842TIP3    H172017   1.430   1.032   4.117  3.2527  1.0723 -0.0139
16842TIP3    H272018   1.449   0.951   3.991  2.2669  1.8320 -0.6580
16843TIP3   OH272019   0.795   6.125  10.161 -0.3726 -0.0976 -0.0170
16843TIP3    H172020   0.727   6.180  10.124  0.2470  0.4017 -0.4258
16843TIP3    H272021   0.876   6.175  10.150  0.2378 -1.1681 -0.6103
16844TIP3   OH272022   6.762   2.795   4.175 -0.2311  0.1737 -0.1013
16844TIP3    H172023   6.835   2.733   4.182  0.3249  0.6940 -1.0274
16844TIP3    H272024   6.762   2.843   4.258  1.5394  1.2847 -0.6965
16845TIP3   OH272025   2.826   1.797  15.195  0.2303  0.3452  0.2978
16845TIP3    H172026   2.831   1.702  15.190 -1.0159  0.3075 -0.8757
16845TIP3    H272027   2.740   1.815  15.231  0.0548  1.0208 -0.4260
16846TIP3   OH272028   4.146   2.275   3.845  0.4432 -0.1284  0.8641
16846TIP3    H172029   4.167   2.182   3.837  0.3574 -0.0152 -1.9913
16846TIP3    H272030   4.060   2.277   3.886  0.9015 -1.2143  1.9471
16847TIP3   OH272031   2.410   2.428   3.063 -0.1404  0.3490  0.1495
16847TIP3    H172032   2.357   2.499   3.098 -0.0370 -0.1751  1.4010
16847TIP3    H272033   2.383   2.350   3.111 -0.0589 -0.4290 -1.0070
16848TIP3   OH272034   5.196   0.170   3.611  0.5915 -0.1942 -0.9965
16848TIP3    H172035   5.253   0.219   3.551  0.7379  1.5766  0.5114
16848TIP3    H272036   5.115   0.159   3.562  0.1841  2.5133 -1.0737
16849TIP3   OH272037   2.994   0.510  12.121  0.1983  0.3869  0.1791
16849TIP3    H172038   3.081   0.514  12.161 -0.3982  0.6080  1.4796
16849TIP3    H272039   2.992   0.424  12.078  0.9154  0.2281  0.4452
16850TIP3   OH272040   3.681   3.682   4.959 -0.3866 -0.1887  0.1603
16850TIP3    H172041   3.655   3.597   4.923  1.0935 -1.0318  1.0050
16850TIP3    H272042   3.750   3.662   5.023  0.1724  1.6622  0.2084
16851TIP3   OH272043   0.146   2.587   6.284 -0.3712  0.3124 -0.4471
16851TIP3    H172044   0.058   2.574   6.319 -0.4367 -0.6548 -0.9449
16851TIP3    H272045   0.198   2.519   6.326  0.8153  2.5313  1.9898
16852TIP3   OH272046   0.486   0.184   0.262  0.1976 -0.6284 -0.1407
16852TIP3    H172047   0.545   0.237   0.315 -1.1826  0.3091  0.4979
16852TIP3    H272048   0.415   0.159   0.321 -0.0079 -1.8577 -0.8564
16853TIP3   OH272049   0.190   6.599   1.142 -0.6202 -0.1334 -0.1985
16853TIP3    H172050   0.148   6.629   1.223  0.5185 -0.6161  0.6028
16853TIP3    H272051   0.124   6.544   1.100 -1.4414  0.6121  0.0999
16854TIP3   OH272052   0.725   4.319  14.747 -0.0282 -0.9116  0.3897
16854TIP3    H172053   0.689   4.395  14.701  0.7130 -0.7843 -0.0055
16854TIP3    H272054   0.730   4.347  14.839 -1.6081 -1.2047  0.5917
16855TIP3   OH272055   6.230   3.722   1.169 -0.3896  0.1118 -0.3362
16855TIP3    H172056   6.187   3.641   1.196  1.0150  0.0133  1.9501
16855TIP3    H272057   6.167   3.791   1.190  0.2795 -0.0468  2.7406
16856TIP3   OH272058   0.291   5.704  16.595 -0.6268  0.2882  0.0694
16856TIP3    H172059   0.307   5.621  16.550 -1.3325 -0.3031  0.8715
16856TIP3    H272060   0.268   5.766  16.526  0.5806  0.0027 -0.6157
16857TIP3   OH272061   4.351   5.825   4.036 -1.0099  0.2907  0.0968
16857TIP3    H172062   4.443   5.809   4.054 -0.8828  0.5398 -0.3341
16857TIP3    H272063   4.349   5.856   3.945 -1.6004 -0.5949 -0.2064
16858TIP3   OH272064   3.905   0.384  16.962 -0.1421 -0.5965  0.2763
16858TIP3    H172065   3.975   0.323  16.937  1.3976 -0.2606  3.2889
16858TIP3    H272066   3.873   0.419  16.879  1.6188 -2.5469 -1.3508
16859TIP3   OH272067   2.733   3.545   3.229 -0.1014 -0.5522 -0.1294
16859TIP3    H172068   2.761   3.493   3.305 -0.3385  0.6846  0.8447
16859TIP3    H272069   2.736   3.635   3.260  2.8340  0.3480 -2.4961
16860TIP3   OH272070   6.563   1.407  12.500  0.2148  0.2167 -0.1268
16860TIP3    H172071   6.500   1.355  12.550  2.1701 -0.0200  2.2569
16860TIP3    H272072   6.625   1.439  12.565  1.3426  2.2868 -2.0687
16861TIP3   OH272073   2.583   1.406   1.015  0.3484  0.1624 -0.4074
16861TIP3    H172074   2.522   1.389   1.086  0.5931 -0.5279 -0.3548
16861TIP3    H272075   2.641   1.329   1.014 -1.1828 -1.0939 -2.9688
16862TIP3   OH272076   3.454   5.216  12.416 -0.0428 -0.0381  0.3750
16862TIP3    H172077   3.455   5.155  12.490 -0.4493 -0.5537 -0.0363
16862TIP3    H272078   3.505   5.292  12.446 -0.3882 -0.1487  1.2595
16863TIP3   OH272079   2.298   5.991  12.469 -0.0687 -0.9579 -0.0627
16863TIP3    H172080   2.232   5.989  12.538  0.0742  2.6004  0.3274
16863TIP3    H272081   2.381   5.997  12.515  0.1018  0.3514 -0.5074
16864TIP3   OH272082   3.361   1.171  17.264  0.3125  0.1915 -0.4827
16864TIP3    H172083   3.311   1.164  17.345  0.2236 -1.7075 -0.6572
16864TIP3    H272084   3.437   1.225  17.286  0.2632 -0.2650  0.8643
16865TIP3   OH272085   3.978   3.448  15.975  0.4489  0.5642 -0.2685
16865TIP3    H172086   4.008   3.381  15.914  2.1183  1.6010 -0.6438
16865TIP3    H272087   3.937   3.514  15.920 -1.4045 -0.1885  0.1201
16866TIP3   OH272088   3.655   3.247  11.193 -0.2238 -0.0408  0.3798
16866TIP3    H172089   3.590   3.270  11.126  2.6155  1.2183 -2.1758
16866TIP3    H272090   3.700   3.170  11.158  0.9364  0.2663  1.1317
16867TIP3   OH272091   3.425   1.377   0.943 -0.2756 -0.0357  0.7668
16867TIP3    H172092   3.383   1.318   0.880 -0.5979  1.4213 -0.4532
16867TIP3    H272093   3.352   1.417   0.991 -0.0425 -0.9257  1.8960
16868TIP3   OH272094   1.187   6.332   4.531 -0.1755 -0.0735 -0.3040
16868TIP3    H172095   1.126   6.344   4.603 -2.5408 -1.0750 -1.9949
16868TIP3    H272096   1.217   6.242   4.540 -0.2960 -0.1281 -0.4487
16869TIP3   OH272097   1.890   4.681  14.338  0.4437  0.4646 -0.8775
16869TIP3    H172098   1.930   4.767  14.350 -2.4015  1.6490  1.2972
16869TIP3    H272099   1.859   4.681  14.248  0.9786  1.4651 -1.0783
16870TIP3   OH272100   4.539   1.343  12.311  0.5966  0.0024  0.0377
16870TIP3    H172101   4.584   1.311  12.233 -0.2425 -0.5606 -0.2373
16870TIP3    H272102   4.605   1.339  12.380  1.2517  0.1777 -0.5701
16871TIP3   OH272103   6.446   6.574   1.872 -0.3908 -0.2703 -0.1152
16871TIP3    H172104   6.452   6.579   1.967 -0.5207  1.7472 -0.1627
16871TIP3    H272105   6.364   6.529   1.855 -3.4797  4.3510  0.8820
16872TIP3   OH272106   2.776   2.674   3.934  0.0532  0.1785 -0.5649
16872TIP3    H172107   2.831   2.687   3.856 -0.9419 -3.3283 -2.0694
16872TIP3    H272108   2.744   2.761   3.955  2.6781  1.7315 -2.2546
16873TIP3   OH272109   4.040   3.764  17.325 -0.1721  0.1206 -0.2677
16873TIP3    H172110   3.968   3.746  17.265  0.0989 -0.2955 -0.4727
16873TIP3    H272111   4.102   3.816  17.273  0.4702 -0.9808 -0.6317
16874TIP3   OH272112   6.567   3.980   1.583 -0.9597  0.5105 -0.5905
16874TIP3    H172113   6.536   4.067   1.609  0.3735  0.5601  1.0030
16874TIP3    H272114   6.654   3.973   1.622 -1.0697 -1.5817 -0.6028
16875TIP3   OH272115   2.268   3.089  13.034  0.1089 -0.2963 -0.1894
16875TIP3    H172116   2.277   2.995  13.013 -0.6778 -0.4132 -0.0398
16875TIP3    H272117   2.216   3.090  13.114 -0.5622  0.2893 -0.6223
16876TIP3   OH272118   5.810   1.679   5.702 -0.8361 -0.1759  0.3668
16876TIP3    H172119   5.756   1.741   5.750  1.5368  0.4888  2.4063
16876TIP3    H272120   5.824   1.719   5.617  0.0319  1.7923  1.3841
16877TIP3   OH272121   0.306   0.601  12.613  0.2510  0.1886  0.4967
16877TIP3    H172122   0.257   0.630  12.690  1.1972  0.4750  0.9984
16877TIP3    H272123   0.252   0.530  12.577 -0.1855  0.0146  1.4442
16878TIP3   OH272124   1.101   0.743   2.772 -0.1426 -0.2475 -0.1255
16878TIP3    H172125   1.067   0.831   2.789  2.7388  0.9320 -0.0024
16878TIP3    H272126   1.103   0.737   2.676  1.3360  0.5805 -0.1718
16879TIP3   OH272127   1.249   6.268   6.469  0.0242 -0.4731  0.8247
16879TIP3    H172128   1.250   6.260   6.565  1.8536 -0.2341  0.8765
16879TIP3    H272129   1.161   6.297   6.448 -1.1391 -2.6912  2.2211
16880TIP3   OH272130   1.043   2.531  11.595  0.5933  0.0341 -0.0576
16880TIP3    H172131   1.021   2.602  11.535  0.0054  0.4238  0.6095
16880TIP3    H272132   0.992   2.549  11.674  0.8627 -0.8246  0.3254
16881TIP3   OH272133   4.479   1.932  15.556  0.1374 -0.9628  0.1066
16881TIP3    H172134   4.485   1.984  15.636 -0.3857 -0.6204 -0.0717
16881TIP3    H272135   4.541   1.973  15.496 -1.2547  0.3430 -0.5093
16882TIP3   OH272136   4.871   5.614   0.911  0.0538 -0.1579 -0.4305
16882TIP3    H172137   4.915   5.698   0.900 -0.1700  0.1774  1.0003
16882TIP3    H272138   4.936   5.559   0.956 -0.0252 -0.5502 -0.7882
16883TIP3   OH272139   0.732   6.505   5.567  0.6547 -0.0812  0.6938
16883TIP3    H172140   0.639   6.482   5.566  0.8171 -0.7251 -0.5753
16883TIP3    H272141   0.778   6.423   5.581  1.1279 -0.2133 -1.3721
16884TIP3   OH272142   2.845   1.268  15.815 -0.4799 -0.0258  0.2606
16884TIP3    H172143   2.765   1.285  15.766 -0.0710  0.2602 -0.3202
16884TIP3    H272144   2.819   1.205  15.883 -1.6773  1.7362  1.5133
16885TIP3   OH272145   3.330   1.264   4.388 -0.6714  0.1790 -0.2905
16885TIP3    H172146   3.350   1.243   4.297  0.1754 -1.7235  0.2891
16885TIP3    H272147   3.413   1.292   4.425 -0.9248  0.5283  0.0190
16886TIP3   OH272148   4.202   2.078  15.129 -0.1215  0.1543  0.3347
16886TIP3    H172149   4.264   2.007  15.114 -1.6027 -1.1564  0.2577
16886TIP3    H272150   4.227   2.146  15.066  0.5502 -0.7922 -0.4427
16887TIP3   OH272151   4.670   6.566  14.721 -0.1546 -0.2742 -0.3954
16887TIP3    H172152   4.603   6.572  14.788  1.9653  1.6327  1.7641
16887TIP3    H272153   4.655   6.642  14.665  1.0373  1.1420  1.0822
16888TIP3   OH272154   1.801   3.514   4.392 -0.8693 -0.0614 -0.1153
16888TIP3    H172155   1.721   3.479   4.431 -0.1054 -0.3115  1.3013
16888TIP3    H272156   1.860   3.529   4.466  0.5234 -0.2000 -1.1375
16889TIP3   OH272157   0.676   5.613   5.085 -0.0602 -0.5589  0.1246
16889TIP3    H172158   0.684   5.703   5.118  1.6036 -0.3857 -0.6243
16889TIP3    H272159   0.741   5.564   5.135 -0.5215 -1.2234  0.0836
16890TIP3   OH272160   5.771   4.694   4.248  0.3173  0.5549  0.1124
16890TIP3    H172161   5.715   4.751   4.301 -1.1768 -1.5299  0.9059
16890TIP3    H272162   5.858   4.706   4.285 -0.1805  1.3868  1.0808
16891TIP3   OH272163   3.340   5.739  11.148 -0.8001 -0.6565 -0.8083
16891TIP3    H172164   3.308   5.706  11.232  2.3772  0.2879  0.9148
16891TIP3    H272165   3.363   5.660  11.099  1.9588 -1.2677  1.2534
16892TIP3   OH272166   6.623   6.643  14.868  0.1807  0.1594 -0.3651
16892TIP3    H172167   6.659   6.559  14.839 -1.6989 -0.8436  0.0684
16892TIP3    H272168   6.697   6.704  14.863  0.8093 -0.7114 -3.9236
16893TIP3   OH272169   5.826   5.946   4.824 -0.3394 -0.1405 -0.4687
16893TIP3    H172170   5.815   5.871   4.883  1.2152 -0.3862 -0.4492
16893TIP3    H272171   5.785   6.019   4.871  1.6628 -0.1268  1.4110
16894TIP3   OH272172   5.860   2.202  15.191  0.0399  0.0243  0.2663
16894TIP3    H172173   5.849   2.282  15.242  0.5788  0.0052  0.4174
16894TIP3    H272174   5.780   2.196  15.140 -1.1364 -0.6768  2.0923
16895TIP3   OH272175   3.330   2.029  16.588  0.6202 -0.0431 -0.4329
16895TIP3    H172176   3.394   1.958  16.581  0.6924 -0.1661  1.2021
16895TIP3    H272177   3.361   2.083  16.661 -0.0662  1.0346 -0.9029
16896TIP3   OH272178   1.106   0.398   4.421 -0.0652  0.4530  0.2569
16896TIP3    H172179   1.105   0.372   4.513 -0.8952 -0.0357  0.1125
16896TIP3    H272180   1.182   0.353   4.385 -0.0977  0.1579  0.5546
16897TIP3   OH272181   3.992   0.573   4.287 -0.5381  0.2583  0.8220
16897TIP3    H172182   3.953   0.658   4.266  0.1949  0.4177  0.0609
16897TIP3    H272183   3.958   0.552   4.374 -1.3993  0.9266  0.6574
16898TIP3   OH272184   2.448   0.260  11.035 -0.0985 -0.1042  0.4135
16898TIP3    H172185   2.524   0.283  11.088 -0.3222 -2.0216  1.6527
16898TIP3    H272186   2.483   0.204  10.966  0.0914  1.8576 -1.1622
16899TIP3   OH272187   1.990   2.995   2.053 -0.0289  0.4844  0.2696
16899TIP3    H172188   2.030   3.007   2.140 -0.4448 -0.2037  0.5637
16899TIP3    H272189   1.935   3.073   2.041 -1.3134 -0.2090  1.3753
16900TIP3   OH272190   4.598   2.740  16.242 -0.2188 -0.4588 -0.0380
16900TIP3    H172191   4.633   2.757  16.329 -0.3810  0.1172 -0.0777
16900TIP3    H272192   4.508   2.773  16.246 -0.2570 -0.5124 -0.3974
16901TIP3   OH272193   2.459   2.664   4.036 -0.6891 -0.8364 -0.4017
16901TIP3    H172194   2.462   2.756   4.009 -1.9910  0.3695  3.1078
16901TIP3    H272195   2.465   2.615   3.953  1.0634  2.3055 -2.3402
16902TIP3   OH272196   1.396   4.943   2.649  0.0296 -0.4089 -0.3238
16902TIP3    H172197   1.445   4.893   2.715  0.3027  1.8667  1.3266
16902TIP3    H272198   1.313   4.896   2.640  0.8310 -1.9769 -0.0046
16903TIP3   OH272199   6.658   5.149  12.561 -0.2169  0.0888 -0.6389
16903TIP3    H172200   6.707   5.074  12.596  0.4048  1.0696  0.6929
16903TIP3    H272201   6.721   5.194  12.505  0.2533  0.9840  0.5566
16904TIP3   OH272202   4.752   0.770  17.348  0.7692 -0.2961 -0.2524
16904TIP3    H172203   4.828   0.828  17.351 -0.1791  0.9424  0.4079
16904TIP3    H272204   4.685   0.814  17.400  0.2205 -2.2929  0.8630
16905TIP3   OH272205   4.890   1.423   6.852  0.2163 -0.0369  0.0017
16905TIP3    H172206   4.959   1.473   6.895 -0.8092  1.4760 -0.0206
16905TIP3    H272207   4.824   1.489   6.828 -0.0043 -1.0188 -2.4129
16906TIP3   OH272208   6.027   5.544  11.748 -0.4923 -0.2196 -0.0151
16906TIP3    H172209   5.988   5.464  11.783  1.7933 -1.3380  0.1291
16906TIP3    H272210   5.988   5.615  11.800 -0.2501 -1.4936  1.9808
16907TIP3   OH272211   3.328   0.827   0.678  0.8530 -0.1356  0.7829
16907TIP3    H172212   3.295   0.894   0.738  0.5854  1.1982 -0.7814
16907TIP3    H272213   3.413   0.862   0.648 -0.8643  1.4844 -2.8569
16908TIP3   OH272214   3.392   6.582   1.677  0.2378  0.0577  0.1710
16908TIP3    H172215   3.470   6.581   1.621  0.9997  1.0234  1.1702
16908TIP3    H272216   3.413   6.645   1.746 -0.5606 -1.3137  1.7234
16909TIP3   OH272217   3.076   3.824  11.700 -1.0822 -0.2533 -0.1361
16909TIP3    H172218   2.998   3.850  11.749 -0.5747  0.0896  0.5262
16909TIP3    H272219   3.089   3.895  11.636 -1.0180 -0.0398  0.1104
16910TIP3   OH272220   6.463   2.630  15.528 -0.0918 -0.1813  0.4584
16910TIP3    H172221   6.443   2.541  15.500  0.9431 -0.0274 -0.8818
16910TIP3    H272222   6.402   2.647  15.600 -3.0809 -0.5497 -1.7863
16911TIP3   OH272223   0.458   6.165  14.817  0.1505  0.0089  0.5111
16911TIP3    H172224   0.452   6.178  14.722 -4.0742  1.6718  0.7651
16911TIP3    H272225   0.531   6.220  14.844  2.2098 -1.3598 -1.7478
16912TIP3   OH272226   4.772   4.295  14.339  1.0358 -0.4922 -0.4107
16912TIP3    H172227   4.760   4.292  14.244  0.9798 -0.4321 -0.4060
16912TIP3    H272228   4.742   4.209  14.369 -2.2919  0.6308 -0.0857
16913TIP3   OH272229   0.033   1.943  14.573  0.1170  0.1450 -0.4283
16913TIP3    H172230  -0.047   1.930  14.625 -0.9223 -3.4062 -2.5974
16913TIP3    H272231   0.008   2.009  14.507 -0.1047  1.0257  0.5115
16914TIP3   OH272232   6.347   2.473   6.873 -0.3220 -0.5074  0.0160
16914TIP3    H172233   6.349   2.549   6.932 -2.0105 -1.1657  0.9783
16914TIP3    H272234   6.417   2.416   6.905 -1.3546 -0.9573  1.5827
16915TIP3   OH272235   4.966   2.751   1.927 -0.9448  0.4394 -0.2285
16915TIP3    H172236   4.905   2.687   1.891  0.7856 -1.2677 -0.2786
16915TIP3    H272237   5.015   2.783   1.851 -0.9057  0.8536 -0.0324
16916TIP3   OH272238   2.966   2.445   5.189 -0.7327  0.0571  0.0857
16916TIP3    H172239   2.903   2.513   5.162 -0.1448  0.5612 -0.0334
16916TIP3    H272240   2.934   2.365   5.147 -1.4841  0.2384  0.2947
16917TIP3   OH272241   0.293   3.323   3.239 -0.1258  0.5893 -0.2490
16917TIP3    H172242   0.233   3.314   3.314 -0.4413 -0.9846 -0.6453
16917TIP3    H272243   0.284   3.240   3.192  0.8190  1.1627 -1.4851
16918TIP3   OH272244   1.568   1.788  13.949 -0.4072 -0.3594  0.0998
16918TIP3    H172245   1.646   1.815  13.900 -0.3120  0.0954  0.4998
16918TIP3    H272246   1.506   1.760  13.881  0.7212 -2.4593 -0.1860
16919TIP3   OH272247   2.145   3.543  11.183 -0.3973 -0.2480  0.0420
16919TIP3    H172248   2.134   3.586  11.099  0.8488 -0.8908 -0.4756
16919TIP3    H272249   2.158   3.614  11.245 -1.8080  0.2526 -0.2092
16920TIP3   OH272250   4.729   4.081  12.432  0.5323  0.5325  0.4139
16920TIP3    H172251   4.773   4.065  12.515  1.7865  0.2736 -0.2773
16920TIP3    H272252   4.750   4.171  12.410  0.6533  0.4318  0.1121
16921TIP3   OH272253   6.761   2.972  15.002 -0.4045  0.2078  0.1947
16921TIP3    H172254   6.707   3.051  14.998  0.1826  0.6407  0.6525
16921TIP3    H272255   6.850   3.004  15.014 -0.0931 -0.5133 -0.1065
16922TIP3   OH272256   1.921   2.140   1.201 -0.2029 -0.2013  0.3611
16922TIP3    H172257   1.973   2.060   1.213  2.1866  1.3217  0.8485
16922TIP3    H272258   1.844   2.127   1.257  0.4913 -1.8355  1.0160
16923TIP3   OH272259   2.883   6.367   1.663  0.3355 -0.3543  0.1644
16923TIP3    H172260   2.967   6.411   1.654  0.5204 -0.9447 -1.2932
16923TIP3    H272261   2.862   6.336   1.575 -0.3144 -2.1812  0.8975
16924TIP3   OH272262   1.528   2.641  11.174  0.1354  0.0504 -0.0119
16924TIP3    H172263   1.592   2.676  11.238 -1.5047  0.7697  1.3215
16924TIP3    H272264   1.527   2.547  11.191 -0.0011  0.1830  0.7942
16925TIP3   OH272265   2.121   2.376  15.564 -0.3885 -0.0915 -0.1325
16925TIP3    H172266   2.077   2.461  15.571  0.3422  0.3061 -0.2518
16925TIP3    H272267   2.084   2.325  15.636  0.6139  1.0131  1.2391
16926TIP3   OH272268   4.501   4.569   1.586  0.5603 -0.3733  0.5488
16926TIP3    H172269   4.423   4.565   1.531  1.1187  1.7340 -0.4932
16926TIP3    H272270   4.486   4.643   1.645  0.4407 -1.9241  2.5933
16927TIP3   OH272271   2.162   2.449  11.685 -0.3172  0.6772 -0.2706
16927TIP3    H172272   2.178   2.490  11.770  1.9572  0.6104 -0.6251
16927TIP3    H272273   2.074   2.478  11.661 -1.4831 -0.1727  2.5664
16928TIP3   OH272274   2.315   4.787  12.755  1.1592 -0.3875 -0.0887
16928TIP3    H172275   2.340   4.736  12.677  0.4897 -0.5024 -0.2376
16928TIP3    H272276   2.242   4.738  12.792  0.5567  0.4210 -0.1851
16929TIP3   OH272277   5.969   1.863  14.524  0.4896  0.3591  0.1535
16929TIP3    H172278   5.911   1.787  14.528 -0.3294  0.8942 -0.8648
16929TIP3    H272279   6.035   1.840  14.458  1.7252 -0.4102  1.5995
16930TIP3   OH272280   1.303   4.409  14.255 -0.1009 -0.1164  0.1105
16930TIP3    H172281   1.349   4.440  14.177  1.2151  0.4273  1.0635
16930TIP3    H272282   1.308   4.483  14.316 -1.2406 -0.4763  0.6606
16931TIP3   OH272283   4.718   5.170   3.992  0.0909 -0.0653  0.2462
16931TIP3    H172284   4.626   5.152   3.972 -0.5689  2.5235  0.4821
16931TIP3    H272285   4.715   5.220   4.074  1.4978  1.6906 -0.6970
16932TIP3   OH272286   5.895   1.642  13.064 -0.4322  0.7233 -0.5200
16932TIP3    H172287   5.830   1.582  13.029  0.8596 -0.3279 -1.1772
16932TIP3    H272288   5.862   1.729  13.039 -2.2402  0.3428  0.3219
16933TIP3   OH272289   2.401   1.629  15.903 -0.6425  0.2067 -0.0116
16933TIP3    H172290   2.362   1.579  15.831  0.7997  0.2700 -0.8584
16933TIP3    H272291   2.420   1.715  15.866 -0.7135  0.5454  0.7107
16934TIP3   OH272292   2.028   6.365   3.880 -0.1177 -0.6421 -0.3953
16934TIP3    H172293   1.984   6.365   3.795 -1.4922 -3.1090  0.2061
16934TIP3    H272294   2.122   6.362   3.858 -0.4024 -0.0279 -1.7964
16935TIP3   OH272295   0.788   5.015  11.257  0.1313 -0.3708  0.4590
16935TIP3    H172296   0.773   5.089  11.316  0.6419 -1.5793  2.1791
16935TIP3    H272297   0.710   5.013  11.201  1.0405  2.7199 -1.1227
16936TIP3   OH272298   6.552   0.141  15.226 -0.2248  0.4098 -0.2359
16936TIP3    H172299   6.542   0.234  15.206 -1.3543  0.1634 -0.8817
16936TIP3    H272300   6.487   0.123  15.293  1.1244  0.4304  1.1293
16937TIP3   OH272301   4.566   3.263   1.577  0.0438 -0.0585 -0.3628
16937TIP3    H172302   4.479   3.284   1.543 -0.2259  1.6534  1.2156
16937TIP3    H272303   4.602   3.201   1.513 -0.9695  1.7832 -2.8796
16938TIP3   OH272304   3.859   2.320   1.408  0.0853  0.2419 -0.0539
16938TIP3    H172305   3.778   2.356   1.444  0.2695  0.0740  0.5440
16938TIP3    H272306   3.928   2.372   1.450  0.2652  2.1984 -2.5027
16939TIP3   OH272307   3.546   3.351  14.541 -0.6019 -0.3023 -0.5002
16939TIP3    H172308   3.640   3.335  14.536 -0.0507  2.2373  0.3641
16939TIP3    H272309   3.514   3.286  14.604  1.0916  0.5816  1.3720
16940TIP3   OH272310   2.384   4.806  14.011  0.0341 -0.3158  0.4169
16940TIP3    H172311   2.441   4.805  13.935 -2.8050  1.1495 -1.9476
16940TIP3    H272312   2.365   4.714  14.029  1.1571 -0.7024 -0.2991
16941TIP3   OH272313   5.441   1.899   2.962 -0.7301  0.4491  0.2816
16941TIP3    H172314   5.458   1.807   2.985  1.6274  0.7945  0.1833
16941TIP3    H272315   5.396   1.894   2.877 -2.4994 -0.6174  1.2094
16942TIP3   OH272316   4.210   6.044  16.963  0.6450 -0.1714 -0.0126
16942TIP3    H172317   4.173   6.118  17.012  1.9885 -0.7657  2.0213
16942TIP3    H272318   4.216   6.076  16.873  1.0179  2.1363  0.7657
16943TIP3   OH272319   2.438   3.048  16.797 -0.3405 -0.8252 -0.6158
16943TIP3    H172320   2.452   3.000  16.715  1.0827  0.3656 -1.1161
16943TIP3    H272321   2.470   3.136  16.778 -2.5812  0.2495  0.3865
16944TIP3   OH272322   6.634   2.243   0.297  0.0773  0.0616 -0.1035
16944TIP3    H172323   6.606   2.221   0.386 -1.1309  0.1547 -0.4413
16944TIP3    H272324   6.601   2.332   0.283  0.8327  0.3005 -0.4178
16945TIP3   OH272325   5.517   3.620   4.567  0.2416  0.0861 -0.3341
16945TIP3    H172326   5.435   3.590   4.527  0.2538 -1.0481  0.4525
16945TIP3    H272327   5.582   3.609   4.498 -0.2157  0.7963 -0.8968
16946TIP3   OH272328   3.626   0.704  13.313 -0.0733  0.0663 -0.5314
16946TIP3    H172329   3.647   0.679  13.223 -0.4357  0.7014 -0.7995
16946TIP3    H272330   3.642   0.625  13.364  2.1839  0.2632 -0.8284
16947TIP3   OH272331   1.743   5.608   6.067 -0.4735 -0.3431  0.3707
16947TIP3    H172332   1.692   5.527   6.062  1.4327 -1.5950  0.3618
16947TIP3    H272333   1.758   5.620   6.161  0.9633 -1.1548  0.2653
16948TIP3   OH272334   2.212   4.795  16.822  0.2013  0.3496 -0.3779
16948TIP3    H172335   2.229   4.764  16.733 -0.0507  1.4302 -0.8118
16948TIP3    H272336   2.178   4.883  16.811  1.8921  1.2293  0.8513
16949TIP3   OH272337   5.682   1.844   4.409 -0.2527 -0.2857  0.3151
16949TIP3    H172338   5.743   1.808   4.344 -0.2606 -0.3236  0.3288
16949TIP3    H272339   5.690   1.786   4.484  0.2905  0.1661  0.6222
16950TIP3   OH272340   5.418   3.077  14.850  0.2621  0.3646  0.0407
16950TIP3    H172341   5.466   3.159  14.843  1.5790 -0.4295 -0.5712
16950TIP3    H272342   5.368   3.072  14.768  1.4257 -0.1857 -0.6561
16951TIP3   OH272343   0.951   0.150  13.273  0.3134  0.3778  0.1975
16951TIP3    H172344   0.997   0.164  13.190  1.2792  0.5037  0.7468
16951TIP3    H272345   0.957   0.055  13.287 -0.9909  0.1636 -0.5104
16952TIP3   OH272346   0.904   2.797   0.560  0.1249  0.2357 -0.4954
16952TIP3    H172347   0.830   2.856   0.549  0.4982  0.8112 -0.0160
16952TIP3    H272348   0.979   2.845   0.524  0.4649  0.1358  0.0601
16953TIP3   OH272349   0.599   1.655  13.002  0.1284 -0.5907 -0.5923
16953TIP3    H172350   0.589   1.739  12.956 -1.7559 -0.9197 -0.8937
16953TIP3    H272351   0.681   1.618  12.968  0.7799  0.9337 -0.7522
16954TIP3   OH272352   1.254   0.615   1.562 -0.1397 -0.0311 -0.2809
16954TIP3    H172353   1.210   0.565   1.631 -1.0330 -0.8696 -1.4230
16954TIP3    H272354   1.216   0.582   1.481  0.3119  1.5078 -1.1471
16955TIP3   OH272355   3.488   3.812   6.580 -0.2087  0.2331 -0.7650
16955TIP3    H172356   3.478   3.719   6.558 -0.7086  0.1113 -0.0332
16955TIP3    H272357   3.453   3.858   6.503 -1.9284 -0.1943 -0.2705
16956TIP3   OH272358   2.881   3.278  16.231  0.5205  0.2381  0.1688
16956TIP3    H172359   2.854   3.190  16.257  2.4585  0.2063  2.4321
16956TIP3    H272360   2.839   3.336  16.294  0.4799  0.7785 -0.3479
16957TIP3   OH272361   6.623   2.788  14.858  0.0462  0.0101 -0.0015
16957TIP3    H172362   6.684   2.758  14.791  1.3017 -0.3153  1.2527
16957TIP3    H272363   6.668   2.861  14.901  0.1853 -1.1205  1.8532
16958TIP3   OH272364   1.658   1.656   1.500  0.1211 -0.2725  0.6729
16958TIP3    H172365   1.688   1.626   1.414 -0.1105  0.2934  0.3859
16958TIP3    H272366   1.738   1.679   1.547  0.1690  2.3915 -0.5198
16959TIP3   OH272367   0.162   5.139   1.888 -0.4234 -0.1840 -0.6586
16959TIP3    H172368   0.173   5.183   1.804 -0.1243  0.6124 -0.2146
16959TIP3    H272369   0.162   5.209   1.952  0.0938 -0.8329  0.0762
16960TIP3   OH272370   4.630   4.756   0.944  0.1061  0.5055 -0.0823
16960TIP3    H172371   4.539   4.777   0.966  0.3302  1.7754 -0.3056
16960TIP3    H272372   4.623   4.691   0.874 -0.6165  0.3175  0.1469
16961TIP3   OH272373   1.442   1.779  16.655 -0.6269 -0.5696  0.8282
16961TIP3    H172374   1.471   1.755  16.743  2.4012  1.3562  0.4866
16961TIP3    H272375   1.490   1.719  16.598 -1.0843 -0.5259  0.3966
16962TIP3   OH272376   2.301   3.560  11.446 -0.7403 -0.4098  0.4302
16962TIP3    H172377   2.228   3.557  11.507 -0.2145  2.2251  1.3172
16962TIP3    H272378   2.318   3.653  11.434  0.9427 -0.9062 -1.6431
16963TIP3   OH272379   2.664   5.053  12.986  0.3483  0.3958  0.4171
16963TIP3    H172380   2.594   5.108  13.021  0.2287  0.2714  0.3771
16963TIP3    H272381   2.625   5.013  12.908  0.0549 -0.6063  1.0520
16964TIP3   OH272382   5.358   5.034  13.281 -0.1561 -0.3100 -0.1641
16964TIP3    H172383   5.332   5.000  13.366  1.4295 -0.4570  0.2881
16964TIP3    H272384   5.373   5.128  13.296 -0.9529 -0.1063 -0.5592
16965TIP3   OH272385   5.873   0.295   0.599  0.3986  0.3565 -0.2600
16965TIP3    H172386   5.878   0.391   0.594  0.8300  0.2848 -2.0790
16965TIP3    H272387   5.783   0.277   0.625 -0.5843  1.2687 -2.6952
16966TIP3   OH272388   3.753   5.661  14.058  0.0822 -0.7124  0.6120
16966TIP3    H172389   3.815   5.732  14.043  0.9283 -1.2982  1.2008
16966TIP3    H272390   3.669   5.695  14.029  0.3749  0.7127  1.3708
16967TIP3   OH272391   6.422   6.234  13.219  0.7895 -0.4156 -0.6312
16967TIP3    H172392   6.463   6.187  13.146  2.2827  0.3946 -0.3470
16967TIP3    H272393   6.470   6.317  13.224  0.3260 -0.2163  0.9142
16968TIP3   OH272394   5.731   0.845   1.629 -0.1270  0.2374  0.4847
16968TIP3    H172395   5.749   0.777   1.694 -0.4499 -0.0256  0.3020
16968TIP3    H272396   5.704   0.921   1.681 -0.4875 -0.0039  0.6585
16969TIP3   OH272397   6.313   6.652  14.914  0.8165 -0.1066 -0.1497
16969TIP3    H172398   6.376   6.580  14.909 -0.5218 -1.2847 -1.0639
16969TIP3    H272399   6.300   6.666  15.008  1.9877 -0.2292  0.0450
16970TIP3   OH272400   1.703   5.060  15.484  0.2990 -0.9929  0.1773
16970TIP3    H172401   1.739   5.128  15.427  0.1330  0.4241  1.6855
16970TIP3    H272402   1.764   5.057  15.558 -0.8015 -1.0010  1.1118
16971TIP3   OH272403   3.737   6.313   2.076  0.2367  0.2484 -0.0352
16971TIP3    H172404   3.675   6.301   2.004  0.3083  0.0774 -0.0675
16971TIP3    H272405   3.724   6.404   2.103  1.9732  1.1513 -1.9226
16972TIP3   OH272406   3.429   6.005  16.996  0.6117  0.6826 -0.7068
16972TIP3    H172407   3.362   6.038  16.935 -1.0155 -0.4593  0.3578
16972TIP3    H272408   3.452   6.080  17.050 -0.1961  0.9963 -0.7816
16973TIP3   OH272409   1.774   1.970  13.877  0.8583 -0.2263  0.4924
16973TIP3    H172410   1.713   2.019  13.823  2.1331 -0.0523 -0.8500
16973TIP3    H272411   1.773   2.014  13.962 -2.2021 -1.3332  1.1435
16974TIP3   OH272412   4.000   5.839   2.738 -0.1993 -0.3513 -0.3765
16974TIP3    H172413   3.932   5.862   2.801 -0.1411 -1.3599  0.0715
16974TIP3    H272414   4.064   5.910   2.744  0.0310 -0.6587  1.0443
16975TIP3   OH272415   4.219   1.175   0.852  0.0965  0.2176 -0.5029
16975TIP3    H172416   4.285   1.204   0.789  0.9055 -0.4849 -0.0026
16975TIP3    H272417   4.136   1.203   0.815  0.7150  1.7276 -0.8262
16976TIP3   OH272418   4.632   4.706  12.853  0.0917 -0.0375 -0.1745
16976TIP3    H172419   4.548   4.751  12.856  0.8033  1.3732 -0.6396
16976TIP3    H272420   4.691   4.768  12.810  1.1239 -1.4059 -0.8148
16977TIP3   OH272421   2.248   1.530  10.804 -0.4231  0.1940 -0.1062
16977TIP3    H172422   2.230   1.606  10.749 -1.2151  0.7652  0.9002
16977TIP3    H272423   2.234   1.561  10.894  0.0257 -0.9250  0.3792
16978TIP3   OH272424   6.314   5.669  13.588  0.1050  0.0330 -0.3693
16978TIP3    H172425   6.337   5.682  13.680  0.7611 -0.8719 -0.3917
16978TIP3    H272426   6.398   5.670  13.543 -0.0300 -1.5459 -0.6898
16979TIP3   OH272427   1.808   6.610  16.385 -0.4150 -0.1020  0.2368
16979TIP3    H172428   1.720   6.593  16.419  0.0746  1.1911  2.3052
16979TIP3    H272429   1.867   6.583  16.456  0.7384  1.2587 -0.1567
16980TIP3   OH272430   1.007   5.988   6.180 -0.1785  0.1387  0.1872
16980TIP3    H172431   1.051   5.904   6.191 -0.4105 -0.0744 -0.4840
16980TIP3    H272432   0.917   5.972   6.207 -0.1845  0.2159  0.2135
16981TIP3   OH272433   0.478   3.361   5.169  0.3064  0.3450 -1.0320
16981TIP3    H172434   0.429   3.442   5.186 -0.3060  0.0709 -1.4608
16981TIP3    H272435   0.562   3.375   5.213  0.3838  1.3935 -1.4820
16982TIP3   OH272436   1.778   5.668   1.970 -0.2596 -0.2836  0.4199
16982TIP3    H172437   1.741   5.581   1.986 -1.3897  0.2712  0.9128
16982TIP3    H272438   1.833   5.685   2.047 -2.1401  0.5022  1.6874
16983TIP3   OH272439   3.027   5.722  10.984  0.0899 -0.3667 -0.0564
16983TIP3    H172440   3.002   5.800  11.033 -2.6802 -2.3484  1.9839
16983TIP3    H272441   3.006   5.743  10.893 -0.4647  1.2733  0.4207
16984TIP3   OH272442   0.578   1.108  12.371  0.1128 -0.0420  0.8127
16984TIP3    H172443   0.665   1.108  12.411  1.2055  0.5785 -1.3930
16984TIP3    H272444   0.523   1.154  12.434  1.5454  0.2286  1.9261
16985TIP3   OH272445   0.050   4.830  15.583  0.6192  0.3226 -0.0121
16985TIP3    H172446   0.004   4.911  15.561  1.2975  0.6506 -0.2445
16985TIP3    H272447   0.143   4.852  15.576  0.8163 -0.3628  0.3292
16986TIP3   OH272448   4.457   6.624   4.052 -0.2494  0.1053  0.2843
16986TIP3    H172449   4.499   6.538   4.052 -1.9251 -0.7470  0.4182
16986TIP3    H272450   4.437   6.641   3.960 -1.4127 -0.4205  0.4326
16987TIP3   OH272451   6.488   1.181  14.302  0.5126  0.3562  1.0369
16987TIP3    H172452   6.431   1.250  14.336 -0.5521 -0.8469  1.7702
16987TIP3    H272453   6.448   1.099  14.331  0.3942 -0.7097 -1.7829
16988TIP3   OH272454   1.734   6.516   0.770  0.1313  0.5840 -0.2308
16988TIP3    H172455   1.711   6.554   0.685  1.5643  2.2443  0.0467
16988TIP3    H272456   1.828   6.536   0.780  0.9816 -2.8923  0.0912
16989TIP3   OH272457   2.987   2.368   6.407 -0.7252 -0.8163 -0.3405
16989TIP3    H172458   2.935   2.443   6.436 -1.2786 -1.4075  0.2428
16989TIP3    H272459   2.944   2.293   6.448  1.8209 -1.1650  1.9100
16990TIP3   OH272460   1.375   6.050  16.983  0.1468 -0.0121 -0.0352
16990TIP3    H172461   1.341   6.107  17.053  1.6555  0.8948 -0.0153
16990TIP3    H272462   1.444   5.999  17.026 -1.7369 -2.5701  0.1817
16991TIP3   OH272463   6.083   2.705   6.135 -0.5203 -0.0827  0.4282
16991TIP3    H172464   6.004   2.703   6.189 -0.8521  1.8676  0.0862
16991TIP3    H272465   6.056   2.663   6.053 -1.6985  1.8991 -0.2543
16992TIP3   OH272466   6.723   4.687   3.313 -0.7011 -0.2425  0.3096
16992TIP3    H172467   6.674   4.667   3.233  0.0460  1.2748 -0.5698
16992TIP3    H272468   6.815   4.681   3.288 -0.4519  1.3316  0.7382
16993TIP3   OH272469   0.208   0.220   4.880 -0.5993 -0.3686  0.4642
16993TIP3    H172470   0.261   0.157   4.929 -1.3285 -0.1975  1.5288
16993TIP3    H272471   0.161   0.166   4.816  1.8797 -0.3426 -1.5217
16994TIP3   OH272472   0.325   5.585  12.755 -0.3770  0.0460 -0.3046
16994TIP3    H172473   0.374   5.667  12.758  1.6116 -1.0919  1.1286
16994TIP3    H272474   0.386   5.522  12.717 -0.5320 -1.4982  1.8026
16995TIP3   OH272475   2.383   5.576   5.255  0.2041 -0.4319  0.4172
16995TIP3    H172476   2.309   5.527   5.220  1.4613 -1.7118 -0.5577
16995TIP3    H272477   2.408   5.530   5.335  1.4803 -1.5190 -0.5784
16996TIP3   OH272478   6.668   4.217  14.703  0.3427 -0.1133 -0.5495
16996TIP3    H172479   6.691   4.172  14.622  1.0275 -0.2557 -0.2815
16996TIP3    H272480   6.734   4.286  14.712  0.5669 -0.4079  0.1342
16997TIP3   OH272481   1.612   4.358   2.269 -0.0613  0.2125  0.4299
16997TIP3    H172482   1.546   4.290   2.283  0.4879 -0.7053 -1.1792
16997TIP3    H272483   1.566   4.440   2.288 -1.4471 -0.4516  0.0777
16998TIP3   OH272484   1.803   1.129   2.123 -0.7041 -0.1461 -0.3392
16998TIP3    H172485   1.751   1.107   2.045 -1.7878  0.2675  0.2475
16998TIP3    H272486   1.793   1.054   2.181 -2.0759  0.6277  0.4797
16999TIP3   OH272487   5.945   1.983  15.955 -0.0103  0.1017  0.1703
16999TIP3    H172488   5.985   2.068  15.977 -0.1863  0.8165 -2.0139
16999TIP3    H272489   6.020   1.927  15.934  0.0629 -0.0565  0.8273
17000TIP3   OH272490   2.032   6.602  16.235  0.7583 -0.0398  0.5503
17000TIP3    H172491   1.954   6.585  16.288  1.5658 -0.5757  1.5884
17000TIP3    H272492   2.032   6.533  16.169 -0.3756  0.7622 -0.3294
17001TIP3   OH272493   3.997   6.526  15.937 -0.1793 -0.3093  0.0597
17001TIP3    H172494   4.040   6.605  15.904  2.5291 -2.0215 -0.8846
17001TIP3    H272495   4.008   6.530  16.032  2.1198 -0.6164 -0.1335
17002TIP3   OH272496   5.442   1.593  11.379 -0.6728  0.1018 -0.4722
17002TIP3    H172497   5.472   1.529  11.314 -0.3728 -1.0688  0.7670
17002TIP3    H272498   5.354   1.562  11.404 -0.1825 -0.3685  0.7625
17003TIP3   OH272499   0.774   4.448  10.490  0.1708 -0.2024  0.2311
17003TIP3    H172500   0.746   4.461  10.580 -0.6465  4.0707 -0.4517
17003TIP3    H272501   0.868   4.467  10.491 -0.4701  3.9670 -0.2177
17004TIP3   OH272502   0.825   4.890  11.703 -0.3086 -0.3700  0.2996
17004TIP3    H172503   0.817   4.925  11.614  0.2478  0.2332  0.4763
17004TIP3    H272504   0.744   4.917  11.747  0.3372  1.2503  0.5981
17005TIP3   OH272505   6.439   4.317  11.134  0.2141  0.0452 -0.1920
17005TIP3    H172506   6.521   4.346  11.092  1.0779 -2.1028 -0.0858
17005TIP3    H272507   6.370   4.358  11.081  1.3104 -0.9490 -2.5661
17006TIP3   OH272508   2.799   6.279   0.785 -1.1269 -0.5594 -0.2818
17006TIP3    H172509   2.744   6.201   0.779 -1.9232  0.0247 -0.8801
17006TIP3    H272510   2.761   6.340   0.722 -1.3921  0.8415  1.1623
17007TIP3   OH272511   3.945   5.707  13.204 -0.1416 -0.4545  1.0186
17007TIP3    H172512   3.908   5.760  13.133  1.0415 -0.8023  0.1159
17007TIP3    H272513   4.010   5.651  13.161  0.7282 -0.5500  2.4064
17008TIP3   OH272514   5.841   3.506  13.786  0.1036 -0.1792 -0.5393
17008TIP3    H172515   5.845   3.591  13.742 -1.4612  0.4211  0.3718
17008TIP3    H272516   5.796   3.449  13.723 -1.4481  0.4769 -0.0928
17009TIP3   OH272517   4.148   1.657  16.031 -0.0465 -0.3976 -0.3712
17009TIP3    H172518   4.056   1.660  16.003 -0.5312  1.1123  1.1939
17009TIP3    H272519   4.181   1.746  16.015  1.1336 -0.8914 -0.8055
17010TIP3   OH272520   1.546   4.593  12.508 -0.1623  0.4333 -0.2999
17010TIP3    H172521   1.626   4.539  12.507 -1.2235 -1.2520  0.2863
17010TIP3    H272522   1.488   4.551  12.444 -0.8578  1.1516 -0.1517
17011TIP3   OH272523   4.579   3.464   2.659  0.0610 -0.0249  0.3803
17011TIP3    H172524   4.588   3.390   2.599  1.9654  0.4544  0.0307
17011TIP3    H272525   4.566   3.539   2.601 -0.4902  0.1148  0.6807
17012TIP3   OH272526   2.201   6.053  16.050  0.1500 -0.0818 -0.5380
17012TIP3    H172527   2.200   6.003  16.131 -0.5465  0.7360 -0.0247
17012TIP3    H272528   2.268   6.120  16.063  0.2746 -0.1585 -0.7743
17013TIP3   OH272529   3.242   0.593   4.673  0.5092  0.3352  0.0834
17013TIP3    H172530   3.165   0.643   4.698  1.5136  1.5125  0.9819
17013TIP3    H272531   3.251   0.608   4.579 -0.2854  0.2613 -0.0119
17014TIP3   OH272532   4.285   3.130  13.271  0.4086 -1.0355 -0.1340
17014TIP3    H172533   4.317   3.210  13.313 -2.2718  0.4732 -0.7291
17014TIP3    H272534   4.307   3.140  13.179 -0.4437 -0.6923 -0.3047
17015TIP3   OH272535   2.213   6.209  14.349  0.4373  0.3695 -0.3054
17015TIP3    H172536   2.152   6.154  14.300  1.2802  0.6112 -1.7093
17015TIP3    H272537   2.298   6.194  14.305  1.3155  0.3281  1.3353
17016TIP3   OH272538   2.928   4.923   2.998  0.0829  0.2644 -0.2983
17016TIP3    H172539   3.015   4.907   3.036  0.5136 -1.4266 -1.8215
17016TIP3    H272540   2.941   4.995   2.936  0.5052 -0.1794 -0.7422
17017TIP3   OH272541   5.373   6.268  16.055 -0.5907 -0.1004  0.5476
17017TIP3    H172542   5.334   6.352  16.029  0.7373  0.3251 -0.1492
17017TIP3    H272543   5.339   6.205  15.992 -1.2079 -0.0108  0.7781
17018TIP3   OH272544   1.757   5.176   4.564 -0.6896  0.1048 -0.6164
17018TIP3    H172545   1.706   5.250   4.531  0.5993  1.0158 -0.6076
17018TIP3    H272546   1.713   5.099   4.528 -2.2450  0.8375 -0.3738
17019TIP3   OH272547   4.258   4.201  13.329  0.0000 -0.0814  0.3230
17019TIP3    H172548   4.188   4.192  13.393 -0.4220  1.3052  0.0838
17019TIP3    H272549   4.300   4.284  13.351  2.3022 -1.3422  1.1484
17020TIP3   OH272550   3.651   0.443  13.400  0.2293 -0.3284  0.7500
17020TIP3    H172551   3.716   0.393  13.352 -0.2120 -0.0026 -0.1959
17020TIP3    H272552   3.624   0.384  13.471 -1.2128 -1.9959 -1.0759
17021TIP3   OH272553   0.443   1.123   0.283 -0.0528 -0.1755 -0.2319
17021TIP3    H172554   0.460   1.062   0.354 -0.0576 -0.3652 -0.3932
17021TIP3    H272555   0.349   1.143   0.290 -0.0483 -0.1758 -0.1714
17022TIP3   OH272556   2.178   0.667   0.369  0.0554 -0.1658  0.0248
17022TIP3    H172557   2.179   0.593   0.309  1.2242 -0.6503  0.6142
17022TIP3    H272558   2.087   0.698   0.367 -0.2552 -1.0739 -0.8674
17023TIP3   OH272559   1.402   2.991   1.629 -0.4923  0.4429 -0.3866
17023TIP3    H172560   1.460   3.057   1.667  0.3349  0.0243 -0.8874
17023TIP3    H272561   1.453   2.953   1.557 -0.6929 -1.2047  0.2958
17024TIP3   OH272562   4.170   6.385   2.973  0.3269 -0.7550  0.2800
17024TIP3    H172563   4.252   6.376   3.021  0.5775 -1.0300 -0.1860
17024TIP3    H272564   4.163   6.303   2.923  0.1593 -0.4019 -0.2762
17025TIP3   OH272565   1.622   2.556   0.473 -0.9682  0.8284 -0.1511
17025TIP3    H172566   1.584   2.577   0.559  0.5708  1.2409  0.4464
17025TIP3    H272567   1.648   2.640   0.436  1.1586  0.4399  0.3343
17026TIP3   OH272568   6.614   6.731  16.898 -0.7706 -0.0359 -0.0624
17026TIP3    H172569   6.588   6.821  16.878 -3.3007 -0.8012 -0.5498
17026TIP3    H272570   6.638   6.694  16.813  1.5864  0.4745  0.2980
17027TIP3   OH272571   6.117   4.191  15.832  0.8479 -0.1318  0.0851
17027TIP3    H172572   6.063   4.212  15.755 -0.1012  1.5713  1.1641
17027TIP3    H272573   6.104   4.096  15.844 -1.9261  0.1665  0.2505
17028TIP3   OH272574   4.902   6.367   6.011 -0.0705  0.4056  0.4851
17028TIP3    H172575   4.824   6.422   6.011 -0.3606  0.0767  2.3256
17028TIP3    H272576   4.871   6.282   6.043  0.6081 -0.4627 -1.0870
17029TIP3   OH272577   3.523   4.518   1.188 -0.9827 -0.2076  0.4586
17029TIP3    H172578   3.492   4.608   1.193 -2.5225 -0.6553 -0.3735
17029TIP3    H272579   3.596   4.522   1.126 -1.6650  0.3200 -0.3303
17030TIP3   OH272580   1.835   1.887   5.246 -0.4792 -0.3832 -0.0259
17030TIP3    H172581   1.919   1.845   5.267  0.2238  1.4770  1.1005
17030TIP3    H272582   1.776   1.857   5.315 -0.4870 -0.9620 -0.2811
17031TIP3   OH272583   1.708   3.943   5.377 -0.1883 -0.0759 -0.2119
17031TIP3    H172584   1.686   3.960   5.469  2.6349  1.2185  0.3495
17031TIP3    H272585   1.667   4.015   5.329  2.3433  2.2320  0.7729
17032TIP3   OH272586   5.861   2.242  16.253 -0.4863  0.2244 -0.3254
17032TIP3    H172587   5.916   2.289  16.191 -0.2042 -0.0600 -0.2897
17032TIP3    H272588   5.835   2.163  16.206  0.8619 -0.6800  0.4003
17033TIP3   OH272589   1.321   6.692  16.719  0.1214  0.5583  0.0656
17033TIP3    H172590   1.405   6.662  16.684 -0.3771 -0.4490 -0.2873
17033TIP3    H272591   1.255   6.650  16.664 -0.6792 -0.7882  1.9776
17034TIP3   OH272592   5.505   2.727   2.415  0.3437 -0.7204  0.5415
17034TIP3    H172593   5.412   2.735   2.393  0.6773 -0.3728 -0.8429
17034TIP3    H272594   5.520   2.793   2.483 -0.0970  0.3167 -0.3472
17035TIP3   OH272595   4.840   6.654   4.987 -0.1416 -0.0592 -0.0037
17035TIP3    H172596   4.898   6.620   5.056 -2.1049 -1.7560  0.9078
17035TIP3    H272597   4.818   6.742   5.016  2.2228  0.7954 -0.5775
17036TIP3   OH272598   1.803   0.228   2.284 -0.5381 -0.4725 -0.2294
17036TIP3    H172599   1.884   0.215   2.333  0.3445 -2.0521 -1.9961
17036TIP3    H272600   1.819   0.308   2.233  0.1640 -1.0870 -0.9984
17037TIP3   OH272601   0.306   3.615   0.283 -0.1445  0.4307 -0.0047
17037TIP3    H172602   0.242   3.676   0.247 -2.4547  0.0925  3.1058
17037TIP3    H272603   0.373   3.670   0.323 -0.8406  0.9278  0.4985
17038TIP3   OH272604   0.909   5.833   2.410 -0.1182  0.1867  0.1957
17038TIP3    H172605   0.918   5.855   2.502 -2.8661  1.8630  0.1960
17038TIP3    H272606   0.815   5.819   2.398  0.3755 -2.0210 -1.9665
17039TIP3   OH272607   3.987   2.462   5.969 -0.7260  0.0795  0.0180
17039TIP3    H172608   3.931   2.425   5.901  1.0550  0.7330 -1.9058
17039TIP3    H272609   4.072   2.472   5.927  0.8255 -0.6593  2.7370
17040TIP3   OH272610   0.716   0.646  17.013 -0.2566  0.5375  0.5795
17040TIP3    H172611   0.720   0.587  17.088 -0.8548 -0.8338 -0.4343
17040TIP3    H272612   0.735   0.590  16.937  0.9180  1.9928 -0.2645
17041TIP3   OH272613   0.138   4.693   3.946  0.3995 -0.1639 -0.9342
17041TIP3    H172614   0.208   4.691   3.881  1.9014  1.1568  0.5634
17041TIP3    H272615   0.091   4.774   3.929  0.8375  0.2192 -0.3737
17042TIP3   OH272616   6.606   3.350  11.439  0.8415  0.2351 -0.2476
17042TIP3    H172617   6.675   3.319  11.381 -0.1445 -0.2722 -1.1814
17042TIP3    H272618   6.541   3.389  11.380  0.2451  0.5463  0.5947
17043TIP3   OH272619   2.009   3.628   4.616  0.0322 -0.1560 -0.4351
17043TIP3    H172620   1.956   3.641   4.695  1.6251  1.2835  0.4390
17043TIP3    H272621   2.095   3.601   4.648  1.4518  2.7175 -1.4444
17044TIP3   OH272622   2.133   6.569  15.896 -0.1628  0.4348 -0.2057
17044TIP3    H172623   2.131   6.655  15.854  1.2745  0.3789 -0.4293
17044TIP3    H272624   2.225   6.555  15.918 -0.7858  0.2634  2.5860
17045TIP3   OH272625   4.340   2.993  11.970  0.1889 -0.3932 -0.1804
17045TIP3    H172626   4.314   2.929  12.036  2.2285  0.4566  1.5778
17045TIP3    H272627   4.259   3.015  11.925 -0.7795 -3.2830 -0.0830
17046TIP3   OH272628   2.448   3.146   4.459  0.4293  0.1718 -0.6364
17046TIP3    H172629   2.411   3.103   4.382 -1.3505 -0.1685  0.3679
17046TIP3    H272630   2.504   3.215   4.423 -1.1224  0.6557 -2.2583
17047TIP3   OH272631   1.119   5.919  14.288 -0.5569  0.1028 -0.1112
17047TIP3    H172632   1.062   5.947  14.359 -1.7431 -1.1122 -0.5449
17047TIP3    H272633   1.100   5.826  14.277  0.3255  0.0396 -1.3683
17048TIP3   OH272634   1.248   0.416  12.300  0.2186 -0.1504  0.2213
17048TIP3    H172635   1.179   0.432  12.236 -1.2457 -0.5178  1.6547
17048TIP3    H272636   1.309   0.356  12.257 -1.0483 -0.8612 -0.6084
17049TIP3   OH272637   4.111   1.798  17.106 -0.8130 -0.6415  0.1917
17049TIP3    H172638   4.053   1.795  17.030 -1.6403  0.5012  0.7458
17049TIP3    H272639   4.180   1.735  17.086 -0.5346  0.2623 -1.8822
17050TIP3   OH272640   4.528   0.256   3.178  0.2692 -0.0322 -0.1121
17050TIP3    H172641   4.478   0.183   3.213 -0.4919  0.6088  0.1692
17050TIP3    H272642   4.553   0.228   3.090 -1.0413 -0.1715 -0.4621
17051TIP3   OH272643   1.006   2.015   1.628 -0.3198  0.4073 -0.3431
17051TIP3    H172644   0.915   2.019   1.597 -0.2950 -1.5618 -0.8045
17051TIP3    H272645   1.040   2.103   1.614 -2.0415  1.0710 -0.5453
17052TIP3   OH272646   2.564   3.209  15.269  0.1337  0.3311 -0.4515
17052TIP3    H172647   2.657   3.230  15.268  0.3572 -0.5451 -1.9825
17052TIP3    H272648   2.532   3.237  15.183 -0.5462 -1.2039 -0.7461
17053TIP3   OH272649   4.911   6.317  15.055  0.2894  0.0914 -0.6535
17053TIP3    H172650   4.925   6.377  14.983  0.1086 -0.4142 -1.1157
17053TIP3    H272651   4.994   6.315  15.102  1.4938 -1.9901 -2.6846
17054TIP3   OH272652   5.347   0.465  14.848  0.4555 -0.2293  0.5606
17054TIP3    H172653   5.431   0.491  14.812  0.8704  2.1449  2.9254
17054TIP3    H272654   5.286   0.533  14.818 -0.0771 -0.5649  0.8632
17055TIP3   OH272655   0.979   1.097   2.531 -0.2273  0.0006  0.3639
17055TIP3    H172656   0.923   1.076   2.606  0.0799 -0.3856  0.4882
17055TIP3    H272657   0.989   1.014   2.485 -1.1080  0.3964 -0.5937
17056TIP3   OH272658   1.000   3.495   3.372  0.1527  0.0660  0.2097
17056TIP3    H172659   1.040   3.580   3.391  0.9205  0.1479 -1.6187
17056TIP3    H272660   0.985   3.495   3.278 -0.3547 -1.6048  0.2540
17057TIP3   OH272661   4.612   5.652   3.778 -0.1398 -0.3963  0.5019
17057TIP3    H172662   4.652   5.635   3.863  0.0803 -1.0453  0.2730
17057TIP3    H272663   4.685   5.652   3.716 -0.3891 -0.7171  0.2028
17058TIP3   OH272664   2.762   0.441  13.792 -0.0793  0.5032  0.0252
17058TIP3    H172665   2.670   0.416  13.787  0.0564  0.2594 -2.2790
17058TIP3    H272666   2.811   0.360  13.774  0.5259  1.0286 -0.7558
17059TIP3   OH272667   1.158   0.471  16.275  0.7740 -0.0427  0.5978
17059TIP3    H172668   1.109   0.390  16.288  0.3034  0.2329  0.5674
17059TIP3    H272669   1.237   0.460  16.328  0.1922 -0.0707  1.4827
17060TIP3   OH272670   6.205   1.287  17.415 -0.0530 -0.4217  0.1744
17060TIP3    H172671   6.217   1.197  17.447  0.3655 -0.2196  0.5778
17060TIP3    H272672   6.291   1.313  17.383 -0.1333 -0.0909  0.2283
17061TIP3   OH272673   4.044   4.343  13.530  0.5324 -0.0583 -0.1670
17061TIP3    H172674   4.001   4.259  13.548 -1.9805  1.4663  1.5376
17061TIP3    H272675   3.992   4.382  13.461  0.9702  0.5969 -0.1285
17062TIP3   OH272676   5.650   6.753  12.313  0.3438  0.0772 -0.1650
17062TIP3    H172677   5.723   6.713  12.361  1.5329 -0.7235 -2.4824
17062TIP3    H272678   5.598   6.679  12.283 -1.2518  0.6343  1.0979
17063TIP3   OH272679   2.801   2.724   0.139  0.2468 -0.1159 -0.1463
17063TIP3    H172680   2.707   2.737   0.147 -0.0386 -1.5986 -0.7030
17063TIP3    H272681   2.834   2.729   0.229 -0.4146  0.0336  0.0917
17064TIP3   OH272682   4.272   3.940  16.058 -0.2915 -0.2447  0.1154
17064TIP3    H172683   4.277   3.941  15.963  0.4568  0.2886  0.1525
17064TIP3    H272684   4.360   3.912  16.086 -0.5451 -0.5237  0.6416
17065TIP3   OH272685   6.357   2.417   6.280 -0.3339  0.0894  0.0354
17065TIP3    H172686   6.359   2.486   6.213 -1.2657 -0.0297 -0.1213
17065TIP3    H272687   6.425   2.442   6.342  0.4889  0.2588 -0.8987
17066TIP3   OH272688   4.547   1.155   1.526  0.0641  0.5888  0.3183
17066TIP3    H172689   4.477   1.139   1.462  0.0526  0.0667  0.4522
17066TIP3    H272690   4.501   1.175   1.607  0.0467 -0.2777  0.5396
17067TIP3   OH272691   0.181   3.905  15.533  0.3206 -0.1834  0.0841
17067TIP3    H172692   0.253   3.863  15.579 -0.4726 -1.1329  0.4844
17067TIP3    H272693   0.138   3.959  15.600  2.0044  2.2683 -0.6654
17068TIP3   OH272694   0.006   4.129  13.684  0.0171 -0.4448 -0.2774
17068TIP3    H172695  -0.001   4.110  13.590 -0.8835  2.0728 -0.7921
17068TIP3    H272696   0.076   4.194  13.690  0.1687 -0.6938  0.8475
17069TIP3   OH272697   2.760   4.350  13.465  0.1084 -0.2295 -0.3777
17069TIP3    H172698   2.856   4.347  13.465  0.0925 -0.7916 -0.0432
17069TIP3    H272699   2.736   4.350  13.372  0.4269 -0.2383 -0.4616
17070TIP3   OH272700   1.291   5.244  15.951  0.0604 -0.8500 -0.1315
17070TIP3    H172701   1.247   5.184  16.011 -0.8894  1.2624  1.4385
17070TIP3    H272702   1.224   5.266  15.886 -0.6704  0.8229  1.1060
17071TIP3   OH272703   5.661   0.192   0.721 -0.7405  0.3305  0.1262
17071TIP3    H172704   5.618   0.174   0.805  1.3638 -0.3920  1.1184
17071TIP3    H272705   5.669   0.106   0.680  1.1655  0.1530  0.7390
17072TIP3   OH272706   6.326   3.869  12.254 -0.6279  0.1240  0.1486
17072TIP3    H172707   6.293   3.957  12.241 -0.5079  0.2829  0.8765
17072TIP3    H272708   6.378   3.850  12.176 -0.8762  0.5934 -0.1284
17073TIP3   OH272709   1.692   5.084   0.580  0.5081 -0.6653 -0.5229
17073TIP3    H172710   1.661   5.174   0.578 -0.4988 -0.9846 -0.0067
17073TIP3    H272711   1.662   5.046   0.497 -2.3037 -1.5169  0.7703
17074TIP3   OH272712   1.444   2.419  13.957  0.4078 -0.7769 -0.4724
17074TIP3    H172713   1.532   2.457  13.960  0.8029 -1.7497  0.7643
17074TIP3    H272714   1.456   2.334  13.915  0.1340 -1.1007  0.0980
17075TIP3   OH272715   2.100   5.281  13.864  0.2805  0.1907 -0.2343
17075TIP3    H172716   2.043   5.288  13.940 -0.3390  0.5977 -0.7220
17075TIP3    H272717   2.168   5.219  13.890 -1.4311 -1.8023 -0.2595
17076TIP3   OH272718   2.854   4.139  14.893 -0.0747 -0.3604 -0.3319
17076TIP3    H172719   2.918   4.074  14.923 -0.5141 -1.0952 -0.9427
17076TIP3    H272720   2.901   4.191  14.828  0.3294  0.0606  0.2794
17077TIP3   OH272721   5.976   0.769   3.520  0.5000 -0.3929 -0.2672
17077TIP3    H172722   5.911   0.754   3.589  0.8562 -0.5072  0.0486
17077TIP3    H272723   6.060   0.756   3.564  0.6972 -2.5315 -1.1958
17078TIP3   OH272724   5.745   0.052  17.033  0.8681  0.2836  0.0950
17078TIP3    H172725   5.737   0.142  17.063  0.1414 -0.6194  2.8521
17078TIP3    H272726   5.695   0.001  17.096  2.2514 -2.2034 -0.6936
17079TIP3   OH272727   6.593   2.176  11.329 -0.7826 -0.3535  0.3490
17079TIP3    H172728   6.600   2.122  11.408  2.6906  1.1648  1.3084
17079TIP3    H272729   6.552   2.257  11.359 -0.5713 -0.2407  0.3391
17080TIP3   OH272730   3.523   1.598  15.758  0.3268 -0.2378 -0.0505
17080TIP3    H172731   3.466   1.576  15.684  0.2317  2.0632 -0.7489
17080TIP3    H272732   3.555   1.686  15.738  0.7604  0.2237  2.3917
17081TIP3   OH272733   0.066   5.073  17.367 -0.8835 -0.0911  0.6830
17081TIP3    H172734   0.072   5.042  17.276  0.9576  0.4370  0.5842
17081TIP3    H272735   0.056   5.168  17.359 -1.2690 -0.1030  1.0261
17082TIP3   OH272736   6.483   6.433  12.421 -0.6006 -0.0255 -0.0298
17082TIP3    H172737   6.430   6.369  12.467 -1.2595  0.9758  0.6544
17082TIP3    H272738   6.450   6.518  12.451  0.2761  0.6403 -0.8610
17083TIP3   OH272739   1.170   3.196   3.038 -0.2523  0.3674 -0.6894
17083TIP3    H172740   1.112   3.202   2.963  1.1910 -0.6447 -1.9526
17083TIP3    H272741   1.207   3.107   3.032 -0.0753  0.2769  1.2047
17084TIP3   OH272742   0.518   6.413   2.709  0.2420 -0.5030 -0.0810
17084TIP3    H172743   0.428   6.382   2.694 -0.3427  1.8012 -1.9459
17084TIP3    H272744   0.507   6.498   2.751  1.4938  0.1275 -0.9709
17085TIP3   OH272745   2.055   3.699  15.808  0.0557  0.3717 -0.4692
17085TIP3    H172746   1.961   3.715  15.810 -0.1911 -1.0606  0.6312
17085TIP3    H272747   2.091   3.764  15.868 -0.3662  0.0955  0.0832
17086TIP3   OH272748   0.384   6.314   2.090 -0.1522  0.4214 -0.5244
17086TIP3    H172749   0.291   6.291   2.095  0.3995 -2.0476 -0.6290
17086TIP3    H272750   0.405   6.308   1.997  0.4695 -0.6421 -0.3259
17087TIP3   OH272751   3.549   5.495  12.743 -0.1573  0.4695 -1.2034
17087TIP3    H172752   3.572   5.501  12.650 -1.8113 -2.0019 -1.8627
17087TIP3    H272753   3.457   5.521  12.747 -0.0209  0.8477 -0.1886
17088TIP3   OH272754   4.334   3.202  16.003  0.5585  0.6497 -0.5132
17088TIP3    H172755   4.424   3.200  16.032  0.5889  0.0495 -0.6345
17088TIP3    H272756   4.291   3.130  16.050 -0.5328  2.5849  1.6488
17089TIP3   OH272757   1.564   0.178   4.367  0.2196  0.4774  0.2801
17089TIP3    H172758   1.638   0.192   4.309  0.1132 -2.6485 -0.8041
17089TIP3    H272759   1.599   0.127   4.441 -0.4860  0.6395  0.7448
17090TIP3   OH272760   4.264   2.680  13.542 -0.2051  0.0244 -0.0669
17090TIP3    H172761   4.325   2.685  13.616  0.5563  0.5596 -0.7123
17090TIP3    H272762   4.235   2.770  13.529 -1.0014 -0.1982  0.1160
17091TIP3   OH272763   3.001   2.440  12.017  0.3516  0.0569 -0.2803
17091TIP3    H172764   2.941   2.388  11.964  0.8002  1.9002 -2.7787
17091TIP3    H272765   3.077   2.383  12.030 -0.8275 -1.3544  0.6885
17092TIP3   OH272766   0.770   1.113   2.322  0.0508  0.5503 -0.0335
17092TIP3    H172767   0.839   1.146   2.380  0.1770  0.0694  0.0989
17092TIP3    H272768   0.787   1.019   2.317 -0.7056  0.3993  0.1532
17093TIP3   OH272769   4.006   4.853   5.489 -0.1267 -0.1066  0.6478
17093TIP3    H172770   4.034   4.875   5.400  0.5843 -0.5976  0.7415
17093TIP3    H272771   4.033   4.762   5.501  0.5820  0.2141  1.6676
17094TIP3   OH272772   2.241   1.960  11.481 -0.0787 -0.5635 -0.6857
17094TIP3    H172773   2.267   1.883  11.531 -0.1560 -0.1020  0.0788
17094TIP3    H272774   2.154   1.982  11.515  0.3142  0.3820 -0.2758
17095TIP3   OH272775   2.357   1.528  13.161 -0.1455 -0.2070  0.4762
17095TIP3    H172776   2.381   1.450  13.110 -1.2963 -0.4959  0.3458
17095TIP3    H272777   2.265   1.543  13.139 -0.1943  0.6399  1.2191
17096TIP3   OH272778   1.371   3.144   1.333  0.3182  0.1785  0.1963
17096TIP3    H172779   1.364   3.240   1.328  1.0259  0.2271  0.0474
17096TIP3    H272780   1.307   3.119   1.399  0.7763  0.8516  0.9205
17097TIP3   OH272781   1.023   6.698  15.740 -0.4871  0.2777 -0.0978
17097TIP3    H172782   1.057   6.743  15.663 -1.4997 -2.0445 -2.0644
17097TIP3    H272783   1.093   6.638  15.765  0.1979  1.6467  1.4497
17098TIP3   OH272784   4.817   5.690   2.161  0.0281  0.1162 -0.1212
17098TIP3    H172785   4.876   5.760   2.133  1.3819 -0.3552  1.4114
17098TIP3    H272786   4.848   5.612   2.115 -0.5651  0.2071 -0.6998
17099TIP3   OH272787   3.667   5.561  17.283 -0.0162 -0.6362  0.2925
17099TIP3    H172788   3.667   5.471  17.251  2.1848 -0.3669 -0.6330
17099TIP3    H272789   3.640   5.614  17.208  0.0109 -0.4091  0.4410
17100TIP3   OH272790   3.095   4.907  12.884 -0.2142 -0.0337 -0.2805
17100TIP3    H172791   3.118   4.954  12.964 -1.7411  0.7424 -0.2579
17100TIP3    H272792   3.011   4.945  12.857 -1.2956 -2.3997 -0.5283
17101TIP3   OH272793   1.927   0.654   2.214 -0.3383 -0.1446  0.3704
17101TIP3    H172794   1.851   0.597   2.201  0.3330 -1.0566  0.3259
17101TIP3    H272795   1.893   0.743   2.203 -1.4952 -0.5127  0.8384
17102TIP3   OH272796   5.388   3.922   3.389  0.4026  0.0414 -0.2576
17102TIP3    H172797   5.321   3.864   3.424 -0.3385  0.4067 -1.0209
17102TIP3    H272798   5.340   3.999   3.359  1.3822  1.1262  0.8552
17103TIP3   OH272799   3.485   1.331  16.607  0.5465  0.4466 -0.2915
17103TIP3    H172800   3.473   1.266  16.676 -0.4753  1.2898  0.3586
17103TIP3    H272801   3.422   1.305  16.540 -0.8653  1.5201  0.5688
17104TIP3   OH272802   2.977   3.300   0.424 -0.6169 -0.0882 -0.8761
17104TIP3    H172803   2.895   3.251   0.414 -1.9433  1.6659  0.5912
17104TIP3    H272804   3.001   3.287   0.516 -0.0946  0.6409 -0.9032
17105TIP3   OH272805   5.901   5.640  12.017 -0.0161 -0.0771  0.8197
17105TIP3    H172806   5.863   5.557  11.990 -0.2380  0.3926 -0.3701
17105TIP3    H272807   5.851   5.664  12.095  0.2923 -1.2140  1.3869
17106TIP3   OH272808   3.511   2.099   0.808 -0.4590 -0.5390 -0.0547
17106TIP3    H172809   3.471   2.013   0.795 -1.6739 -0.0737  0.4775
17106TIP3    H272810   3.438   2.161   0.801  0.3836  0.4463 -0.3428
17107TIP3   OH272811   1.278   2.090  11.073 -0.8283  0.3962  0.6450
17107TIP3    H172812   1.242   2.168  11.114 -2.0046 -0.9114  2.2209
17107TIP3    H272813   1.212   2.022  11.088 -0.2561 -0.7293 -1.4438
17108TIP3   OH272814   2.882   0.683  14.441 -0.1155  0.0604 -0.1863
17108TIP3    H172815   2.854   0.729  14.362  0.1329  0.7237  0.1040
17108TIP3    H272816   2.801   0.653  14.482 -0.3678  1.2732  0.2351
17109TIP3   OH272817   0.668   0.306  13.560  0.2025 -0.4775  0.1408
17109TIP3    H172818   0.758   0.317  13.529  0.7981 -1.0895  1.5530
17109TIP3    H272819   0.617   0.287  13.481  1.4775 -1.0812 -0.5566
17110TIP3   OH272820   6.420   1.735  11.446 -0.2563  0.5423  0.2472
17110TIP3    H172821   6.412   1.828  11.469 -2.1923  0.3003  0.7431
17110TIP3    H272822   6.434   1.691  11.530  1.2985  0.4226 -0.0566
17111TIP3   OH272823   1.891   4.175  16.702 -0.3517 -0.3206 -0.0709
17111TIP3    H172824   1.883   4.217  16.788  0.6658 -0.7991  0.2686
17111TIP3    H272825   1.855   4.087  16.715  1.8295 -1.1984  0.5052
17112TIP3   OH272826   0.732   2.366  13.178  0.2918  0.5476  0.0557
17112TIP3    H172827   0.727   2.458  13.205  1.1122  0.0330  2.1354
17112TIP3    H272828   0.640   2.339  13.169  0.0364  1.5847 -0.7875
17113TIP3   OH272829   1.399   5.187  16.439 -0.4440  0.5239 -0.4896
17113TIP3    H172830   1.458   5.255  16.471 -2.1696  0.7847  2.4131
17113TIP3    H272831   1.318   5.234  16.417 -1.3119 -0.4182  0.5918
17114TIP3   OH272832   2.627   1.912   2.217 -0.4754  0.6070 -0.0334
17114TIP3    H172833   2.537   1.920   2.185 -1.0009  0.3805  1.3416
17114TIP3    H272834   2.619   1.867   2.301  1.0925 -0.9893 -0.6841
17115TIP3   OH272835   6.508   1.557   6.575 -0.2467  0.5529 -0.0702
17115TIP3    H172836   6.554   1.532   6.655  1.1562 -2.9999 -1.7580
17115TIP3    H272837   6.527   1.650   6.565  2.4152  0.3476  1.9615
17116TIP3   OH272838   5.174   1.090   3.989 -0.4393 -0.1724 -0.5731
17116TIP3    H172839   5.206   1.144   3.917  0.8403 -1.1924 -0.8192
17116TIP3    H272840   5.254   1.057   4.031 -1.1524  0.4695  1.3862
17117TIP3   OH272841   1.623   6.646   2.169 -0.0618 -0.4050 -0.2203
17117TIP3    H172842   1.639   6.733   2.205  0.9310  0.6507 -2.9541
17117TIP3    H272843   1.528   6.635   2.173 -0.2424  0.9894 -0.1854
17118TIP3   OH272844   0.415   5.289   5.449  0.3681  0.3676 -0.3585
17118TIP3    H172845   0.345   5.267   5.387  0.7270 -0.9938 -0.3167
17118TIP3    H272846   0.412   5.385   5.456 -0.8209  0.4061 -1.1284
17119TIP3   OH272847   6.470   0.411   2.523 -0.2532 -0.0776 -0.8148
17119TIP3    H172848   6.527   0.403   2.447  0.1979 -1.4715 -0.3524
17119TIP3    H272849   6.528   0.440   2.593 -0.5140  0.4188 -0.7982
17120TIP3   OH272850   5.836   4.912  16.729 -0.5373 -0.2651 -0.2040
17120TIP3    H172851   5.830   4.853  16.654  1.8717  0.5112 -1.1269
17120TIP3    H272852   5.890   4.864  16.792 -1.8273 -0.5681  0.6852
17121TIP3   OH272853   1.925   4.515  15.748 -0.6181  0.1002 -0.4408
17121TIP3    H172854   1.980   4.518  15.670  0.0922 -1.9940 -0.0733
17121TIP3    H272855   1.883   4.429  15.745 -1.4982  0.4477  0.8839
17122TIP3   OH272856   4.303   1.764  16.357  0.3197 -0.1187  0.1290
17122TIP3    H172857   4.352   1.709  16.296 -0.8829 -0.3331 -0.6741
17122TIP3    H272858   4.277   1.840  16.306  0.1868  0.2076  0.6695
17123TIP3   OH272859   4.113   4.035   1.853 -0.1617  0.4084  0.1133
17123TIP3    H172860   4.081   4.021   1.764 -1.0078  1.2335  0.2710
17123TIP3    H272861   4.207   4.019   1.847 -0.0873  1.1561 -1.0891
17124TIP3   OH272862   3.499   0.678  16.894  0.1261 -0.6064  0.2018
17124TIP3    H172863   3.470   0.595  16.856 -0.5851 -0.7637  1.0482
17124TIP3    H272864   3.561   0.652  16.962  0.6650 -0.3811 -0.1965
17125TIP3   OH272865   2.429   3.793   2.416  0.2726 -0.0162  0.4337
17125TIP3    H172866   2.503   3.785   2.356  0.0981 -0.6224  0.2914
17125TIP3    H272867   2.357   3.748   2.372 -1.5479  4.1897 -1.5338
17126TIP3   OH272868   2.858   1.979  11.989  0.4167  0.9134  0.1539
17126TIP3    H172869   2.848   1.892  11.949  0.2715  0.1608  1.7685
17126TIP3    H272870   2.884   2.035  11.916 -2.4246  0.1882 -1.5860
17127TIP3   OH272871   3.541   1.330   6.162  0.2891 -0.1292 -0.3766
17127TIP3    H172872   3.538   1.248   6.212  0.3123 -1.1721 -2.0309
17127TIP3    H272873   3.452   1.366   6.169  0.0718 -0.6866 -0.2788
17128TIP3   OH272874   3.928   5.818  12.518  0.0335  0.3927  0.2131
17128TIP3    H172875   3.868   5.893  12.519  0.7340  0.9644  0.6597
17128TIP3    H272876   3.884   5.752  12.571 -0.2063  0.8046  0.5409
17129TIP3   OH272877   2.931   6.672  14.988  0.2565 -0.1658  0.1348
17129TIP3    H172878   2.908   6.736  15.056  2.6969  1.2276 -0.2243
17129TIP3    H272879   3.011   6.631  15.020  1.4391  0.4767 -1.7859
17130TIP3   OH272880   5.019   0.871   2.513  0.0479 -0.4121  0.5059
17130TIP3    H172881   5.106   0.830   2.513 -0.0547 -0.6435  1.5271
17130TIP3    H272882   4.978   0.842   2.595 -1.3536 -1.0392 -0.3762
17131TIP3   OH272883   4.749   1.760  17.195 -0.6336 -0.0885  0.0697
17131TIP3    H172884   4.810   1.832  17.177 -0.5261 -0.3427 -0.5940
17131TIP3    H272885   4.804   1.682  17.201 -0.9097 -0.3558 -0.7531
17132TIP3   OH272886   2.906   2.627  16.165  0.0320 -0.3404 -0.0443
17132TIP3    H172887   2.893   2.609  16.258 -1.1696  1.8548  0.2690
17132TIP3    H272888   2.835   2.687  16.141 -0.3142 -1.6520 -2.6627
17133TIP3   OH272889   0.677   1.894   0.350 -0.3598  0.5540  0.2185
17133TIP3    H172890   0.620   1.942   0.411 -0.1508  1.2336 -0.1071
17133TIP3    H272891   0.715   1.962   0.295  0.4723  0.0676  0.1781
17134TIP3   OH272892   1.778   2.044   4.548 -0.1469 -0.4935 -0.0676
17134TIP3    H172893   1.789   1.949   4.547 -0.9083 -0.5872 -0.6908
17134TIP3    H272894   1.783   2.070   4.456 -2.8031 -0.3231 -0.2529
17135TIP3   OH272895   0.708   5.366   5.643  0.6433 -0.1722 -0.4524
17135TIP3    H172896   0.767   5.388   5.571  0.6892  0.2932 -0.2723
17135TIP3    H272897   0.632   5.325   5.601 -0.9805  3.2100 -1.1601
17136TIP3   OH272898   4.057   4.059   3.836 -0.3827 -0.1026 -0.5519
17136TIP3    H172899   4.107   4.139   3.852  3.2110 -2.3302  0.4630
17136TIP3    H272900   4.109   4.010   3.773 -2.0990 -1.9700 -0.6081
17137TIP3   OH272901   3.854   0.889  13.343 -0.1206 -0.7605 -0.1857
17137TIP3    H172902   3.838   0.796  13.327 -3.1575 -0.5564  1.0195
17137TIP3    H272903   3.781   0.934  13.301  0.2301  0.9277  0.9029
17138TIP3   OH272904   3.454   5.352   5.238 -0.2742  0.1357  0.6842
17138TIP3    H172905   3.408   5.407   5.174  0.0008  0.0356  0.3942
17138TIP3    H272906   3.400   5.355   5.316 -0.6615  0.1950  0.4181
17139TIP3   OH272907   6.169   6.342   1.004  0.8897  0.0558  0.1485
17139TIP3    H172908   6.219   6.392   1.068  1.8513  1.9471 -1.9332
17139TIP3    H272909   6.227   6.335   0.928 -0.4719 -1.3727 -0.8306
17140TIP3   OH272910   1.826   4.667  13.755  0.3377 -0.2200 -0.3006
17140TIP3    H172911   1.785   4.748  13.725 -0.4577 -0.1477  0.9232
17140TIP3    H272912   1.774   4.597  13.715 -0.0818 -0.1202  0.0594
17141TIP3   OH272913   0.806   1.213  15.181  0.0550 -0.8410  0.2324
17141TIP3    H172914   0.776   1.123  15.186  1.2014 -1.2363  0.2753
17141TIP3    H272915   0.897   1.207  15.153  0.7404  0.1887  2.0128
17142TIP3   OH272916   1.361   4.933  13.554  0.2378 -0.0433 -0.4354
17142TIP3    H172917   1.443   4.982  13.558  0.5902 -0.1911 -3.4749
17142TIP3    H272918   1.378   4.852  13.602  0.9984  0.9924  1.1093
17143TIP3   OH272919   6.797   4.952   0.380  0.3182 -0.9021 -0.3188
17143TIP3    H172920   6.801   5.048   0.380  1.1609 -0.9310 -1.1146
17143TIP3    H272921   6.745   4.930   0.303  0.9067 -1.1109 -0.6592
17144TIP3   OH272922   1.869   2.736  14.355 -0.0362 -0.1077  0.2879
17144TIP3    H172923   1.833   2.722  14.268  1.6967 -1.4623 -0.2912
17144TIP3    H272924   1.826   2.671  14.410  0.6171 -0.8981 -0.1207
17145TIP3   OH272925   6.125   5.166  12.120 -0.1528  0.4412  0.2068
17145TIP3    H172926   6.076   5.156  12.038  0.3056  0.3104 -0.0522
17145TIP3    H272927   6.216   5.155  12.095 -0.0883 -0.8406  0.9269
17146TIP3   OH272928   1.664   5.146   3.738  0.1164 -0.1738 -0.2026
17146TIP3    H172929   1.745   5.104   3.765  0.8789  0.9083 -0.7786
17146TIP3    H272930   1.615   5.077   3.693  1.5508 -0.3544 -1.5395
17147TIP3   OH272931   1.380   6.355  16.952 -0.2153 -0.3737  0.5470
17147TIP3    H172932   1.390   6.447  16.975 -0.5179 -0.3379  0.5474
17147TIP3    H272933   1.469   6.321  16.947 -0.1271 -0.2881  1.3714
17148TIP3   OH272934   1.074   6.119   5.291 -0.4715  0.3583  0.3844
17148TIP3    H172935   1.072   6.167   5.208  1.4144  0.0339  0.1066
17148TIP3    H272936   1.027   6.176   5.353 -0.0965  1.5764 -0.4181
17149TIP3   OH272937   3.677   5.788   3.868  0.4830 -0.7408  0.7404
17149TIP3    H172938   3.753   5.734   3.890  1.3095 -0.3816 -1.0372
17149TIP3    H272939   3.713   5.876   3.855 -0.1405 -0.6447 -0.5195
17150TIP3   OH272940   6.121   2.837   4.935 -0.3832  0.1113 -0.4184
17150TIP3    H172941   6.181   2.872   4.868  2.3991 -1.2943  1.1474
17150TIP3    H272942   6.172   2.839   5.016 -2.3711 -1.5170  0.9751
17151TIP3   OH272943   1.232   6.208   6.103  0.0673  0.4728  0.4621
17151TIP3    H172944   1.176   6.154   6.158  1.7562 -0.4164  1.3908
17151TIP3    H272945   1.302   6.148   6.074  1.2320  1.8234  0.3774
17152TIP3   OH272946   0.433   2.975   6.193  0.0677 -0.1537  0.5084
17152TIP3    H172947   0.450   2.910   6.261 -0.7148  0.2753  1.1334
17152TIP3    H272948   0.518   3.016   6.176 -0.0758  1.2172  2.7777
17153TIP3   OH272949   5.275   3.664  16.874  0.0854  0.6244 -0.1679
17153TIP3    H172950   5.361   3.646  16.834  0.9425  2.8164  0.5432
17153TIP3    H272951   5.237   3.732  16.819 -0.1948  1.2848  0.8213
17154TIP3   OH272952   1.516   3.454   1.452 -0.3916  0.1267  0.3445
17154TIP3    H172953   1.535   3.443   1.545 -0.8491  1.0274  0.5610
17154TIP3    H272954   1.426   3.486   1.450 -0.7105 -0.7911 -0.4672
17155TIP3   OH272955   2.195   5.967  14.112  0.1848 -0.0471  0.0531
17155TIP3    H172956   2.191   5.878  14.077 -1.3870  0.8041 -2.0744
17155TIP3    H272957   2.110   5.981  14.153 -0.7823  1.4421 -2.2812
17156TIP3   OH272958   2.460   4.194   1.208 -0.1346 -0.6483  0.1908
17156TIP3    H172959   2.456   4.108   1.165 -0.3517  0.3748 -1.9747
17156TIP3    H272960   2.417   4.253   1.147  0.4913  1.1163  1.3822
17157TIP3   OH272961   1.924   4.404  14.380 -0.0646 -0.2330 -0.3228
17157TIP3    H172962   1.850   4.360  14.421 -1.2138  0.7856 -1.2417
17157TIP3    H272963   1.888   4.486  14.347  1.4168  0.1660 -1.0276
17158TIP3   OH272964   4.980   6.209   4.912 -0.6380  0.0336  0.4067
17158TIP3    H172965   4.897   6.167   4.889  0.1813 -1.9819  0.9521
17158TIP3    H272966   5.047   6.156   4.869  0.4523  0.8155  1.0930
17159TIP3   OH272967   5.890   1.533   1.139  0.3153 -0.2651 -0.2749
17159TIP3    H172968   5.874   1.570   1.052 -0.0963  0.0351 -0.0761
17159TIP3    H272969   5.804   1.503   1.168  0.2961  0.3808  0.3625
17160TIP3   OH272970   1.659   5.398  15.274  0.4128  0.2538 -0.2621
17160TIP3    H172971   1.582   5.437  15.233  0.4328  0.3261 -0.2311
17160TIP3    H272972   1.693   5.466  15.332 -0.2380 -0.2191  0.7018
17161TIP3   OH272973   5.858   1.059  13.754  0.1271  0.1990 -0.0672
17161TIP3    H172974   5.791   1.031  13.816 -1.0348  2.1890 -0.3373
17161TIP3    H272975   5.876   0.982  13.701 -2.7771 -0.1322 -0.7167
17162TIP3   OH272976   1.696   5.744  14.652 -0.4975 -0.1214  0.1558
17162TIP3    H172977   1.707   5.724  14.745 -0.7249  1.0449  0.4452
17162TIP3    H272978   1.645   5.824  14.650 -1.7919 -0.9254 -1.0102
17163TIP3   OH272979   2.747   4.022   2.203 -0.1435 -0.3137  0.4224
17163TIP3    H172980   2.700   3.945   2.169  1.5538 -1.7939  1.2651
17163TIP3    H272981   2.816   4.037   2.139 -0.3355  0.4001  0.3785
17164TIP3   OH272982   5.552   1.972   1.055 -0.2558  0.2384 -0.2097
17164TIP3    H172983   5.556   1.877   1.054 -0.4824  0.2310 -0.5205
17164TIP3    H272984   5.613   1.998   1.124 -0.0352 -0.1229 -0.2674
17165TIP3   OH272985   5.008   0.582  14.068 -0.2682  0.4571  0.5214
17165TIP3    H172986   4.983   0.642  14.138 -0.7375 -0.5284  1.2288
17165TIP3    H272987   5.032   0.501  14.114  1.5771  0.4862 -0.3122
17166TIP3   OH272988   0.094   1.753   3.515 -0.2177 -0.1914  0.5156
17166TIP3    H172989   0.009   1.784   3.546 -0.8005 -1.2843  0.0911
17166TIP3    H272990   0.116   1.810   3.442 -0.0067  0.8426  1.3572
17167TIP3   OH272991   6.284   4.746  11.857 -0.2421 -0.5280 -0.6915
17167TIP3    H172992   6.341   4.815  11.822 -1.7160  0.7808 -0.6285
17167TIP3    H272993   6.198   4.765  11.819 -1.2812 -0.7403  1.4229
17168TIP3   OH272994   0.627   2.379  11.808  0.1202 -0.2218  0.5456
17168TIP3    H172995   0.593   2.466  11.826 -0.9911 -0.6831  0.7770
17168TIP3    H272996   0.583   2.323  11.872  0.3782 -1.0362  0.0233
17169TIP3   OH272997   2.106   0.203  13.092 -0.3916 -0.1509  0.3792
17169TIP3    H172998   2.065   0.235  13.011 -0.2256  0.3129  0.4719
17169TIP3    H272999   2.098   0.108  13.087  0.7868 -0.2080 -0.8029
17170TIP3   OH273000   4.512   3.287  15.811  0.1235  0.2169 -1.3854
17170TIP3    H173001   4.434   3.334  15.783  0.0326  1.0588  0.2046
17170TIP3    H273002   4.502   3.276  15.905  1.7163 -0.0515 -1.2154
17171TIP3   OH273003   2.292   5.172   5.955  1.0072 -0.0190  0.4010
17171TIP3    H173004   2.271   5.246   5.899 -2.7869 -0.7974  0.5406
17171TIP3    H273005   2.272   5.203   6.044  2.3731 -0.2892  0.8246
17172TIP3   OH273006   2.716   5.601  12.495 -1.0636  0.8899  0.0351
17172TIP3    H173007   2.755   5.515  12.514 -0.4177  1.1673 -0.0199
17172TIP3    H273008   2.791   5.657  12.474 -1.5512  1.2506 -0.7602
17173TIP3   OH273009   2.659   1.590   5.232  0.6907  0.3951 -0.0827
17173TIP3    H173010   2.639   1.589   5.325 -1.9478 -1.5598 -0.5411
17173TIP3    H273011   2.630   1.677   5.203  0.7436  0.7108  0.7790
17174TIP3   OH273012   1.295   0.050  13.720 -0.0119  0.3426  0.2089
17174TIP3    H173013   1.288   0.102  13.640 -1.2007 -1.7857 -1.1335
17174TIP3    H273014   1.389   0.053  13.742  0.7738 -0.7873 -2.5238
17175TIP3   OH273015   0.684   2.606  12.161 -0.0534 -0.4520 -0.4384
17175TIP3    H173016   0.634   2.639  12.086 -2.3065 -0.8829  0.7850
17175TIP3    H273017   0.763   2.568  12.122  0.4549  2.2516 -2.2746
17176TIP3   OH273018   6.007   4.209   2.468 -0.3487  0.7305 -0.2323
17176TIP3    H173019   5.969   4.167   2.390 -1.7835  1.5655 -0.0268
17176TIP3    H273020   6.067   4.274   2.433 -1.3906  1.4746 -0.6846
17177TIP3   OH273021   0.866   0.132  15.827 -0.3424  0.2015  0.1709
17177TIP3    H173022   0.892   0.151  15.918 -0.6925 -0.1540  0.3473
17177TIP3    H273023   0.921   0.059  15.801  1.6760  1.9537 -0.8279
17178TIP3   OH273024   3.920   5.019  16.535  0.3249  0.3328 -0.4598
17178TIP3    H173025   3.911   4.971  16.453  1.1163  0.1824 -0.4579
17178TIP3    H273026   3.829   5.034  16.563  0.0322 -1.8065 -0.0834
17179TIP3   OH273027   3.089   2.212  15.570 -0.1243 -0.0908  0.3645
17179TIP3    H173028   3.174   2.211  15.613  0.2765 -2.6181 -0.3468
17179TIP3    H273029   3.026   2.195  15.641 -0.0620  1.3425  0.8107
17180TIP3   OH273030   4.895   3.253  15.806 -0.1925  0.1588 -0.3785
17180TIP3    H173031   4.854   3.174  15.840 -0.1676 -0.4889 -1.7763
17180TIP3    H273032   4.833   3.286  15.740  0.9447 -0.1641 -1.6579
17181TIP3   OH273033   6.558   4.734   3.812 -0.2216  0.1989 -0.0210
17181TIP3    H173034   6.604   4.715   3.731 -0.4232  2.1188 -0.6376
17181TIP3    H273035   6.619   4.788   3.862 -1.1377  1.3433 -0.1084
17182TIP3   OH273036   3.402   2.454   0.311  0.1203  0.6157  0.0627
17182TIP3    H173037   3.390   2.544   0.282 -1.9406  0.5808  0.6865
17182TIP3    H273038   3.444   2.411   0.237 -0.9698  1.5555 -1.1457
17183TIP3   OH273039   5.492   3.628   5.808 -0.0937 -0.0780 -0.0811
17183TIP3    H173040   5.550   3.648   5.882 -0.1686 -1.8784  0.5208
17183TIP3    H273041   5.405   3.620   5.847 -0.4588  0.8012 -0.6851
17184TIP3   OH273042   6.655   6.572  13.560  0.5073 -0.2242 -0.0776
17184TIP3    H173043   6.644   6.495  13.616  0.8156 -0.1208  0.1275
17184TIP3    H273044   6.746   6.599  13.573  0.5260 -0.0799 -0.4771
17185TIP3   OH273045   3.015   6.146  16.672 -0.3209  0.1178 -0.6799
17185TIP3    H173046   3.019   6.130  16.577 -0.6215 -1.0948 -0.5114
17185TIP3    H273047   2.954   6.218  16.682 -1.4410 -0.7078 -1.3259
17186TIP3   OH273048   3.352   2.317   3.183 -0.0794  0.2006  0.4958
17186TIP3    H173049   3.408   2.282   3.113 -0.5346  0.2237  0.1228
17186TIP3    H273050   3.411   2.371   3.236 -0.0645  1.4840 -0.7745
17187TIP3   OH273051   2.796   0.941   0.182 -0.3520  0.0655  0.1358
17187TIP3    H173052   2.783   0.911   0.092  2.3090 -0.3890 -0.1671
17187TIP3    H273053   2.799   0.860   0.233 -2.0848  0.3300  0.7261
17188TIP3   OH273054   3.595   4.308  15.174 -0.4668 -0.1776 -0.2566
17188TIP3    H173055   3.581   4.385  15.229 -2.5881 -0.5780 -0.1187
17188TIP3    H273056   3.668   4.261  15.215 -0.7343  0.5290  1.0857
17189TIP3   OH273057   4.130   6.299   5.391 -0.6282  0.0482 -0.4430
17189TIP3    H173058   4.047   6.346   5.391  0.2206  1.6228 -0.0724
17189TIP3    H273059   4.170   6.322   5.307  0.9297  2.1899  0.7813
17190TIP3   OH273060   2.580   6.419  13.678 -0.4355  0.6714 -0.2155
17190TIP3    H173061   2.617   6.444  13.593  1.5821 -1.0000  0.1023
17190TIP3    H273062   2.596   6.495  13.734 -1.8516  1.8266 -1.2612
17191TIP3   OH273063   5.267   2.741  12.617 -0.0327  0.0409  0.0446
17191TIP3    H173064   5.359   2.762  12.632  0.3902 -0.2771 -1.8409
17191TIP3    H273065   5.221   2.824  12.628  0.3383  0.0436  1.8163
17192TIP3   OH273066   1.575   4.416  15.967  0.5583 -0.0637 -0.1111
17192TIP3    H173067   1.573   4.339  16.024  1.8357  0.3856  0.5828
17192TIP3    H273068   1.654   4.463  15.993 -1.6911  3.1506  1.6835
17193TIP3   OH273069   4.353   3.155   3.887 -0.1500 -0.1406 -0.2169
17193TIP3    H173070   4.418   3.225   3.895 -1.1853  0.7699  0.6293
17193TIP3    H273071   4.397   3.077   3.919  0.4780  0.4978  0.5167
17194TIP3   OH273072   3.671   4.852  14.799  0.0918 -0.3930  0.6851
17194TIP3    H173073   3.594   4.846  14.855  0.0340 -0.9831  0.5442
17194TIP3    H273074   3.655   4.790  14.728 -0.8631  1.9128 -1.2552
17195TIP3   OH273075   2.968   2.552  12.673 -0.2114  0.5017  0.0928
17195TIP3    H173076   2.908   2.603  12.727  1.1783  2.1760  0.1417
17195TIP3    H273077   2.921   2.538  12.591 -2.1434 -1.6113  1.4487
17196TIP3   OH273078   5.722   4.543  15.235 -0.0479 -0.5288  0.0383
17196TIP3    H173079   5.691   4.545  15.325 -1.3658 -2.4045 -0.3272
17196TIP3    H273080   5.808   4.501  15.240 -0.2781 -0.9590  0.3675
17197TIP3   OH273081   2.447   3.373   2.210 -0.4079  0.4693  0.5739
17197TIP3    H173082   2.512   3.374   2.140 -0.6531  0.0036  0.3418
17197TIP3    H273083   2.388   3.445   2.189 -0.3978  0.4220  0.3851
17198TIP3   OH273084   5.174   1.214  14.981  0.5162  0.3661  0.4984
17198TIP3    H173085   5.249   1.159  15.001 -1.2407 -1.5262  2.3243
17198TIP3    H273086   5.161   1.205  14.886  3.1047  1.5787 -0.0675
17199TIP3   OH273087   5.858   0.838   1.392  0.3057  0.2159 -0.6413
17199TIP3    H173088   5.951   0.854   1.411  0.8359 -1.9275 -1.1882
17199TIP3    H273089   5.818   0.822   1.477  0.9745 -1.2452 -0.5708
17200TIP3   OH273090   1.700   2.691  16.076 -0.8012  0.1436 -0.0447
17200TIP3    H173091   1.778   2.649  16.113  0.4631  1.6263 -0.9213
17200TIP3    H273092   1.635   2.685  16.146  0.7227  0.6224  1.4883
17201TIP3   OH273093   1.592   3.176   0.157 -0.3676 -0.1720 -0.1734
17201TIP3    H173094   1.575   3.082   0.171  0.7690 -0.1561  1.6361
17201TIP3    H273095   1.537   3.220   0.222  0.2177  0.3140  0.0028
17202TIP3   OH273096   5.196   0.895   4.362 -0.7451 -0.1243  0.8006
17202TIP3    H173097   5.254   0.962   4.398 -0.1400 -1.0728  1.6648
17202TIP3    H273098   5.206   0.904   4.267  1.9888 -1.1674  0.8925
17203TIP3   OH273099   5.878   2.072  11.595  0.2874 -0.2734  0.0423
17203TIP3    H173100   5.911   2.005  11.654  2.4437  0.4478 -0.2599
17203TIP3    H273101   5.802   2.109  11.640 -0.3054 -2.1765  0.6722
17204TIP3   OH273102   3.871   0.203   4.780  0.5034 -0.1553  0.0054
17204TIP3    H173103   3.799   0.148   4.749  0.8550 -1.8599  2.0071
17204TIP3    H273104   3.933   0.206   4.707 -0.0015 -1.5962 -0.4968
17205TIP3   OH273105   5.091   5.940   5.118 -0.1170  0.7695 -0.1753
17205TIP3    H173106   5.097   5.860   5.171  1.5297  0.9677 -0.0089
17205TIP3    H273107   5.043   5.913   5.040 -2.3978  0.4031  1.2621
17206TIP3   OH273108   5.677   4.040   3.902  0.7805  0.1122  0.5382
17206TIP3    H173109   5.708   3.975   3.839 -0.4345  0.2650 -0.2578
17206TIP3    H273110   5.584   4.048   3.884  0.0741 -0.8388  3.2826
17207TIP3   OH273111   1.372   5.478   0.408 -0.2488 -0.0511 -0.0106
17207TIP3    H173112   1.291   5.506   0.451  0.0914  0.2386  0.4404
17207TIP3    H273113   1.360   5.504   0.316  0.1635  1.8266  0.4405
17208TIP3   OH273114   4.585   2.187  11.832 -0.1840  0.6823  0.0493
17208TIP3    H173115   4.638   2.140  11.768 -1.9831 -0.4015 -0.7289
17208TIP3    H273116   4.604   2.144  11.915  0.5682  0.6905 -0.1121
17209TIP3   OH273117   6.337   3.206   4.553 -0.1377 -0.0958  0.2004
17209TIP3    H173118   6.245   3.181   4.563  0.2149 -1.4468  0.3256
17209TIP3    H273119   6.346   3.286   4.603 -0.8691 -0.8841  1.6539
17210TIP3   OH273120   3.562   0.284  13.042  0.4401  0.3416  0.2001
17210TIP3    H173121   3.519   0.353  13.094 -1.9935  0.4921 -1.8149
17210TIP3    H273122   3.628   0.331  12.991 -0.3855  1.0339 -0.2726
17211TIP3   OH273123   4.369   6.243  15.868 -0.2793  0.5835 -1.0277
17211TIP3    H173124   4.284   6.240  15.825 -0.9662  0.7868  0.3017
17211TIP3    H273125   4.397   6.151  15.871 -0.8677  0.4149 -0.6488
17212TIP3   OH273126   6.076   3.708  17.121 -0.7233  0.0754  0.1421
17212TIP3    H173127   6.138   3.645  17.084 -0.3727  0.7448 -0.4421
17212TIP3    H273128   5.990   3.678  17.091 -0.5732 -0.1751 -0.0429
17213TIP3   OH273129   4.948   3.067  17.169  0.8009 -0.7991 -0.4377
17213TIP3    H173130   4.878   3.007  17.142  0.7328 -1.4968  1.2172
17213TIP3    H273131   4.904   3.152  17.176 -0.1344 -1.3833  1.3993
17214TIP3   OH273132   1.095   0.081  11.779 -0.7063 -0.2142  0.3036
17214TIP3    H173133   1.001   0.082  11.796 -0.7984 -0.8190 -0.1199
17214TIP3    H273134   1.103   0.038  11.694 -0.0588  0.0094  0.2457
17215TIP3   OH273135   5.088   2.981  12.947  0.3633 -0.3470  0.7391
17215TIP3    H173136   5.096   3.044  13.018  3.9233 -0.1446  0.3163
17215TIP3    H273137   5.099   2.895  12.989 -1.1850 -0.5303  0.8475
17216TIP3   OH273138   0.733   3.698   4.925  0.0484  0.1291  0.6107
17216TIP3    H173139   0.685   3.667   4.848 -1.6763  0.5295  1.4845
17216TIP3    H273140   0.671   3.692   4.997  1.1737  1.0993  1.7187
17217TIP3   OH273141   3.831   1.636   6.429 -0.3368  0.9002  0.3046
17217TIP3    H173142   3.736   1.638   6.434 -0.3341 -0.0359  0.9718
17217TIP3    H273143   3.859   1.599   6.513  0.5050 -0.9608 -0.7325
17218TIP3   OH273144   1.963   1.630   5.172 -0.1613 -1.1069  0.0599
17218TIP3    H173145   2.009   1.688   5.233 -0.7385 -0.2989 -0.2451
17218TIP3    H273146   2.005   1.545   5.183  0.9395 -0.5578  0.2822
17219TIP3   OH273147   3.019   2.145  11.377 -0.4004 -0.4294 -0.5029
17219TIP3    H173148   3.095   2.095  11.347 -0.2305 -0.1936 -0.4715
17219TIP3    H273149   2.947   2.112  11.325 -0.1171 -0.0637 -1.1391
17220TIP3   OH273150   0.473   6.254  11.177 -0.3337  0.5338  0.5835
17220TIP3    H173151   0.563   6.223  11.187  0.3307  2.5297  1.2349
17220TIP3    H273152   0.433   6.191  11.117  1.5150 -0.3529  0.1921
17221TIP3   OH273153   6.391   2.722  16.423 -0.3473 -0.2614 -0.0964
17221TIP3    H173154   6.467   2.666  16.435 -0.9121 -0.9286  0.4875
17221TIP3    H273155   6.363   2.743  16.513 -0.7140  0.1701 -0.3051
17222TIP3   OH273156   6.111   2.472  16.903 -0.1453 -0.3006 -0.2054
17222TIP3    H173157   6.154   2.387  16.897 -2.9543 -2.0493  1.7877
17222TIP3    H273158   6.151   2.513  16.980  2.1328  0.8950 -1.9087
17223TIP3   OH273159   5.591   2.376  17.039  0.6645  0.5898 -0.1366
17223TIP3    H173160   5.599   2.467  17.013 -0.4972  0.8205  0.2078
17223TIP3    H273161   5.524   2.377  17.108  0.8999 -0.4754  0.1311
17224TIP3   OH273162   1.610   0.643   5.537  0.0635 -0.5937 -0.1844
17224TIP3    H173163   1.570   0.632   5.451  1.2567 -0.3195 -0.7915
17224TIP3    H273164   1.649   0.730   5.535 -0.7706 -0.1660  1.0208
17225TIP3   OH273165   3.766   2.136  16.358 -0.4647  0.1519 -0.4334
17225TIP3    H173166   3.738   2.227  16.345  1.8990  1.2133  1.1918
17225TIP3    H273167   3.758   2.122  16.452  2.0255 -0.2327 -0.2247
17226TIP3   OH273168   2.437   0.307   4.863  0.4134 -0.4855 -0.3049
17226TIP3    H173169   2.410   0.362   4.789 -2.1891  0.6686  1.3595
17226TIP3    H273170   2.439   0.218   4.827 -0.0711  0.1206 -1.9321
17227TIP3   OH273171   4.898   3.372   0.295 -0.3029 -0.4278  0.7738
17227TIP3    H173172   4.865   3.431   0.363  3.3420  0.6144  1.8443
17227TIP3    H273173   4.890   3.285   0.333  0.3418  0.0111  1.9480
17228TIP3   OH273174   2.467   0.384  15.525 -0.4129 -0.5467 -0.0612
17228TIP3    H173175   2.423   0.385  15.610  0.4242 -0.3334  0.3802
17228TIP3    H273176   2.495   0.294  15.513  0.9743 -0.2507  0.7044
17229TIP3   OH273177   5.355   2.803   5.822  0.1701  0.0363 -0.2418
17229TIP3    H173178   5.305   2.773   5.898  1.1137  0.9315  0.7739
17229TIP3    H273179   5.446   2.795   5.849  0.5857 -0.8182 -1.7704
17230TIP3   OH273180   1.714   2.184  13.708 -0.6220 -0.5221  0.6559
17230TIP3    H173181   1.662   2.201  13.630  0.7958  0.1860 -0.1882
17230TIP3    H273182   1.718   2.269  13.753 -0.7750 -0.7379  1.0817
17231TIP3   OH273183   4.133   5.708  15.760  0.5672 -0.1148 -0.0211
17231TIP3    H173184   4.146   5.618  15.790  2.7126  0.8313  2.3023
17231TIP3    H273185   4.167   5.710  15.671  2.1101 -1.2550  0.5131
17232TIP3   OH273186   3.509   2.180  13.683  0.6098  0.1868  0.4789
17232TIP3    H173187   3.589   2.173  13.734 -0.0910  1.4993  1.8215
17232TIP3    H273188   3.511   2.269  13.646 -0.4795  0.4492  1.0049
17233TIP3   OH273189   1.791   2.763  11.646  0.0973  0.5916 -0.4439
17233TIP3    H173190   1.730   2.722  11.707  0.5858 -2.0505 -1.5961
17233TIP3    H273191   1.837   2.829  11.698  0.4643 -1.5113  2.0635
17234TIP3   OH273192   5.488   0.281  14.097 -0.3971  0.4072 -1.1477
17234TIP3    H173193   5.422   0.338  14.057 -1.4272  0.3796  0.4217
17234TIP3    H273194   5.548   0.261  14.025 -1.7381  0.9453 -2.4949
17235TIP3   OH273195   6.562   3.549  17.182  0.3213 -0.2168 -0.3038
17235TIP3    H173196   6.627   3.586  17.242 -1.1040  0.2403  1.0059
17235TIP3    H273197   6.603   3.468  17.151  1.6385  0.1969  0.2458
17236TIP3   OH273198   2.439   6.486   3.583  0.1837  0.2786 -0.0636
17236TIP3    H173199   2.379   6.414   3.566  0.3807  0.2080 -0.4670
17236TIP3    H273200   2.407   6.525   3.665  2.1029 -2.3901  2.1414
17237TIP3   OH273201   0.482   0.529  12.859 -0.0531  0.2919  0.4893
17237TIP3    H173202   0.415   0.518  12.792  1.5913 -0.2300 -1.1923
17237TIP3    H273203   0.494   0.624  12.867  0.7192  0.3649 -1.0958
17238TIP3   OH273204   1.741   2.650   1.658  0.4899 -0.1375  0.1458
17238TIP3    H173205   1.754   2.740   1.689 -2.1636  0.4586 -0.2186
17238TIP3    H273206   1.648   2.646   1.636  0.7734 -2.6814 -0.8775
17239TIP3   OH273207   5.235   0.152  15.933 -0.4881  0.0931 -0.9982
17239TIP3    H173208   5.159   0.124  15.983  0.4889 -2.1775 -0.6428
17239TIP3    H273209   5.305   0.093  15.961  1.3069  1.8270 -1.6255
17240TIP3   OH273210   4.896   4.009   4.373 -0.0750  0.6763  0.3912
17240TIP3    H173211   4.908   3.914   4.368 -0.4225  0.6379  0.3046
17240TIP3    H273212   4.835   4.030   4.302 -0.8203  0.8263  1.0624
17241TIP3   OH273213   6.336   3.403  17.223  1.0020  0.0464  1.1293
17241TIP3    H173214   6.288   3.440  17.297  1.3172 -0.2377  1.4836
17241TIP3    H273215   6.412   3.460  17.212  1.0992 -0.0681  1.2021
17242TIP3   OH273216   4.954   1.506   4.028 -0.2436 -0.2333 -0.4496
17242TIP3    H173217   4.891   1.434   4.016 -1.0875  0.0086  1.8941
17242TIP3    H273218   5.021   1.490   3.962 -0.9683 -2.5462 -0.7412
17243TIP3   OH273219   3.154   3.677   2.009 -0.2168 -0.5215  0.1088
17243TIP3    H173220   3.215   3.704   1.940  1.9232  1.0937  2.4249
17243TIP3    H273221   3.202   3.610   2.059 -0.1573  0.8777  2.0651
17244TIP3   OH273222   1.955   3.962   1.865  0.7381 -0.0159  0.4887
17244TIP3    H173223   2.029   3.907   1.891  0.3401 -0.1780  1.3096
17244TIP3    H273224   1.970   3.980   1.772 -0.8008 -4.2413 -0.8342
17245TIP3   OH273225   6.323   1.156  15.343  0.0216 -0.1178 -0.1089
17245TIP3    H173226   6.353   1.236  15.298  1.1762 -1.2577 -1.4591
17245TIP3    H273227   6.239   1.136  15.303  0.7874 -0.8144 -1.4528
17246TIP3   OH273228   1.822   1.338  14.900  0.0691 -0.4205 -0.3819
17246TIP3    H173229   1.766   1.371  14.971 -0.8453 -0.1103 -1.2119
17246TIP3    H273230   1.809   1.243  14.902 -0.2998 -0.3740 -0.4027
17247TIP3   OH273231   2.438   3.774   0.363 -0.0802  0.5145  0.3063
17247TIP3    H173232   2.446   3.853   0.309  2.5407 -0.6858 -1.3048
17247TIP3    H273233   2.354   3.736   0.337  0.8069  0.2995 -2.6627
17248TIP3   OH273234   5.440   1.582  14.838 -0.4760  0.3358  0.0975
17248TIP3    H173235   5.357   1.616  14.870  0.0636  1.0985  0.7283
17248TIP3    H273236   5.498   1.658  14.835  0.5873 -0.4055  0.9307
17249TIP3   OH273237   4.734   0.013  14.131  0.5474  0.0987 -0.2438
17249TIP3    H173238   4.749   0.080  14.065  3.1410  1.7650  1.8478
17249TIP3    H273239   4.760  -0.069  14.089 -0.5518  0.6591 -2.1226
17250TIP3   OH273240   3.553   3.314  15.183  0.5241  0.7192 -0.5307
17250TIP3    H173241   3.590   3.361  15.257  1.7749  2.1822 -2.0366
17250TIP3    H273242   3.625   3.260  15.150  0.0811  0.3700 -0.9435
17251TIP3   OH273243   1.920   1.407  15.360 -0.5666 -0.3143  0.0448
17251TIP3    H173244   1.919   1.311  15.355 -0.4776 -0.2629 -1.1333
17251TIP3    H273245   2.008   1.432  15.333 -0.7698  0.1274 -0.2141
17252TIP3   OH273246   4.803   1.761   5.443  0.3726 -0.1045  0.4479
17252TIP3    H173247   4.791   1.674   5.405  1.7364 -0.7855  1.5137
17252TIP3    H273248   4.898   1.772   5.448  0.2091  1.1031  1.0991
17253TIP3   OH273249   0.815   5.917  16.052 -0.4906 -0.0013 -0.0995
17253TIP3    H173250   0.723   5.930  16.074 -0.4716 -0.8123  0.5353
17253TIP3    H273251   0.862   5.984  16.101 -0.7293  0.3121 -0.2994
17254TIP3   OH273252   3.080   6.406   3.978  0.5717  0.3315  0.0187
17254TIP3    H173253   3.124   6.456   4.046 -0.6028 -0.7613  1.6284
17254TIP3    H273254   3.143   6.406   3.905  2.9209 -0.4358  1.9053
17255TIP3   OH273255   6.436   3.414   3.169 -0.5806 -0.4234  0.0308
17255TIP3    H173256   6.411   3.390   3.080 -0.9346  0.9536 -0.2607
17255TIP3    H273257   6.443   3.330   3.216 -0.8331 -1.1271 -1.1656
17256TIP3   OH273258   0.562   1.998  14.359  0.2280  0.1386 -0.0625
17256TIP3    H173259   0.610   1.944  14.421  0.0763 -0.6071 -0.5718
17256TIP3    H273260   0.600   2.085  14.367  0.4192 -0.0234  0.8392
17257TIP3   OH273261   5.381   2.822   1.024  0.4026 -0.2588 -0.0421
17257TIP3    H173262   5.318   2.834   1.095  0.2132 -0.3043 -0.2022
17257TIP3    H273263   5.465   2.816   1.068  0.3118 -0.0428  0.1613
17258TIP3   OH273264   4.435   4.556   1.994 -0.0769  0.2206 -0.2399
17258TIP3    H173265   4.394   4.542   2.079  1.1281  2.0813  0.7207
17258TIP3    H273266   4.529   4.551   2.012  0.2051 -1.6469 -1.9373
17259TIP3   OH273267   4.092   3.934   2.082  0.3053 -0.3638 -1.2084
17259TIP3    H173268   4.101   3.957   1.990 -2.7552  0.2644 -1.4671
17259TIP3    H273269   4.112   4.015   2.129  0.7241 -0.3669 -1.3744
17260TIP3   OH273270   5.563   1.982  10.785 -0.4449 -0.2848  0.3092
17260TIP3    H173271   5.597   2.071  10.796  0.4782 -0.2768 -1.9818
17260TIP3    H273272   5.468   1.991  10.791 -0.3229  0.7300  0.8067
17261TIP3   OH273273   0.969   0.208  15.236 -0.0644  0.7955  0.5502
17261TIP3    H173274   1.060   0.230  15.258  1.1374 -0.9246 -2.0373
17261TIP3    H273275   0.955   0.122  15.277 -0.1911  0.6544  0.2167
17262TIP3   OH273276   4.373   2.606   6.130  0.3332  0.3621  0.2728
17262TIP3    H173277   4.356   2.620   6.223 -1.1669 -0.0707  0.1007
17262TIP3    H273278   4.377   2.694   6.093  0.4756  0.5275  0.6768
17263TIP3   OH273279   6.656   6.542  15.535  0.1247  0.7953  0.6950
17263TIP3    H173280   6.662   6.452  15.502 -0.5023 -0.1248  2.8595
17263TIP3    H273281   6.664   6.597  15.457 -2.0213 -1.1843 -1.1077
17264TIP3   OH273282   0.589   0.872   3.165 -0.1608 -0.4692  0.0259
17264TIP3    H173283   0.612   0.780   3.156 -0.6891 -0.5855 -0.1489
17264TIP3    H273284   0.503   0.880   3.125 -0.6324 -0.1368  1.0497
17265TIP3   OH273285   6.237   2.887  15.318 -0.2409  0.2498  0.5044
17265TIP3    H173286   6.212   2.965  15.368  1.2380  0.9662  0.1810
17265TIP3    H273287   6.332   2.893  15.311 -0.0606 -1.7793  0.7531
17266TIP3   OH273288   3.251   6.618  12.617  0.0591  0.7986 -0.1330
17266TIP3    H173289   3.320   6.576  12.566  0.6408  1.0680  0.4167
17266TIP3    H273290   3.202   6.670  12.553 -1.0463 -1.1360 -0.9421
17267TIP3   OH273291   2.544   0.194   4.115 -0.7373  0.5076  0.1609
17267TIP3    H173292   2.627   0.188   4.068 -0.3982 -1.3324  0.9311
17267TIP3    H273293   2.486   0.133   4.068 -1.4206  1.1845  0.1123
17268TIP3   OH273294   1.552   4.865   1.400  0.3945  0.4992 -0.1350
17268TIP3    H173295   1.551   4.785   1.452 -0.7835 -0.0568 -0.9663
17268TIP3    H273296   1.480   4.854   1.338  1.2528  1.4870 -1.3501
17269TIP3   OH273297   6.789   1.902  11.268  0.7960 -0.0883  0.4059
17269TIP3    H173298   6.801   1.955  11.189 -1.4819 -1.3173 -0.8675
17269TIP3    H273299   6.744   1.959  11.330  0.4020  0.1647 -0.1091
17270TIP3   OH273300   1.925   4.170   1.341 -0.4524  0.0387  0.1300
17270TIP3    H173301   1.895   4.234   1.277  0.5237 -0.2272 -0.6247
17270TIP3    H273302   1.902   4.207   1.426  0.4557  1.5830 -0.2675
17271TIP3   OH273303   3.485   3.159  13.141 -1.5198 -0.0856 -0.2048
17271TIP3    H173304   3.490   3.080  13.194 -0.7192 -0.0105 -0.1526
17271TIP3    H273305   3.444   3.131  13.059  0.2299 -0.9186 -0.8278
17272TIP3   OH273306   0.408   3.989  13.346 -0.2534 -0.0484  0.0428
17272TIP3    H173307   0.379   4.033  13.426  1.7765  1.3334  0.0887
17272TIP3    H273308   0.404   4.057  13.278  1.1278 -0.2851 -0.3042
17273TIP3   OH273309   1.527   0.518  14.581 -0.4172 -0.0478  0.0760
17273TIP3    H173310   1.474   0.478  14.512 -0.5920 -1.4897  0.9969
17273TIP3    H273311   1.522   0.612  14.564 -0.7005 -0.3389 -1.6783
17274TIP3   OH273312   5.320   2.834  17.162 -0.0382 -0.1764 -0.0986
17274TIP3    H173313   5.346   2.814  17.252  1.7331 -1.5620 -0.8609
17274TIP3    H273314   5.271   2.916  17.169 -1.1305 -0.9177  2.2737
17275TIP3   OH273315   0.066   5.919   5.392  0.6587 -0.0761 -0.1259
17275TIP3    H173316   0.077   5.828   5.365  0.7626 -0.0765 -0.0839
17275TIP3    H273317  -0.014   5.920   5.444  0.7200 -0.1641 -0.0306
17276TIP3   OH273318   2.451   2.501  16.844 -0.0658 -0.0120 -0.2372
17276TIP3    H173319   2.367   2.474  16.880 -0.5911  2.6079  0.7310
17276TIP3    H273320   2.460   2.592  16.871  2.4265  0.2142 -1.5699
17277TIP3   OH273321   5.590   5.485  17.062 -0.5171  0.2078  0.1917
17277TIP3    H173322   5.661   5.535  17.021 -1.6156  1.1663 -0.5921
17277TIP3    H273323   5.529   5.467  16.991 -0.9801 -0.7950  0.8133
17278TIP3   OH273324   2.640   5.735  13.565  0.5698  0.4537 -0.0528
17278TIP3    H173325   2.564   5.746  13.622  1.2458  1.8888  0.6274
17278TIP3    H273326   2.691   5.665  13.605 -1.0221 -1.5592 -1.2954
17279TIP3   OH273327   3.569   3.926  11.021 -0.0602  0.6637 -0.4416
17279TIP3    H173328   3.614   3.909  11.104  0.1403  0.9337 -0.4910
17279TIP3    H273329   3.531   3.842  10.997  1.4044  0.1128 -0.9797
17280TIP3   OH273330   1.036   3.406   6.164 -0.2452  0.3832 -0.0651
17280TIP3    H173331   1.054   3.335   6.226 -0.0851  1.5025  1.2010
17280TIP3    H273332   1.106   3.469   6.179 -0.6730  1.0502 -0.8299
17281TIP3   OH273333   4.619   1.617  15.375  0.7302  0.9186  0.2411
17281TIP3    H173334   4.603   1.526  15.403 -1.6531 -0.2985 -4.0954
17281TIP3    H273335   4.695   1.611  15.318  0.9020  1.7929  0.3654
17282TIP3   OH273336   1.269   6.530  13.056 -0.3677 -0.6199  0.3185
17282TIP3    H173337   1.181   6.539  13.021 -0.7735 -1.1588  1.1794
17282TIP3    H273338   1.315   6.473  12.994 -0.4048  0.2190 -0.4982
17283TIP3   OH273339   1.487   5.386  16.169 -0.1076 -0.3193 -0.0236
17283TIP3    H173340   1.517   5.477  16.163 -0.4149 -0.2173 -0.0130
17283TIP3    H273341   1.568   5.334  16.172  0.0623 -0.0857 -0.6050
17284TIP3   OH273342   2.223   2.722   2.221  0.4555 -0.1151 -0.6358
17284TIP3    H173343   2.147   2.711   2.278  0.5719  0.0526 -0.4465
17284TIP3    H273344   2.206   2.664   2.147  1.6421 -2.5949  0.9117
17285TIP3   OH273345   3.582   1.184   5.907 -0.6376  0.3238  0.7374
17285TIP3    H173346   3.538   1.173   5.991 -2.3102  1.1396  0.0197
17285TIP3    H273347   3.597   1.279   5.900 -1.6579  0.4231 -0.3983
17286TIP3   OH273348   5.320   2.054   2.337 -0.2438 -0.9407 -0.1309
17286TIP3    H173349   5.357   1.980   2.385  0.9200  0.1559  0.7505
17286TIP3    H273350   5.229   2.059   2.365 -0.6664 -2.6764 -1.0498
17287TIP3   OH273351   4.669   4.826   3.638  0.8736  0.3797  0.4401
17287TIP3    H173352   4.640   4.760   3.575  1.3547 -0.7991  1.3981
17287TIP3    H273353   4.739   4.782   3.687  0.6835  1.3468  1.6145
17288TIP3   OH273354   1.721   4.731  11.517  0.6959 -0.3165  0.0351
17288TIP3    H173355   1.766   4.690  11.444 -1.2381  0.1618 -1.5234
17288TIP3    H273356   1.634   4.690  11.517 -0.1007  1.2984  0.6301
17289TIP3   OH273357   1.795   5.149  16.640 -0.7443  0.2512  0.6409
17289TIP3    H173358   1.785   5.054  16.648  0.5790  0.1714  1.7107
17289TIP3    H273359   1.719   5.185  16.687 -0.4207 -0.2849  1.5981
17290TIP3   OH273360   0.133   4.655  12.745 -0.2549  0.5562  0.6877
17290TIP3    H173361   0.083   4.601  12.685 -1.2457  2.5655 -0.4206
17290TIP3    H273362   0.079   4.659  12.824 -0.1527 -0.1036  0.7896
17291TIP3   OH273363   2.414   4.350  14.866 -0.1159  0.1011  1.1869
17291TIP3    H173364   2.322   4.374  14.872  0.2333  1.2347  2.5105
17291TIP3    H273365   2.441   4.376  14.778 -0.9687  0.0539  0.9048
17292TIP3   OH273366   0.546   4.952   2.273  0.4663  0.2466 -0.3485
17292TIP3    H173367   0.510   4.882   2.219 -0.4752  1.0075 -0.7333
17292TIP3    H273368   0.584   4.906   2.348 -0.7772 -0.6448 -0.2292
17293TIP3   OH273369   6.237   3.407  12.440 -0.4747  0.6011 -0.4305
17293TIP3    H173370   6.318   3.435  12.396 -0.0326  1.6749  1.0103
17293TIP3    H273371   6.180   3.484  12.437 -0.6377  0.5195  0.3837
17294TIP3   OH273372   5.386   0.966   2.486  0.1915 -0.1848  0.4769
17294TIP3    H173373   5.311   1.015   2.519 -0.4393  0.6636 -1.9852
17294TIP3    H273374   5.457   1.031   2.483  0.7647 -0.7143  1.7760
17295TIP3   OH273375   6.116   3.411   0.914 -0.1644  0.1827 -0.1371
17295TIP3    H173376   6.077   3.423   1.000  0.2052  0.4810 -0.0068
17295TIP3    H273377   6.045   3.430   0.852  0.0968  2.1073  0.0680
17296TIP3   OH273378   3.303   6.376  14.564  0.0454 -0.4357  0.1736
17296TIP3    H173379   3.365   6.393  14.635  0.6984 -0.1955 -0.4417
17296TIP3    H273380   3.341   6.419  14.488  0.7190 -2.8634 -0.9725
17297TIP3   OH273381   1.608   2.275  12.808 -0.3948 -0.4900 -0.3437
17297TIP3    H173382   1.591   2.196  12.859 -0.5915  1.0425  2.1411
17297TIP3    H273383   1.675   2.323  12.859 -0.2550  0.9353 -1.7725
17298TIP3   OH273384   3.406   5.498  14.187  0.2167 -0.4042  0.3225
17298TIP3    H173385   3.490   5.523  14.224  0.3802 -0.3332 -0.0906
17298TIP3    H273386   3.370   5.579  14.152  0.2677 -0.5465 -0.0698
17299TIP3   OH273387   5.282   5.550  13.861  0.6887  0.4340  0.1502
17299TIP3    H173388   5.219   5.494  13.906  0.6774 -0.3394 -0.7766
17299TIP3    H273389   5.268   5.637  13.897 -1.3430  0.4080 -0.4764
17300TIP3   OH273390   0.728   2.434   1.447  0.4950 -0.1244  0.0070
17300TIP3    H173391   0.814   2.436   1.406  1.1765 -1.1086  1.3076
17300TIP3    H273392   0.673   2.384   1.386  1.4906 -1.5783  0.2323
17301TIP3   OH273393   1.183   5.874  13.647  0.3383  0.2282 -0.5765
17301TIP3    H173394   1.202   5.848  13.737 -1.9941  1.0290  0.2080
17301TIP3    H273395   1.241   5.819  13.594 -0.4519 -2.6231  1.2651
17302TIP3   OH273396   4.647   3.797   6.214 -0.1935 -0.2934 -0.4323
17302TIP3    H173397   4.659   3.704   6.235 -0.4346  0.1535  2.0869
17302TIP3    H273398   4.663   3.803   6.120  0.2206 -2.8080 -0.6013
17303TIP3   OH273399   6.404   3.698  14.199 -0.1221 -0.0900  0.4961
17303TIP3    H173400   6.413   3.603  14.195 -1.1263 -0.2208  1.1208
17303TIP3    H273401   6.494   3.730  14.210  0.1647 -0.9973  0.8707
17304TIP3   OH273402   0.806   3.028  11.479  0.2940 -0.1080  0.0731
17304TIP3    H173403   0.777   2.996  11.565  1.5649 -1.4752  0.0398
17304TIP3    H273404   0.767   3.115  11.472 -1.7874 -0.8778  1.0095
17305TIP3   OH273405   4.479   5.847   6.143 -0.3818  0.7657  0.0324
17305TIP3    H173406   4.396   5.803   6.160  1.2718 -2.0148  1.7650
17305TIP3    H273407   4.483   5.917   6.208 -0.6487 -0.2418  1.1735
17306TIP3   OH273408   5.774   0.254  15.256 -0.8882 -0.0134  0.0639
17306TIP3    H173409   5.751   0.161  15.260 -0.7660 -0.0203  0.5517
17306TIP3    H273410   5.734   0.284  15.174 -1.3650 -0.3775  0.1573
17307TIP3   OH273411   5.102   2.940  11.225 -0.6506  0.0509 -0.1626
17307TIP3    H173412   5.179   2.914  11.174  0.4044  2.1871  0.2504
17307TIP3    H273413   5.053   2.997  11.167 -1.5035 -0.6089 -0.1126
17308TIP3   OH273414   2.880   5.865   0.952  0.4623  0.0359 -0.0265
17308TIP3    H173415   2.882   5.864   1.048  0.1133  1.7677  0.0400
17308TIP3    H273416   2.805   5.812   0.929 -0.6005  1.1248  0.7669
17309TIP3   OH273417   0.055   5.491   4.660 -0.2459  0.2121 -0.2162
17309TIP3    H173418   0.081   5.449   4.742 -0.5260 -2.0037 -1.1794
17309TIP3    H273419   0.085   5.581   4.668 -0.8549  0.2515  2.5801
17310TIP3   OH273420   1.698   5.182   5.919 -0.3936  0.1128  0.6473
17310TIP3    H173421   1.727   5.242   5.988  0.3337  0.1831  0.2977
17310TIP3    H273422   1.605   5.202   5.907 -0.7439 -0.4486  2.1481
17311TIP3   OH273423   6.012   0.463   1.834 -0.5697  0.4271 -0.0362
17311TIP3    H173424   6.039   0.372   1.826  1.7607  0.9356  1.1133
17311TIP3    H273425   6.094   0.513   1.830 -1.8161  2.5379 -1.1527
17312TIP3   OH273426   1.777   0.714   2.659  0.5940 -0.3278 -0.3657
17312TIP3    H173427   1.845   0.780   2.641  0.8299 -0.4584  0.0336
17312TIP3    H273428   1.820   0.651   2.716 -0.4445  0.6883  1.6508
17313TIP3   OH273429   1.450   2.686   1.607  0.0117  0.1900 -0.1804
17313TIP3    H173430   1.472   2.713   1.697 -0.6427 -1.2523  0.4449
17313TIP3    H273431   1.355   2.689   1.604  0.0376  0.3376 -0.8654
17314TIP3   OH273432   2.808   1.421  11.174  1.3701  0.0536  0.4467
17314TIP3    H173433   2.720   1.384  11.164  0.7707  1.9289 -2.2869
17314TIP3    H273434   2.804   1.471  11.256 -1.0579  2.2659 -0.8559
17315TIP3   OH273435   0.903   1.957   2.743  0.8187  0.0223 -0.2854
17315TIP3    H173436   0.883   2.038   2.695 -0.3676 -0.1525 -0.1227
17315TIP3    H273437   0.818   1.915   2.754  1.4561 -1.3978 -0.6226
17316TIP3   OH273438   4.351   1.658  11.767  0.0838  0.1370 -0.2039
17316TIP3    H173439   4.284   1.676  11.701  0.1486 -0.8575 -0.5692
17316TIP3    H273440   4.321   1.704  11.845 -1.2620 -0.6202 -0.2376
17317TIP3   OH273441   1.757   2.475  12.938 -0.4431  0.0286 -0.9028
17317TIP3    H173442   1.834   2.524  12.907  0.3823 -1.2291 -0.9449
17317TIP3    H273443   1.784   2.442  13.024 -2.1879  2.2965  0.6476
17318TIP3   OH273444   3.656   3.174  12.729  0.3284 -0.1597 -0.0212
17318TIP3    H173445   3.608   3.101  12.767 -1.6756  0.3101 -1.5003
17318TIP3    H273446   3.691   3.222  12.804 -1.1715 -0.7669  1.0972
17319TIP3   OH273447   1.184   2.017   1.071 -0.0402 -0.4322  0.1787
17319TIP3    H173448   1.276   2.042   1.084  0.0582 -1.6565  2.2805
17319TIP3    H273449   1.143   2.031   1.157 -1.1641 -2.4625  0.0300
17320TIP3   OH273450   2.666   1.647  12.163 -0.5021 -0.6230  0.1295
17320TIP3    H173451   2.628   1.699  12.092 -1.0273 -0.0173  0.8396
17320TIP3    H273452   2.692   1.565  12.121 -0.9960 -0.3626 -0.7193
17321TIP3   OH273453   2.707   3.857  16.580  0.0444 -0.2568  0.8112
17321TIP3    H173454   2.802   3.865  16.571 -0.1740  1.8364 -0.0304
17321TIP3    H273455   2.685   3.912  16.655 -0.7092  1.1494 -0.3874
17322TIP3   OH273456   0.557   0.998  10.961 -0.2218  0.4389  0.3270
17322TIP3    H173457   0.512   0.914  10.958  0.6395 -0.0357  0.2488
17322TIP3    H273458   0.608   0.994  11.042 -0.2472  0.9224  0.3689
17323TIP3   OH273459   3.185   6.010  11.714 -0.6112  0.1363 -0.3407
17323TIP3    H173460   3.262   6.061  11.688 -1.4422  1.2966 -0.5923
17323TIP3    H273461   3.185   5.936  11.653 -0.3140  0.7258 -1.0882
17324TIP3   OH273462   3.113   6.419   0.481  0.8107  1.1870 -0.0580
17324TIP3    H173463   3.083   6.332   0.506  0.1638  0.8324 -1.8925
17324TIP3    H273464   3.111   6.470   0.562 -0.2633 -0.1029  0.7562
17325TIP3   OH273465   4.015   0.665  16.139 -0.1368  0.5673  0.3667
17325TIP3    H173466   4.036   0.716  16.060  1.3267  1.0971  1.0589
17325TIP3    H273467   4.003   0.575  16.106  1.6201  0.5511 -0.3492
17326TIP3   OH273468   3.364   5.189  14.195 -0.3639 -0.5385  0.5807
17326TIP3    H173469   3.277   5.192  14.156  0.4764 -1.3025 -1.4469
17326TIP3    H273470   3.402   5.274  14.175  0.1796 -1.0401 -0.6217
17327TIP3   OH273471   3.923   6.772  13.099 -0.1892 -0.5964 -0.6539
17327TIP3    H173472   3.859   6.708  13.067  0.9302 -1.9939 -0.1813
17327TIP3    H273473   3.916   6.768  13.194 -0.7195  0.6593 -0.6168
17328TIP3   OH273474   0.544   3.972   5.452 -0.0722  0.3412 -0.1337
17328TIP3    H173475   0.584   4.037   5.393  1.3232 -0.0092  0.3889
17328TIP3    H273476   0.450   3.990   5.447 -0.1608 -0.3678 -3.2995
17329TIP3   OH273477   5.794   1.545  13.378 -0.0532  0.3812  0.4590
17329TIP3    H173478   5.855   1.594  13.323  0.1205 -1.3611 -1.0297
17329TIP3    H273479   5.848   1.476  13.417 -0.5126  0.6124  1.5211
17330TIP3   OH273480   2.000   1.111   5.683  0.9814  0.2281  0.1386
17330TIP3    H173481   2.042   1.137   5.601  1.7938  0.3683  0.5882
17330TIP3    H273482   2.052   1.153   5.751  0.6319 -0.3061  0.7504
17331TIP3   OH273483   4.577   2.219   4.226  0.4330 -0.1499 -0.5126
17331TIP3    H173484   4.642   2.240   4.160 -0.8181 -0.5609 -1.9326
17331TIP3    H273485   4.617   2.150   4.279  0.6214 -1.4885 -2.3024
17332TIP3   OH273486   4.225   6.468   3.801 -0.4257 -0.0530  0.4976
17332TIP3    H173487   4.137   6.437   3.779 -0.1696 -0.8701  0.5879
17332TIP3    H273488   4.211   6.558   3.830 -1.0713  0.2419 -0.6501
17333TIP3   OH273489   5.734   1.035   2.821  0.5402  0.3419  0.3534
17333TIP3    H173490   5.795   0.992   2.881 -0.0003 -1.7783 -0.5044
17333TIP3    H273491   5.782   1.041   2.738  0.8445  2.0900  0.6276
17334TIP3   OH273492   2.473   0.473   5.609  0.1844 -0.3104  0.4927
17334TIP3    H173493   2.424   0.439   5.534 -1.5747 -2.1920  2.3570
17334TIP3    H273494   2.482   0.567   5.591  0.0455 -0.7187 -2.1288
17335TIP3   OH273495   5.209   1.121   2.629 -0.0797  0.2769 -0.0970
17335TIP3    H173496   5.185   1.197   2.577  1.0665  0.6358 -0.1327
17335TIP3    H273497   5.162   1.131   2.711  1.0498  1.7284  0.4132
17336TIP3   OH273498   3.791   5.002   3.433 -0.8100 -0.1333 -0.7718
17336TIP3    H173499   3.723   4.962   3.487 -0.7375 -0.5931 -1.0109
17336TIP3    H273500   3.745   5.033   3.355 -1.4793  3.3080  0.7977
17337TIP3   OH273501   3.769   4.468  17.139 -0.0814 -0.3175  0.4625
17337TIP3    H173502   3.807   4.423  17.215  0.5345  0.2139  0.4779
17337TIP3    H273503   3.788   4.411  17.065  2.1353  0.6087  0.2171
17338TIP3   OH273504   2.895   4.205   5.860  0.0153 -0.1001  0.0733
17338TIP3    H173505   2.867   4.239   5.945 -0.4056 -0.1220 -0.0546
17338TIP3    H273506   2.887   4.110   5.869  0.1692 -0.1135  0.0755
17339TIP3   OH273507   5.321   5.299  12.810 -0.2205 -0.2431  0.2830
17339TIP3    H173508   5.397   5.241  12.805 -0.0574 -0.0707  0.7207
17339TIP3    H273509   5.265   5.272  12.737 -0.0992 -0.8821  0.4194
17340TIP3   OH273510   2.028   1.608  16.379 -0.4477  0.1945  0.6160
17340TIP3    H173511   2.007   1.607  16.473  1.5573  1.3598  1.1330
17340TIP3    H273512   2.123   1.617  16.376 -0.6410  2.6274 -1.4896
17341TIP3   OH273513   6.337   5.260  11.509 -0.1457  0.0781  0.3476
17341TIP3    H173514   6.360   5.210  11.431 -0.1607 -0.7627  0.8681
17341TIP3    H273515   6.375   5.346  11.495  1.4775 -0.6176  0.2231
17342TIP3   OH273516   5.631   1.767  14.859  0.1503 -0.1892 -0.2696
17342TIP3    H173517   5.644   1.802  14.947 -0.0978 -0.7205 -0.0180
17342TIP3    H273518   5.609   1.843  14.806 -1.5034 -0.1047  0.4904
17343TIP3   OH273519   5.579   0.837  12.047  0.0878  0.3283  0.2655
17343TIP3    H173520   5.552   0.929  12.055 -1.0290 -0.0149  0.4704
17343TIP3    H273521   5.675   0.842  12.039  0.1692  1.4379  1.5341
17344TIP3   OH273522   4.744   2.426  13.055 -0.0104 -0.0547  0.1393
17344TIP3    H173523   4.795   2.497  13.092  1.2899 -1.7283  1.7590
17344TIP3    H273524   4.654   2.458  13.055  0.6489  1.8981 -0.0642
17345TIP3   OH273525   2.943   1.906   2.267  0.0641  0.0204  0.3189
17345TIP3    H173526   2.972   1.877   2.354  1.9838 -1.1628 -0.6431
17345TIP3    H273527   3.016   1.958   2.234 -0.2883 -0.2367 -0.9093
17346TIP3   OH273528   0.360   5.642   5.445 -0.3958  0.0164  0.0694
17346TIP3    H173529   0.298   5.653   5.517  0.6600 -0.8013  1.1402
17346TIP3    H273530   0.360   5.727   5.401 -0.9992  0.5618  1.0765
17347TIP3   OH273531   5.674   3.185  16.019  0.7983 -0.7088 -0.9578
17347TIP3    H173532   5.685   3.148  15.932  3.8034  0.7168 -1.3064
17347TIP3    H273533   5.762   3.208  16.048 -0.3136  1.1824  1.4207
17348TIP3   OH273534   4.357   0.346  14.424 -0.6046  0.0096  0.2731
17348TIP3    H173535   4.395   0.270  14.381 -0.9476 -0.4188  0.7027
17348TIP3    H273536   4.264   0.324  14.433 -0.8077  0.7111 -0.0821
17349TIP3   OH273537   0.130   4.708   2.810  0.7331  0.1065 -0.4053
17349TIP3    H173538   0.223   4.710   2.790  1.2959 -1.1580  1.7404
17349TIP3    H273539   0.114   4.618   2.839 -1.3310  0.1111 -1.3682
17350TIP3   OH273540   0.188   2.643   4.273  0.1296 -1.3770 -0.1217
17350TIP3    H173541   0.147   2.581   4.334  0.3171 -0.0027  1.4611
17350TIP3    H273542   0.274   2.660   4.310 -0.4394  0.8825  0.2772
17351TIP3   OH273543   6.614   3.929  15.916  0.0669  0.3310  0.0349
17351TIP3    H173544   6.672   3.958  15.987 -1.2118  0.8511  0.9130
17351TIP3    H273545   6.608   4.005  15.858  1.2156 -0.1369 -0.7425
17352TIP3   OH273546   0.139   2.372   5.187 -0.2257  0.0520  0.0866
17352TIP3    H173547   0.128   2.364   5.092  0.1139 -0.6543  0.1001
17352TIP3    H273548   0.091   2.451   5.210  0.8302  0.9925 -0.8640
17353TIP3   OH273549   0.112   4.070   4.445 -0.1121 -0.0732 -0.1100
17353TIP3    H173550   0.025   4.087   4.408  0.1890 -1.2287 -1.4811
17353TIP3    H273551   0.162   4.035   4.371  1.5862  0.7300  0.6147
17354TIP3   OH273552   6.600   1.916  14.701  0.3289  0.1518  1.0284
17354TIP3    H173553   6.558   1.830  14.694  4.4222 -2.0682  0.9687
17354TIP3    H273554   6.587   1.942  14.792  0.0800 -1.1618  1.3832
17355TIP3   OH273555   5.681   2.054   0.186 -0.0770 -0.2402 -0.2786
17355TIP3    H173556   5.648   2.039   0.097 -0.0331 -1.1274 -0.1516
17355TIP3    H273557   5.628   1.996   0.241  1.4277 -1.4270 -0.0203
17356TIP3   OH273558   6.526   5.014   5.735  0.4680  0.0999 -0.7597
17356TIP3    H173559   6.444   4.976   5.703 -0.1384 -0.4520  1.3243
17356TIP3    H273560   6.574   4.940   5.772  0.2159  0.9598  1.4245
17357TIP3   OH273561   1.035   3.533   2.104  0.2383 -0.2043 -0.1247
17357TIP3    H173562   1.007   3.601   2.043  0.0002  1.2094  1.4734
17357TIP3    H273563   1.006   3.565   2.190  0.5264 -2.1220  0.7401
17358TIP3   OH273564   5.497   2.463  14.291  0.0820  0.2575  0.0053
17358TIP3    H173565   5.585   2.460  14.254  0.0834 -2.4635  0.0143
17358TIP3    H273566   5.485   2.376  14.330 -2.3888  0.7720  0.5377
17359TIP3   OH273567   3.623   4.161   0.743 -0.2723  0.1896  0.0043
17359TIP3    H173568   3.542   4.151   0.693 -0.8251 -0.9710  1.0773
17359TIP3    H273569   3.692   4.151   0.678 -0.9635  0.8277 -0.8688
17360TIP3   OH273570   0.862   1.075  10.590  0.8820 -0.6312  0.1544
17360TIP3    H173571   0.777   1.032  10.587  1.9458 -2.8409 -0.5114
17360TIP3    H273572   0.843   1.167  10.575 -1.3763 -1.0540  0.0520
17361TIP3   OH273573   4.407   2.056   6.265 -0.0219 -0.4454  0.2278
17361TIP3    H173574   4.404   2.150   6.284  1.1243 -0.0386 -1.3643
17361TIP3    H273575   4.320   2.024   6.288 -1.1665  1.4420 -1.1815
17362TIP3   OH273576   6.609   3.065  14.716  0.0343  0.1405 -0.0986
17362TIP3    H173577   6.564   3.098  14.638  3.5174  2.9193 -1.1904
17362TIP3    H273578   6.671   3.000  14.682  0.4309  0.1595  0.5792
17363TIP3   OH273579   2.939   2.781   2.934  0.1028 -0.6069  0.8829
17363TIP3    H173580   2.867   2.733   2.974 -0.1800 -0.3250  0.7128
17363TIP3    H273581   3.013   2.767   2.994 -0.4841  0.3704  1.8587
17364TIP3   OH273582   5.733   1.242   1.211  0.5707 -0.2787 -0.3847
17364TIP3    H173583   5.693   1.189   1.279 -1.7168  0.6867 -0.9129
17364TIP3    H273584   5.827   1.228   1.223  0.2780 -0.1189  2.9394
17365TIP3   OH273585   1.131   1.724  12.800 -0.2393  0.5161 -0.5934
17365TIP3    H173586   1.222   1.717  12.770  0.1796  2.5867  0.0286
17365TIP3    H273587   1.080   1.683  12.731  1.1205 -0.1311 -1.2635
17366TIP3   OH273588   5.628   0.374  14.583 -0.2795  0.4267  0.2588
17366TIP3    H173589   5.625   0.375  14.488 -1.4764  0.9978  0.2844
17366TIP3    H273590   5.577   0.451  14.610 -0.2717  0.0671  1.3621
17367TIP3   OH273591   4.297   3.377   1.007  0.2071  0.5274  0.2281
17367TIP3    H173592   4.316   3.398   1.099 -1.2287  0.1119  0.6453
17367TIP3    H273593   4.234   3.305   1.012  1.2101 -0.4869 -1.1165
17368TIP3   OH273594   4.639   3.085   5.831  0.4435 -0.1702  0.0504
17368TIP3    H173595   4.681   3.171   5.827  0.4316 -0.1830 -0.4004
17368TIP3    H273596   4.572   3.088   5.763  0.3534 -0.4909  0.1234
17369TIP3   OH273597   5.157   1.638   6.492  0.6658 -0.0050  0.1847
17369TIP3    H173598   5.242   1.629   6.536  0.8715 -0.1455 -0.2442
17369TIP3    H273599   5.104   1.568   6.529  0.3998  0.7000  1.2137
17370TIP3   OH273600   1.365   2.563  12.140  0.2213  0.5599 -0.6663
17370TIP3    H173601   1.335   2.586  12.228  0.0255 -2.9960  0.3671
17370TIP3    H273602   1.294   2.510  12.104  0.9639  0.6652 -2.3848
17371TIP3   OH273603   2.706   1.783  12.421 -0.3194  0.2882 -0.0365
17371TIP3    H173604   2.694   1.737  12.338 -0.1217 -0.4156  0.3132
17371TIP3    H273605   2.642   1.854  12.418  1.4577  1.9232 -1.9090
17372TIP3   OH273606   1.219   0.462   4.719  0.0863 -0.0786  0.5270
17372TIP3    H173607   1.222   0.490   4.810  1.2825 -0.4042  0.6022
17372TIP3    H273608   1.163   0.527   4.676  2.0221  1.9414  0.8820
17373TIP3   OH273609   0.052   5.736   2.934  0.1465 -0.4215  0.8277
17373TIP3    H173610   0.037   5.790   2.857 -0.0717 -0.0134  1.1571
17373TIP3    H273611   0.131   5.772   2.974  0.8828 -1.2954  0.2220
17374TIP3   OH273612   6.735   2.492   4.657  0.8112 -0.3275 -0.1992
17374TIP3    H173613   6.759   2.464   4.569  2.2779  1.2025 -0.3232
17374TIP3    H273614   6.639   2.484   4.659  0.4849  1.7410 -2.7432
17375TIP3   OH273615   3.246   6.029   1.208  0.3206 -0.2215 -0.2045
17375TIP3    H173616   3.286   6.016   1.122  1.3110 -0.4454  0.2692
17375TIP3    H273617   3.243   5.941   1.247  1.6497  0.1193  0.7253
17376TIP3   OH273618   4.277   4.867   5.629  0.5892 -0.1033 -0.4701
17376TIP3    H173619   4.276   4.788   5.684  1.6034  0.0668 -0.1714
17376TIP3    H273620   4.238   4.935   5.684 -0.5197 -0.4443 -0.8213
17377TIP3   OH273621   0.826   0.562   3.244  0.3586 -0.3641 -0.0686
17377TIP3    H173622   0.891   0.543   3.176  1.3244 -0.6403  0.8944
17377TIP3    H273623   0.747   0.587   3.196  1.5165  1.1470 -1.2725
17378TIP3   OH273624   0.940   5.341  17.326 -0.1232 -0.5074  0.1739
17378TIP3    H173625   0.943   5.321  17.232 -1.7451 -0.2053  0.0345
17378TIP3    H273626   0.857   5.305  17.355  0.2108 -0.2849  1.4385
17379TIP3   OH273627   4.084   2.562   6.728 -0.1067 -0.3146  0.0120
17379TIP3    H173628   4.101   2.474   6.762 -0.5531 -0.3776  0.0765
17379TIP3    H273629   4.155   2.577   6.665 -0.0734 -0.7484 -0.0562
17380TIP3   OH273630   2.515   5.700  13.322 -0.1482 -0.5109  0.2092
17380TIP3    H173631   2.579   5.743  13.379  0.7604 -1.6878  0.1227
17380TIP3    H273632   2.509   5.611  13.357 -1.2462 -0.6080 -0.1997
17381TIP3   OH273633   6.456   2.281  16.510 -0.0803  0.7521  0.1596
17381TIP3    H173634   6.395   2.227  16.459 -1.3351  2.0024  0.2411
17381TIP3    H273635   6.541   2.240  16.498 -1.0138 -1.4218  0.5232
17382TIP3   OH273636   5.254   2.974   0.100  1.1455  0.0078 -0.2257
17382TIP3    H173637   5.290   3.039   0.041 -1.0684 -0.7512 -2.5793
17382TIP3    H273638   5.268   2.890   0.056  1.0961 -0.8156  1.2361
17383TIP3   OH273639   5.863   6.417  12.468 -0.2084 -0.2677  0.4676
17383TIP3    H173640   5.955   6.392  12.458  0.6434  1.9060  2.0421
17383TIP3    H273641   5.833   6.434  12.379  1.2271  0.0085  0.0051
17384TIP3   OH273642   4.016   2.051   5.899  0.0390  0.5471 -0.0687
17384TIP3    H173643   3.992   2.091   5.983 -1.1762 -0.7010  0.2181
17384TIP3    H273644   3.936   2.006   5.871  1.3156 -1.6595 -0.3607
17385TIP3   OH273645   4.122   3.953   3.432  0.2531 -0.1162  0.1293
17385TIP3    H173646   4.120   3.982   3.341 -0.4625  1.1192  0.5072
17385TIP3    H273647   4.138   3.859   3.428 -2.3654 -0.5767 -1.3793
17386TIP3   OH273648   1.550   0.596  17.338 -0.8308 -0.0572 -0.1134
17386TIP3    H173649   1.544   0.691  17.347 -0.8851 -0.0599 -0.1219
17386TIP3    H273650   1.577   0.582  17.247 -2.1385 -0.0931 -0.5107
17387TIP3   OH273651   3.575   3.840   1.729 -0.5471  0.3928  0.2113
17387TIP3    H173652   3.525   3.767   1.692 -1.6134  0.7638  0.8742
17387TIP3    H273653   3.658   3.802   1.754 -1.5563 -0.9180  1.7517
17388TIP3   OH273654   6.211   3.696   0.030 -0.2758 -0.0049 -0.5429
17388TIP3    H173655   6.251   3.713   0.115 -0.6158 -1.3310 -0.0921
17388TIP3    H273656   6.197   3.783  -0.008  0.0190  0.6002  0.6909
17389TIP3   OH273657   4.941   2.101   5.753 -0.1553  0.1871  0.0937
17389TIP3    H173658   5.011   2.037   5.743  0.1798  0.6822 -0.8463
17389TIP3    H273659   4.872   2.054   5.799 -0.1323 -1.0077 -1.0468
17390TIP3   OH273660   0.468   5.155  14.652  0.1015 -0.0051 -0.2188
17390TIP3    H173661   0.422   5.182  14.572  2.1056  1.2844 -1.0092
17390TIP3    H273662   0.490   5.063  14.637 -2.9922 -1.0238  0.6440
17391TIP3   OH273663   1.396   6.696   1.487 -0.1454  0.4721 -0.1986
17391TIP3    H173664   1.486   6.694   1.520 -1.0794 -3.1851  2.9018
17391TIP3    H273665   1.350   6.755   1.547 -0.2702  0.3331 -0.1555
17392TIP3   OH273666   2.011   4.497   5.930  0.1723 -0.0426 -0.0055
17392TIP3    H173667   1.931   4.487   5.877  0.3897  0.6473 -0.4848
17392TIP3    H273668   1.980   4.536   6.012 -0.1648 -1.0939  0.3734
17393TIP3   OH273669   2.876   6.011   3.917 -0.0416 -0.2576  0.1995
17393TIP3    H173670   2.924   6.051   3.845  0.4498 -1.0060  0.0920
17393TIP3    H273671   2.784   6.014   3.891 -0.0881  1.2987  0.4561
17394TIP3   OH273672   0.839   2.183   5.817  0.0016  0.0423  0.3299
17394TIP3    H173673   0.870   2.102   5.858  2.7406  1.5249  1.4459
17394TIP3    H273674   0.894   2.192   5.739 -1.8702 -0.2805 -1.0874
17395TIP3   OH273675   6.357   1.717   3.378 -0.2816 -0.1770  0.1427
17395TIP3    H173676   6.295   1.774   3.422  2.2181  2.9591 -0.0635
17395TIP3    H273677   6.344   1.734   3.285 -1.7615 -2.6054 -0.1792
17396TIP3   OH273678   0.932   4.836  14.293 -0.2488 -0.0061 -0.0571
17396TIP3    H173679   1.021   4.802  14.295 -0.9467 -1.9560  1.8694
17396TIP3    H273680   0.898   4.813  14.207  0.3462 -1.4153  0.0709
17397TIP3   OH273681   4.728   4.026   3.165 -0.0725  0.0964 -0.1516
17397TIP3    H173682   4.815   3.994   3.188  1.7893  2.1096 -3.5269
17397TIP3    H273683   4.699   3.968   3.094 -1.7367 -0.7602  1.1530
17398TIP3   OH273684   5.777   2.502  14.808  0.5770  0.5449 -0.2434
17398TIP3    H173685   5.711   2.518  14.740 -1.0255 -0.4931  0.9867
17398TIP3    H273686   5.787   2.407  14.810  0.7635  0.5716  0.7817
17399TIP3   OH273687   5.208   0.506   0.495 -0.1240 -0.2196  0.4947
17399TIP3    H173688   5.125   0.524   0.540 -0.3630 -1.4513  0.5851
17399TIP3    H273689   5.215   0.410   0.496 -0.2656 -0.3556 -2.3107
17400TIP3   OH273690   0.744   2.906   5.867  0.0984  0.3560 -0.3469
17400TIP3    H173691   0.829   2.890   5.825  0.0941 -0.5063 -0.0638
17400TIP3    H273692   0.724   2.823   5.911  0.7449  1.6280  2.5136
17401TIP3   OH273693   0.909   5.002  13.270 -0.1378  0.3816 -0.0622
17401TIP3    H173694   0.996   5.005  13.230  0.2052  0.3728  0.6689
17401TIP3    H273695   0.883   5.094  13.277  0.2373  0.4480  0.6031
17402TIP3   OH273696   1.293   4.604   3.625  0.3519 -0.4254  0.1485
17402TIP3    H173697   1.293   4.547   3.702 -2.6147 -0.2740  0.3478
17402TIP3    H273698   1.261   4.688   3.656 -0.2162 -0.1468 -1.0992
17403TIP3   OH273699   3.112   5.385   1.602  0.3440 -0.0637  0.1764
17403TIP3    H173700   3.040   5.399   1.541 -0.9625  1.1342  1.8902
17403TIP3    H273701   3.190   5.386   1.547 -0.9124 -1.4772 -1.7558
17404TIP3   OH273702   2.073   0.266  13.357 -0.3620  0.4474  0.3704
17404TIP3    H173703   2.157   0.251  13.400 -0.5987 -0.7066  0.4608
17404TIP3    H273704   2.089   0.247  13.264 -0.8365 -1.2594  0.5907
17405TIP3   OH273705   2.182   3.818   2.687 -0.0888 -0.5111 -0.2277
17405TIP3    H173706   2.273   3.824   2.716 -0.4261 -1.8942  1.2848
17405TIP3    H273707   2.170   3.893   2.629  1.3791  1.0014  1.3100
17406TIP3   OH273708   3.235   4.881   4.130  0.0380 -0.5517  0.3835
17406TIP3    H173709   3.183   4.952   4.167 -0.4431 -0.3909 -0.5749
17406TIP3    H273710   3.174   4.807   4.124 -0.0411 -0.4267 -0.5391
17407TIP3   OH273711   6.369   4.618  11.236 -0.2053 -0.0020 -0.0898
17407TIP3    H173712   6.298   4.651  11.182  0.4719  1.2800 -0.2285
17407TIP3    H273713   6.393   4.534  11.196 -1.6905 -0.5086  0.0327
17408TIP3   OH273714   0.132   1.179  17.255  0.1437  0.3136  0.5130
17408TIP3    H173715   0.186   1.223  17.321  0.6337 -2.0349  1.7728
17408TIP3    H273716   0.176   1.096  17.238 -0.6240  0.3282 -1.9533
17409TIP3   OH273717   1.437   6.717   2.474  0.0924 -0.4835 -0.1735
17409TIP3    H173718   1.494   6.641   2.485 -0.1303 -0.6241  0.0132
17409TIP3    H273719   1.460   6.752   2.388  1.1446  0.0422  0.3075
17410TIP3   OH273720   6.752   5.918  12.631  0.1567  0.3649 -0.1170
17410TIP3    H173721   6.819   5.961  12.683 -0.5293  0.0863  1.0292
17410TIP3    H273722   6.734   5.979  12.560  3.8384 -0.8405 -2.3806
17411TIP3   OH273723   4.091   0.898  15.990 -0.3451 -0.2247 -0.4988
17411TIP3    H173724   4.174   0.896  16.037 -0.4786  0.2344 -0.2302
17411TIP3    H273725   4.035   0.955  16.043 -1.0894 -1.1597 -0.2569
17412TIP3   OH273726   3.679   2.832   4.243 -0.6296 -0.3246 -0.5221
17412TIP3    H173727   3.766   2.828   4.282 -0.2858 -0.6627 -1.3010
17412TIP3    H273728   3.619   2.807   4.313 -0.0405 -0.7556 -0.1675
17413TIP3   OH273729   4.266   1.535   0.562  0.0903 -0.5155 -0.6873
17413TIP3    H173730   4.189   1.525   0.619 -0.9729 -1.6283 -2.2474
17413TIP3    H273731   4.233   1.584   0.486  0.7080 -1.6940 -1.7417
17414TIP3   OH273732   6.273   2.198  12.930  0.0804 -0.0020 -0.1809
17414TIP3    H173733   6.336   2.126  12.935  1.3343  1.1406  2.1192
17414TIP3    H273734   6.193   2.162  12.970  0.5497 -0.2950  0.5244
17415TIP3   OH273735   4.556   1.964   3.315 -0.0326  0.2015  0.1367
17415TIP3    H173736   4.596   1.929   3.235 -0.4212  1.6781 -0.7479
17415TIP3    H273737   4.532   2.054   3.292 -0.6593  0.4793  1.7562
17416TIP3   OH273738   1.694   3.594  11.706 -0.6139 -0.1367  0.4817
17416TIP3    H173739   1.642   3.558  11.778  2.6317 -1.0748  2.6003
17416TIP3    H273740   1.720   3.681  11.736  0.9978 -0.6390  0.6450
17417TIP3   OH273741   1.855   1.735  13.363 -0.1518  0.4068 -0.8875
17417TIP3    H173742   1.865   1.688  13.446  3.0910 -0.1489 -1.4936
17417TIP3    H273743   1.794   1.681  13.312  0.2620 -0.9289 -0.0100
17418TIP3   OH273744   3.547   2.589  15.811 -0.1744 -0.1030  0.3040
17418TIP3    H173745   3.475   2.542  15.853 -2.1186  2.4192  0.0527
17418TIP3    H273746   3.556   2.669  15.861  1.1897  0.4877 -0.8211
17419TIP3   OH273747   4.725   5.438  15.155  0.3124 -0.0430 -0.2072
17419TIP3    H173748   4.670   5.363  15.180 -2.4144  2.0893  0.6980
17419TIP3    H273749   4.695   5.462  15.068 -0.3013  1.2298  0.3440
17420TIP3   OH273750   3.675   1.890  17.342 -0.1630  0.3890 -0.4956
17420TIP3    H173751   3.670   1.798  17.371  1.0569  0.4021 -0.1544
17420TIP3    H273752   3.589   1.909  17.307 -0.8450 -0.5001  0.6211
17421TIP3   OH273753   3.225   0.695   5.387 -0.1365  0.5210  0.5481
17421TIP3    H173754   3.308   0.742   5.398  1.2389 -1.0683 -2.0794
17421TIP3    H273755   3.249   0.603   5.387 -1.5692  0.0451 -1.8998
17422TIP3   OH273756   6.121   4.114  12.408  0.2248 -0.1937  0.2236
17422TIP3    H173757   6.097   4.097  12.316  0.7174  0.9612 -0.1443
17422TIP3    H273758   6.212   4.141  12.404  0.1510  0.1982  1.0113
17423TIP3   OH273759   0.474   5.017  15.766 -0.8037 -0.1090 -0.3073
17423TIP3    H173760   0.465   4.976  15.852 -0.4424 -0.3721 -0.3932
17423TIP3    H273761   0.569   5.022  15.751 -0.8455  0.5554 -0.3957
17424TIP3   OH273762   2.845   6.102  16.990 -0.1034 -0.4758  0.3044
17424TIP3    H173763   2.821   6.190  16.961  0.8301  0.0098  0.9630
17424TIP3    H273764   2.762   6.062  17.017 -0.4530  0.4495  0.6431
17425TIP3   OH273765   0.980   0.757   3.510  0.5269 -0.1092 -0.2151
17425TIP3    H173766   1.039   0.682   3.505  0.7552 -0.1133  1.6375
17425TIP3    H273767   0.921   0.736   3.583 -1.5333  0.0762 -1.7345
17426TIP3   OH273768   4.480   5.578  13.902  0.3525 -0.6425  0.1624
17426TIP3    H173769   4.425   5.537  13.835 -0.6135  0.8657 -0.0043
17426TIP3    H273770   4.501   5.506  13.962 -1.8627 -1.2905  0.2599
17427TIP3   OH273771   3.573   3.961  12.514  0.0677  0.2331  0.3803
17427TIP3    H173772   3.573   3.993  12.423 -0.4805 -1.9187 -0.4326
17427TIP3    H273773   3.657   3.915  12.523 -0.2200 -0.2386  0.6865
17428TIP3   OH273774   2.925   1.824  11.302  0.0552 -0.1629 -0.5575
17428TIP3    H173775   3.016   1.801  11.282  0.6089  2.2402 -1.1254
17428TIP3    H273776   2.905   1.895  11.241 -1.8643  0.0717  0.2917
17429TIP3   OH273777   5.224   3.040   4.451  0.5399  0.1209 -0.7495
17429TIP3    H173778   5.168   3.036   4.528  1.1024  0.3767 -0.3193
17429TIP3    H273779   5.261   3.128   4.452  2.8682 -0.7633  0.3734
17430TIP3   OH273780   0.323   5.095  11.961  0.3066  0.1680  0.2572
17430TIP3    H173781   0.230   5.094  11.937  0.5601  0.8696 -0.8805
17430TIP3    H273782   0.341   5.188  11.977  0.8459  0.0478  0.3326
17431TIP3   OH273783   3.510   3.643   5.986  0.0797 -0.1505 -0.4062
17431TIP3    H173784   3.527   3.550   5.973  0.2597 -0.2440  0.4696
17431TIP3    H273785   3.518   3.657   6.080 -0.8065  0.5821 -0.4258
17432TIP3   OH273786   5.253   4.358   5.254 -0.1174  0.3811 -0.0123
17432TIP3    H173787   5.305   4.431   5.221  0.2821  0.7360  1.3153
17432TIP3    H273788   5.237   4.303   5.178  0.1942  1.4831 -0.8950
17433TIP3   OH273789   0.453   5.499  13.762 -0.1225 -0.4986 -0.7811
17433TIP3    H173790   0.496   5.499  13.848 -0.9214 -2.5685 -0.3122
17433TIP3    H273791   0.524   5.486  13.699  0.3476 -0.1340 -0.3356
17434TIP3   OH273792   3.233   6.775  15.343 -0.0383 -0.1695  0.8311
17434TIP3    H173793   3.221   6.733  15.428 -0.6544 -1.4999  0.1108
17434TIP3    H273794   3.187   6.719  15.281  1.3075  0.1827 -0.5495
17435TIP3   OH273795   0.477   3.935  15.607 -0.1437  0.1865 -0.3574
17435TIP3    H173796   0.489   3.932  15.512  0.6573  0.6979 -0.2814
17435TIP3    H273797   0.523   3.857  15.639 -1.6013 -0.7751 -0.4778
17436TIP3   OH273798   3.745   4.041   5.421 -0.1276 -0.4622  0.4455
17436TIP3    H173799   3.766   3.948   5.435  1.2466 -0.0523  1.2876
17436TIP3    H273800   3.772   4.058   5.331 -0.1841 -0.8172  0.3574
17437TIP3   OH273801   5.242   6.011  13.665 -0.4059 -0.1711 -0.0506
17437TIP3    H173802   5.309   5.956  13.626 -0.7058 -0.4619 -0.1549
17437TIP3    H273803   5.185   6.036  13.592  0.8316  1.9041 -0.3821
17438TIP3   OH273804   4.520   4.575   6.281 -0.2681 -0.2512 -0.1971
17438TIP3    H173805   4.481   4.629   6.349  0.7154  0.4589 -0.1685
17438TIP3    H273806   4.502   4.485   6.308  0.3769  0.0118  1.1803
17439TIP3   OH273807   5.810   3.813  13.793  0.5087 -0.4049 -0.3594
17439TIP3    H173808   5.812   3.904  13.823 -0.3949  0.1469 -1.8938
17439TIP3    H273809   5.902   3.792  13.776  0.5482  1.0257 -2.2169
17440TIP3   OH273810   0.511   0.525   0.255 -0.1226 -0.2587 -0.0517
17440TIP3    H173811   0.511   0.619   0.268 -0.7727 -0.3147  0.4207
17440TIP3    H273812   0.474   0.489   0.336 -0.9929 -0.8426 -0.6856
17441TIP3   OH273813   3.934   4.827  15.034  0.2455  0.4656 -0.0569
17441TIP3    H173814   4.001   4.813  14.968 -0.9867 -0.7694 -1.0936
17441TIP3    H273815   3.971   4.790  15.114  0.8021 -0.2155 -0.6199
17442TIP3   OH273816   4.675   5.396  17.078  0.2236  0.3373  0.2505
17442TIP3    H173817   4.733   5.472  17.074 -0.4850  0.8768 -0.1941
17442TIP3    H273818   4.634   5.401  17.165  0.4583  0.2564  0.3635
17443TIP3   OH273819   5.542   1.584   5.731 -0.5454 -0.4971 -0.5640
17443TIP3    H173820   5.509   1.524   5.663  0.6922 -1.0647 -0.6987
17443TIP3    H273821   5.632   1.603   5.704 -0.7217  0.9853 -0.2066
17444TIP3   OH273822   2.569   4.913  12.777  0.4608  0.1527  0.1394
17444TIP3    H173823   2.490   4.865  12.802  0.7852  0.6659  2.3503
17444TIP3    H273824   2.619   4.852  12.723  0.0708 -1.3991  1.4736
17445TIP3   OH273825   3.679   0.469  14.041 -0.9238 -0.7092  0.4529
17445TIP3    H173826   3.761   0.497  14.082 -0.3318 -2.2780  0.3772
17445TIP3    H273827   3.654   0.389  14.087 -1.2710 -1.4440 -0.9447
17446TIP3   OH273828   4.058   4.465   4.460 -0.3246 -0.0194 -0.3091
17446TIP3    H173829   4.015   4.382   4.481  0.0236 -0.2399 -0.4578
17446TIP3    H273830   4.121   4.478   4.531  0.0505 -0.1921 -0.6059
17447TIP3   OH273831   2.250   1.140  15.833 -0.3553  0.4678  0.3540
17447TIP3    H173832   2.206   1.165  15.752  0.7016  2.3920  0.3168
17447TIP3    H273833   2.255   1.045  15.829 -1.2441  0.4551 -1.3370
17448TIP3   OH273834   1.469   0.484   2.101  0.2651 -0.4335 -0.3744
17448TIP3    H173835   1.519   0.427   2.043 -1.7757 -1.3324 -1.3572
17448TIP3    H273836   1.378   0.469   2.077 -0.4847  1.5274  0.9551
17449TIP3   OH273837   1.953   0.602   1.807  0.1528  0.3173 -0.3462
17449TIP3    H173838   1.867   0.632   1.778  0.7211 -0.1680 -2.6944
17449TIP3    H273839   1.935   0.521   1.855 -0.7659  0.7474  0.0590
17450TIP3   OH273840   3.313   1.244  15.799 -0.3059  0.2144  0.6843
17450TIP3    H173841   3.385   1.181  15.794 -0.2398  0.2111  1.4573
17450TIP3    H273842   3.329   1.304  15.726 -0.2569 -0.5373  0.0589
17451TIP3   OH273843   0.395   4.098  16.924 -0.2222 -0.7920 -0.3216
17451TIP3    H173844   0.347   4.180  16.915 -1.6488 -1.6752 -1.1077
17451TIP3    H273845   0.426   4.078  16.836  1.3918 -0.3978  0.1125
17452TIP3   OH273846   5.333   0.114   4.833  0.2635  0.3010  0.2562
17452TIP3    H173847   5.323   0.019   4.843  0.6914  0.2888  0.5615
17452TIP3    H273848   5.402   0.138   4.895  0.5278  0.7316 -0.1979
17453TIP3   OH273849   2.331   5.085   3.584  0.3383  0.0727 -0.3079
17453TIP3    H173850   2.358   4.993   3.587 -0.2512 -0.1330 -1.0593
17453TIP3    H273851   2.391   5.130   3.644  0.0627 -0.9439  0.7736
17454TIP3   OH273852   5.955   6.072   5.743  0.1617 -0.3453  0.0026
17454TIP3    H173853   5.868   6.102   5.716  0.9390  1.6253 -0.4654
17454TIP3    H273854   5.944   6.044   5.834 -1.1145 -0.8786 -0.2962
17455TIP3   OH273855   6.140   5.050   3.851 -0.7042 -0.4087 -0.1842
17455TIP3    H173856   6.094   5.012   3.926 -0.5768 -0.7014 -0.2523
17455TIP3    H273857   6.071   5.073   3.789 -0.7212 -1.7595 -0.7172
17456TIP3   OH273858   4.197   2.964  11.352 -0.1785  0.3312 -0.7382
17456TIP3    H173859   4.284   3.003  11.341 -0.4263  1.8489  1.8267
17456TIP3    H273860   4.137   3.036  11.332 -0.8992 -0.6661 -2.3297
17457TIP3   OH273861   5.543   5.858  10.820  0.4062  0.1605 -0.2983
17457TIP3    H173862   5.619   5.910  10.849  0.3299  0.6692 -0.9744
17457TIP3    H273863   5.580   5.774  10.795  0.3519 -0.6537  2.1449
17458TIP3   OH273864   2.029   4.645   1.966 -1.0995 -0.1873  0.3781
17458TIP3    H173865   2.086   4.720   1.983 -0.6367 -0.6898  1.0510
17458TIP3    H273866   2.021   4.601   2.050  0.0254 -1.8614 -0.3489
17459TIP3   OH273867   0.286   0.873   1.453 -0.2654 -0.1990 -0.2223
17459TIP3    H173868   0.250   0.789   1.480 -1.0555 -0.0632 -0.8384
17459TIP3    H273869   0.363   0.849   1.400 -0.6240 -0.5474 -0.5986
17460TIP3   OH273870   6.299   6.770   1.168  0.1622 -0.2738 -0.3127
17460TIP3    H173871   6.367   6.812   1.222  0.8168 -2.0727  0.3400
17460TIP3    H273872   6.320   6.798   1.079  1.4657 -0.3755 -0.0678
17461TIP3   OH273873   6.615   1.364  13.761 -0.2553 -0.5173 -0.3382
17461TIP3    H173874   6.520   1.356  13.764 -0.2945 -0.4486 -1.1990
17461TIP3    H273875   6.643   1.294  13.702  0.1195  0.1911 -1.0169
17462TIP3   OH273876   5.908   6.297  11.805  0.6529  0.3611 -0.0634
17462TIP3    H173877   5.846   6.353  11.853  0.4306 -1.0408  1.3685
17462TIP3    H273878   5.906   6.331  11.716 -0.6635  1.6223  0.3932
17463TIP3   OH273879   0.110   1.095   0.954  0.4659 -0.6060  0.1413
17463TIP3    H173880   0.068   1.111   1.038  0.1411  0.9802 -0.2902
17463TIP3    H273881   0.114   1.181   0.912  2.9533 -0.9162 -0.4121
17464TIP3   OH273882   3.007   0.444   4.067 -0.6681  0.1909  0.1355
17464TIP3    H173883   2.954   0.372   4.100  0.6309 -2.6990 -3.4722
17464TIP3    H273884   2.965   0.470   3.985  1.8732 -0.3634 -1.4454
17465TIP3   OH273885   4.085   2.679  15.809 -0.3247 -0.1872 -0.1753
17465TIP3    H173886   4.043   2.627  15.740 -0.8988  2.2538 -1.8089
17465TIP3    H273887   4.018   2.742  15.835  0.3380 -0.2202  1.7141
17466TIP3   OH273888   1.715   1.499   2.598 -0.1955  0.1857 -0.4499
17466TIP3    H173889   1.760   1.445   2.664 -1.0456 -0.4595 -0.3841
17466TIP3    H273890   1.676   1.436   2.538 -2.1339  0.6768  0.2317
17467TIP3   OH273891   1.730   2.454   3.061 -0.0555  0.1155 -0.2169
17467TIP3    H173892   1.678   2.401   3.000  0.5187  0.0121 -0.6256
17467TIP3    H273893   1.786   2.390   3.105 -0.6013  0.1657  0.5657
17468TIP3   OH273894   0.493   0.035   4.641  0.0316 -0.2762 -0.0209
17468TIP3    H173895   0.429  -0.036   4.644 -1.1111  0.7363  1.2282
17468TIP3    H273896   0.548   0.021   4.718 -0.2647  0.2207  0.2894
17469TIP3   OH273897   6.094   4.055  15.391 -0.4698 -0.2224  0.3613
17469TIP3    H173898   6.021   4.046  15.330 -0.8739 -1.6281  1.0315
17469TIP3    H273899   6.172   4.051  15.335 -0.8421 -1.0980 -0.1181
17470TIP3   OH273900   6.255   5.894  17.387 -0.4217 -0.3954  0.2680
17470TIP3    H173901   6.280   5.919  17.476 -0.6896 -1.7237  0.7408
17470TIP3    H273902   6.309   5.950  17.331  0.4613 -0.1955  1.2679
17471TIP3   OH273903   2.503   0.976   1.799 -0.4157 -0.1556 -0.1401
17471TIP3    H173904   2.572   0.921   1.837 -0.9896 -0.4217  0.5368
17471TIP3    H273905   2.444   0.914   1.757 -2.1071 -0.3138  2.2503
17472TIP3   OH273906   0.475   4.922   3.555 -0.3351 -0.0569  0.5907
17472TIP3    H173907   0.489   5.016   3.565 -0.8910 -0.0969  2.0278
17472TIP3    H273908   0.547   4.881   3.603 -1.1237 -0.3145  1.6106
17473TIP3   OH273909   4.765   5.352   1.166  0.0839 -0.0794 -0.2883
17473TIP3    H173910   4.856   5.351   1.197 -0.4044 -3.4797  1.5045
17473TIP3    H273911   4.729   5.434   1.200  1.9965  0.4623  0.5480
17474TIP3   OH273912   1.045   1.355  12.769 -0.0402 -0.3857  1.4090
17474TIP3    H173913   1.118   1.323  12.715 -1.3029 -0.6021 -0.2858
17474TIP3    H273914   1.037   1.289  12.838  0.2985 -1.2965  0.6196
17475TIP3   OH273915   0.422   5.934   4.048 -0.1469 -0.4644  0.1572
17475TIP3    H173916   0.397   5.863   4.107 -0.0138 -1.4978 -0.9909
17475TIP3    H273917   0.376   6.011   4.082 -0.6104 -1.1797  1.1915
17476TIP3   OH273918   1.303   1.450   0.961  0.0922 -0.5121 -0.3739
17476TIP3    H173919   1.209   1.432   0.970  0.5422 -3.4592 -0.6406
17476TIP3    H273920   1.343   1.407   1.037  1.3232 -0.1024 -0.7678
17477TIP3   OH273921   5.799   1.285  11.899 -0.2202 -0.4702  0.1194
17477TIP3    H173922   5.803   1.373  11.862 -0.1458 -0.3990  0.2957
17477TIP3    H273923   5.716   1.283  11.947  1.1245  0.5504  2.7181
17478TIP3   OH273924   1.906   6.755  17.012  0.0940  0.6003 -0.0469
17478TIP3    H173925   1.973   6.806  16.966  0.2122  0.8510  0.4010
17478TIP3    H273926   1.889   6.804  17.092 -0.7350  0.6123 -0.2256
17479TIP3   OH273927   2.739   3.470   1.127  0.4343 -0.4959  0.0465
17479TIP3    H173928   2.711   3.420   1.050 -0.9038 -1.8686  1.3586
17479TIP3    H273929   2.700   3.556   1.115  1.3267 -0.2510 -1.4164
17480TIP3   OH273930   0.799   3.372  13.052 -0.1304  0.1797  0.2754
17480TIP3    H173931   0.885   3.332  13.067 -0.8738 -1.2707  0.8318
17480TIP3    H273932   0.763   3.324  12.978 -0.6799  0.4419  0.3716
17481TIP3   OH273933   1.609   6.431  15.711 -0.3383  0.1418  0.1485
17481TIP3    H173934   1.586   6.500  15.774 -1.9455 -0.3766  0.1858
17481TIP3    H273935   1.593   6.350  15.759 -1.0804 -0.2565 -0.7469
17482TIP3   OH273936   3.444   3.680  15.535 -0.0951 -0.1411 -0.1594
17482TIP3    H173937   3.525   3.630  15.544  0.9015  1.4498  0.2161
17482TIP3    H273938   3.471   3.760  15.490 -1.2100  0.9420  1.0226
17483TIP3   OH273939   2.525   2.420   1.488  0.0253  0.3205  0.3230
17483TIP3    H173940   2.555   2.492   1.432  1.8665 -0.4429  0.2843
17483TIP3    H273941   2.525   2.456   1.576 -1.3228  1.0376  0.0608
17484TIP3   OH273942   2.974   1.513  13.310 -0.1349  1.0562  0.4467
17484TIP3    H173943   2.933   1.505  13.224 -0.3059  0.1805  0.6018
17484TIP3    H273944   3.027   1.592  13.303  0.7272  0.4092 -0.8332
17485TIP3   OH273945   2.098   1.247  12.971  0.2893 -0.1282  0.0616
17485TIP3    H173946   2.139   1.167  12.938  0.9404 -0.2190  1.0181
17485TIP3    H273947   2.017   1.217  13.011 -0.2361 -0.0881 -0.9513
17486TIP3   OH273948   6.056   3.475   0.009  0.3230  0.4297  0.0993
17486TIP3    H173949   6.129   3.530   0.037  1.3275 -1.1184  0.6120
17486TIP3    H273950   6.058   3.400   0.068  0.2884 -1.1804 -1.8259
17487TIP3   OH273951   0.955   1.995   5.317 -0.8277 -0.0415 -0.1597
17487TIP3    H173952   1.020   2.061   5.343 -2.5054  1.2653  0.9817
17487TIP3    H273953   0.906   1.978   5.397 -2.4449 -0.3064 -1.1685
17488TIP3   OH273954   2.332   5.744   4.173  0.1757  0.3786 -0.2007
17488TIP3    H173955   2.236   5.745   4.167  0.1102 -0.6402  0.4366
17488TIP3    H273956   2.356   5.835   4.190 -0.6991  0.5978 -0.0899
17489TIP3   OH273957   0.152   1.937   2.567  0.1377  0.0542 -0.6621
17489TIP3    H173958   0.113   1.850   2.558  0.9344 -0.4568  0.6517
17489TIP3    H273959   0.095   1.983   2.630 -0.1983  0.4624 -1.2426
17490TIP3   OH273960   3.182   5.949  13.490 -0.2146  0.5383  0.2958
17490TIP3    H173961   3.095   5.911  13.476  0.2107  0.2588 -2.1718
17490TIP3    H273962   3.174   6.039  13.460  0.4939  0.2743 -0.7698
17491TIP3   OH273963   6.027   1.648   3.569  0.3465 -0.4706 -0.3865
17491TIP3    H173964   6.092   1.712   3.598  0.1563  1.5190 -3.7712
17491TIP3    H273965   6.056   1.624   3.481 -2.2402 -1.2915 -1.1023
17492TIP3   OH273966   6.205   4.094  11.086  0.2893  0.5787  0.1777
17492TIP3    H173967   6.251   4.011  11.091  0.5778  0.6747 -0.6716
17492TIP3    H273968   6.192   4.108  10.992  0.5069  1.6334  0.2963
17493TIP3   OH273969   2.046   0.196   0.694  0.5125  0.3474 -1.0385
17493TIP3    H173970   2.027   0.286   0.666 -0.5780  0.2542 -0.6845
17493TIP3    H273971   1.962   0.164   0.727  0.1548 -1.7653 -3.6787
17494TIP3   OH273972   3.253   4.349   5.682  0.0513 -0.0221 -0.7280
17494TIP3    H173973   3.286   4.363   5.771  0.8684  0.2158 -1.0689
17494TIP3    H273974   3.306   4.406   5.627 -0.6276  0.0306 -1.3411
17495TIP3   OH273975   5.902   0.580  17.253 -0.1798 -0.2190 -0.3596
17495TIP3    H173976   5.835   0.579  17.184  1.3290 -0.1385 -1.9075
17495TIP3    H273977   5.919   0.673  17.270 -0.4488 -0.2387  0.0222
17496TIP3   OH273978   1.123   2.094  10.370 -0.0131  0.2099 -0.0306
17496TIP3    H173979   1.045   2.040  10.380  0.2769  0.0895  1.9400
17496TIP3    H273980   1.090   2.184  10.372 -0.2137  0.1519 -0.5249
17497TIP3   OH273981   6.745   5.956  13.036 -0.1402  1.0045 -0.5350
17497TIP3    H173982   6.789   5.949  13.121 -1.0963  0.6476 -0.0551
17497TIP3    H273983   6.816   5.965  12.973  0.7421 -1.3063  0.0171
17498TIP3   OH273984   5.600   5.627  13.789  0.0042  0.2005 -0.1593
17498TIP3    H173985   5.547   5.619  13.710  0.8887  0.3764 -0.7822
17498TIP3    H273986   5.555   5.692  13.843 -0.9423 -0.3793 -0.2319
17499TIP3   OH273987   3.480   1.636   3.346  0.3791  0.2686 -0.0179
17499TIP3    H173988   3.512   1.547   3.364 -0.3342  0.0370  0.1163
17499TIP3    H273989   3.559   1.685   3.326  0.6907 -0.6143 -1.0372
17500TIP3   OH273990   3.120   0.775  13.479 -0.4293 -0.6613 -0.0465
17500TIP3    H173991   3.187   0.748  13.417 -0.9690 -1.6577 -0.2265
17500TIP3    H273992   3.155   0.752  13.565  0.0570  0.1483 -0.0209
17501TIP3   OH273993   0.493   3.627  13.620 -0.2846 -0.3582 -0.3762
17501TIP3    H173994   0.552   3.695  13.589 -1.6378  0.9158 -0.2265
17501TIP3    H273995   0.531   3.545  13.587 -0.0202  0.6735 -2.7952
17502TIP3   OH273996   0.003   4.767  15.115 -0.3439  0.0163  0.0079
17502TIP3    H173997   0.074   4.795  15.057  1.0502 -1.4922  0.9198
17502TIP3    H273998  -0.053   4.712  15.059 -0.3226  0.5040 -0.4969
17503TIP3   OH273999   1.083   6.743  13.129 -0.2490 -0.0294  0.9323
17503TIP3    H174000   1.095   6.782  13.043 -1.9032 -3.1709 -0.9037
17503TIP3    H274001   1.167   6.701  13.148  0.1685  0.7967  0.9556
17504TIP3   OH274002   4.270   0.851   0.036 -0.1653  0.1232  0.1417
17504TIP3    H174003   4.222   0.910  -0.022  0.2141  0.0916 -0.2120
17504TIP3    H274004   4.227   0.766   0.026 -0.3688  0.2145  0.2349
17505TIP3   OH274005   6.631   3.341   0.351 -0.2387  0.6112 -0.0629
17505TIP3    H174006   6.617   3.252   0.318 -1.1711  0.7282 -0.0028
17505TIP3    H274007   6.726   3.351   0.352  0.0513 -1.2886  2.3097
17506TIP3   OH274008   4.172   3.447   6.080 -0.0059  0.3389  0.1471
17506TIP3    H174009   4.178   3.542   6.068 -2.5707  0.8301  1.8630
17506TIP3    H274010   4.234   3.428   6.150 -0.0287  0.9005  0.3303
17507TIP3   OH274011   3.957   1.336  13.516  0.4411  0.1095  0.0349
17507TIP3    H174012   3.931   1.372  13.600  0.1437 -0.0311  0.0044
17507TIP3    H274013   3.891   1.269  13.497  1.1268 -0.6251  0.2063
17508TIP3   OH274014   1.333   6.320   5.458 -0.2290  0.1758  0.5692
17508TIP3    H174015   1.276   6.249   5.489 -0.5041 -0.8291 -1.9721
17508TIP3    H274016   1.421   6.281   5.457 -0.3071 -0.0185 -0.3460
17509TIP3   OH274017   0.506   5.762  10.821 -0.4244  0.3874  0.1568
17509TIP3    H174018   0.461   5.734  10.901 -1.4705 -0.1946 -0.6005
17509TIP3    H274019   0.453   5.835  10.788 -0.3219  0.2588 -0.3016
17510TIP3   OH274020   6.431   1.929  14.969 -0.0213 -0.0170  0.0374
17510TIP3    H174021   6.448   1.898  15.058  2.0599 -2.4791 -1.0678
17510TIP3    H274022   6.383   1.858  14.927 -1.5064  1.3594 -0.6831
17511TIP3   OH274023   0.794   2.832   0.972 -0.1387  0.3349  0.0056
17511TIP3    H174024   0.777   2.851   1.064 -1.2533 -0.3227 -0.0494
17511TIP3    H274025   0.849   2.754   0.974 -0.5298  0.0572  0.1161
17512TIP3   OH274026   1.664   0.791   4.119  0.8383  0.0859 -0.2005
17512TIP3    H174027   1.742   0.828   4.077  1.5459  0.7585  1.6321
17512TIP3    H274028   1.593   0.851   4.097  1.0707  0.1397 -0.8351
17513TIP3   OH274029   2.362   6.722  11.042  0.5722 -0.1174 -0.2987
17513TIP3    H174030   2.321   6.644  11.078  0.4644  0.0208 -0.1202
17513TIP3    H274031   2.305   6.794  11.068  0.2433 -0.0602 -1.1380
17514TIP3   OH274032   1.672   1.751   5.461  0.6579  0.5545  0.1591
17514TIP3    H174033   1.715   1.737   5.545 -1.8334  0.1481  1.4606
17514TIP3    H274034   1.616   1.828   5.475 -0.9121 -0.3956 -0.6071
17515TIP3   OH274035   0.834   1.673   1.380 -0.8046  0.6372 -0.1303
17515TIP3    H174036   0.924   1.641   1.385 -0.7690  0.4549 -1.4275
17515TIP3    H274037   0.780   1.596   1.398 -0.7015  0.3972 -0.8240
17516TIP3   OH274038   1.616   4.348   0.336  0.2128  0.4959  0.7495
17516TIP3    H174039   1.703   4.335   0.374  0.3078 -0.6104  0.1840
17516TIP3    H274040   1.633   4.393   0.253  0.4704 -1.6057 -0.3980
17517TIP3   OH274041   1.512   6.575  15.023  0.0558  0.8998 -0.3033
17517TIP3    H174042   1.493   6.543  14.934 -1.2733 -1.3224  0.6844
17517TIP3    H274043   1.576   6.513  15.057 -1.6668 -0.1544  1.2452
17518TIP3   OH274044   4.357   5.984   2.715  0.9212  0.3054  0.3500
17518TIP3    H174045   4.428   5.998   2.778  1.0008  1.1352  0.0966
17518TIP3    H274046   4.381   5.905   2.667  1.3597  0.2329  0.6902
17519TIP3   OH274047   1.466   3.740  15.151  0.0289  0.0811  0.5793
17519TIP3    H174048   1.509   3.759  15.068 -0.4699 -1.4655 -0.0898
17519TIP3    H274049   1.384   3.789  15.147  0.0485  0.0869  0.1771
17520TIP3   OH274050   1.206   5.134  10.491 -0.2700  0.1847  0.4247
17520TIP3    H174051   1.237   5.219  10.520 -2.1905  0.7883  0.8624
17520TIP3    H274052   1.158   5.098  10.566 -0.3793 -0.8208 -0.1005
17521TIP3   OH274053   2.405   6.483   2.015 -0.0843  0.2938 -0.7109
17521TIP3    H174054   2.473   6.549   2.032 -0.8718  0.7925  0.6629
17521TIP3    H274055   2.443   6.401   2.046 -0.4013  0.7206  0.9068
17522TIP3   OH274056   0.672   3.177   1.668  0.4442  0.0701 -0.3735
17522TIP3    H174057   0.703   3.113   1.733  0.2303  0.7503  0.4132
17522TIP3    H274058   0.677   3.261   1.713 -2.3226  0.2477 -0.2739
17523TIP3   OH274059   1.276   4.625   3.054  0.4308  0.1911  0.1068
17523TIP3    H174060   1.304   4.542   3.093  0.6489  0.2893  0.1608
17523TIP3    H274061   1.356   4.678   3.051 -0.0365  1.0687  1.7305
17524TIP3   OH274062   2.308   1.204   0.071  0.1249  0.6972 -0.5772
17524TIP3    H174063   2.355   1.155   0.003  0.4045  0.7954 -0.4560
17524TIP3    H274064   2.306   1.145   0.146 -0.1160  0.6186 -0.6448
17525TIP3   OH274065   3.368   3.393   2.739  0.0275  0.3844  0.2968
17525TIP3    H174066   3.273   3.400   2.741 -0.0209 -0.3949  1.0733
17525TIP3    H274067   3.389   3.326   2.804  1.0313 -0.3591 -0.7595
17526TIP3   OH274068   3.745   6.575  14.573 -0.6996 -0.2774 -0.2540
17526TIP3    H174069   3.772   6.586  14.482 -1.2652 -0.4381 -0.4503
17526TIP3    H274070   3.766   6.484  14.594  1.0645  0.2332  0.3553
17527TIP3   OH274071   2.745   4.935   4.312  0.2385  0.0183 -0.0725
17527TIP3    H174072   2.710   5.020   4.285  0.5946  0.1851 -0.0246
17527TIP3    H274073   2.670   4.876   4.312 -0.6136  0.9500  2.5806
17528TIP3   OH274074   3.082   3.700  15.181  0.3500  0.5098  0.1741
17528TIP3    H174075   3.062   3.778  15.232 -0.5322  0.3179  0.1370
17528TIP3    H274076   3.000   3.679  15.136  1.8457  2.6065 -4.0671
17529TIP3   OH274077   4.997   3.443  15.973 -0.1062 -0.8323  0.3214
17529TIP3    H174078   4.928   3.499  16.008  0.9452 -1.2398  3.3178
17529TIP3    H274079   4.956   3.396  15.901 -1.9041  1.4600 -0.2316
17530TIP3   OH274080   2.051   5.605  16.847 -0.0966  0.2398 -0.1355
17530TIP3    H174081   2.086   5.692  16.863  4.2441 -1.1197 -1.0527
17530TIP3    H274082   2.026   5.573  16.934 -0.7471  1.9120  0.3366
17531TIP3   OH274083   5.712   6.674  15.941  1.0273 -0.3688  0.1317
17531TIP3    H174084   5.802   6.678  15.907  1.9754 -2.2969  2.1493
17531TIP3    H274085   5.708   6.743  16.007  1.7248 -1.4921  1.4021
17532TIP3   OH274086   3.963   0.783  12.253  0.2456 -0.3744 -0.0927
17532TIP3    H174087   3.937   0.872  12.274 -2.2221 -1.0934  0.1368
17532TIP3    H274088   3.980   0.784  12.159 -0.8570  0.0907 -0.2899
17533TIP3   OH274089   4.693   5.247  12.578 -0.1768 -0.2023 -0.1644
17533TIP3    H174090   4.679   5.165  12.531 -2.5815 -0.2276  0.4251
17533TIP3    H274091   4.775   5.281  12.544  0.1480 -2.1280 -1.4791
17534TIP3   OH274092   1.366   2.411   0.692  0.4759  0.2186  0.1295
17534TIP3    H174093   1.364   2.318   0.714  1.1687  0.2710  0.4525
17534TIP3    H274094   1.312   2.419   0.613  0.4012 -0.4553  0.1107
17535TIP3   OH274095   6.072   5.125   4.293  0.1588 -0.8101  0.1546
17535TIP3    H174096   6.028   5.117   4.208 -1.0386  1.0353  0.5592
17535TIP3    H274097   6.009   5.090   4.356 -0.6433  1.4748  0.6946
17536TIP3   OH274098   1.141   0.929   0.480  0.1316 -0.4604 -0.7969
17536TIP3    H174099   1.091   0.925   0.561 -0.2108 -1.3499 -1.0425
17536TIP3    H274100   1.207   0.997   0.495  0.7309 -1.3209  0.5906
17537TIP3   OH274101   4.051   2.411  10.709  0.4979 -0.1088 -0.3548
17537TIP3    H174102   3.970   2.462  10.712  0.9846  0.6153  0.7405
17537TIP3    H274103   4.032   2.332  10.759 -0.3783 -1.2614 -2.3597
17538TIP3   OH274104   4.376   3.748   3.532  0.2539 -0.5243 -0.0489
17538TIP3    H174105   4.327   3.696   3.596 -0.4305 -0.6723 -0.6895
17538TIP3    H274106   4.443   3.792   3.584  0.0520 -1.0732  0.6905
17539TIP3   OH274107   5.750   3.630  14.029  0.2808  0.4111  0.0672
17539TIP3    H174108   5.721   3.687  13.959 -0.0203  0.9150  0.5956
17539TIP3    H274109   5.783   3.552  13.984  0.4757  0.8940 -0.6487
17540TIP3   OH274110   5.948   1.411  15.073 -0.6488 -0.7257  0.0317
17540TIP3    H174111   5.942   1.323  15.034  0.2243 -0.5006 -0.6374
17540TIP3    H274112   5.875   1.459  15.034  1.2460  0.0483 -2.8657
17541TIP3   OH274113   5.019   0.824   3.676  0.3029 -0.3141  0.2361
17541TIP3    H174114   5.022   0.858   3.765  0.8500  2.0930 -0.6359
17541TIP3    H274115   5.016   0.729   3.687  2.7351 -0.2368  2.7952
17542TIP3   OH274116   1.112   1.084   1.411  0.2730 -0.2228 -0.1076
17542TIP3    H174117   1.058   1.014   1.376  0.9713 -0.2492 -1.1689
17542TIP3    H274118   1.139   1.051   1.497  0.4219 -1.1768 -0.5017
17543TIP3   OH274119   2.420   4.659  11.546 -0.4798  0.0077 -0.4605
17543TIP3    H174120   2.328   4.652  11.571 -0.0652  1.3580  1.7719
17543TIP3    H274121   2.424   4.736  11.489 -0.8283 -0.4710 -1.1325
17544TIP3   OH274122   1.293   4.852  12.773 -0.2814  0.0611  0.1962
17544TIP3    H174123   1.236   4.792  12.820 -1.4205 -0.0013 -1.1892
17544TIP3    H274124   1.300   4.929  12.829 -0.5717 -0.4920  1.0084
17545TIP3   OH274125   4.989   2.383  16.752 -0.1697 -0.3303 -0.3178
17545TIP3    H174126   5.073   2.371  16.707 -0.2331 -0.3746 -0.4239
17545TIP3    H274127   4.977   2.303  16.802  0.3385  0.0878  0.4978
17546TIP3   OH274128   2.175   5.408   5.183  0.6659  0.2450 -0.0897
17546TIP3    H174129   2.140   5.392   5.095  0.3303 -1.8971  0.3656
17546TIP3    H274130   2.155   5.328   5.231  1.5712  1.0500  1.7184
17547TIP3   OH274131   0.307   2.818  12.120  0.0080  0.0458 -0.0665
17547TIP3    H174132   0.220   2.848  12.149  0.7275  0.7268  1.5165
17547TIP3    H274133   0.297   2.724  12.109 -0.9348  0.1131  0.1370
17548TIP3   OH274134   5.814   0.746   6.717 -0.2236  0.0268  0.0750
17548TIP3    H174135   5.889   0.686   6.718  0.0763  0.3888 -0.3203
17548TIP3    H274136   5.751   0.706   6.777 -0.3717 -1.1244 -0.8116
17549TIP3   OH274137   2.011   3.059  15.075  0.2117 -0.5338  0.0973
17549TIP3    H174138   2.061   3.052  15.156  1.2833 -4.5612 -0.6608
17549TIP3    H274139   1.972   2.972  15.064 -0.8709  0.2112 -3.1313
17550TIP3   OH274140   3.499   2.071   4.969  0.3277 -0.0819 -0.2267
17550TIP3    H174141   3.414   2.092   5.007 -0.7536 -0.6354 -2.2354
17550TIP3    H274142   3.562   2.093   5.038 -1.4350  0.1389  1.3820
17551TIP3   OH274143   1.332   3.431  14.735  0.3231 -0.3941 -0.2027
17551TIP3    H174144   1.248   3.478  14.733  0.2748 -0.4440  0.3617
17551TIP3    H274145   1.336   3.395  14.824  0.4741 -1.2506 -0.5542
17552TIP3   OH274146   3.335   5.497   0.053 -0.2562 -0.1203  0.1024
17552TIP3    H174147   3.324   5.473   0.145 -0.2104 -0.3608  0.0446
17552TIP3    H274148   3.429   5.511   0.043  0.3080 -3.6515 -0.7663
17553TIP3   OH274149   2.035   2.921   6.134 -0.3322 -0.7161  0.6234
17553TIP3    H174150   1.994   2.886   6.213  0.6047 -1.1948  0.9158
17553TIP3    H274151   2.055   3.012   6.155  2.1752 -1.4598  1.9265
17554TIP3   OH274152   5.326   5.557  16.309  0.8490 -0.7522  0.2695
17554TIP3    H174153   5.243   5.602  16.326  0.7951 -0.9172  0.4501
17554TIP3    H274154   5.316   5.519  16.221  1.1541  0.1639 -0.1695
17555TIP3   OH274155   1.817   0.187   2.950  0.8607 -0.1702  0.0240
17555TIP3    H174156   1.831   0.155   2.861 -2.2496  1.7280 -1.3324
17555TIP3    H274157   1.738   0.142   2.979 -0.4369  2.0582  0.1824
17556TIP3   OH274158   3.064   3.985  14.989  0.4534  0.0211  0.0644
17556TIP3    H174159   3.040   4.008  15.078 -0.1133  0.1846 -0.1290
17556TIP3    H274160   3.146   4.032  14.973  1.7722 -1.7342  1.2542
17557TIP3   OH274161   1.742   1.079  15.645 -0.4439 -0.1106  0.2954
17557TIP3    H174162   1.728   1.082  15.739  1.2685 -0.7306  0.6026
17557TIP3    H274163   1.729   1.169  15.616 -2.5702 -0.1850  0.8259
17558TIP3   OH274164   4.186   4.490   6.277  0.4597 -0.0462  0.3213
17558TIP3    H174165   4.099   4.482   6.315 -0.4506  1.2524 -1.3764
17558TIP3    H274166   4.237   4.420   6.319 -1.0179 -0.0207  2.2938
17559TIP3   OH274167   1.617   6.301  14.050 -0.5145 -0.0520  0.4697
17559TIP3    H174168   1.525   6.304  14.077 -0.8791 -0.7634 -0.6028
17559TIP3    H274169   1.629   6.213  14.015  0.4367  0.2094  0.0988
17560TIP3   OH274170   4.126   4.918  13.676  0.4592  0.0920  0.1117
17560TIP3    H174171   4.080   4.884  13.599 -1.1562  2.8295 -0.2419
17560TIP3    H274172   4.073   4.888  13.751  0.5469 -0.3545 -0.0006
17561TIP3   OH274173   5.628   1.354   2.320  0.2266  0.0398  0.4288
17561TIP3    H174174   5.611   1.342   2.227  1.0717  1.6708  0.0147
17561TIP3    H274175   5.675   1.438   2.325 -2.1324  1.3711  2.5684
17562TIP3   OH274176   4.561   2.349  14.846 -0.3757  0.3725 -0.1856
17562TIP3    H174177   4.477   2.303  14.854 -0.9884  1.4750  0.0269
17562TIP3    H274178   4.542   2.438  14.877  0.9391  0.5785  0.0983
17563TIP3   OH274179   0.404   6.467  17.115  0.1693 -0.7013  0.2881
17563TIP3    H174180   0.355   6.541  17.078 -0.6968 -0.0900  2.4704
17563TIP3    H274181   0.422   6.410  17.040 -0.9650  0.7040 -1.1308
17564TIP3   OH274182   6.732   5.102  15.770  0.6054 -0.6131  0.3531
17564TIP3    H174183   6.805   5.066  15.820 -0.1153 -1.0034  1.1453
17564TIP3    H274184   6.770   5.123  15.684  1.6384 -0.8095  0.7465
17565TIP3   OH274185   5.690   0.287  11.866  0.2371 -0.2358 -0.1979
17565TIP3    H174186   5.725   0.198  11.868 -1.3829 -0.9049  0.0639
17565TIP3    H274187   5.761   0.342  11.899  2.8445 -0.7746 -4.2664
17566TIP3   OH274188   5.559   1.431   1.104  0.2954  0.3142 -0.2887
17566TIP3    H174189   5.465   1.413   1.111  0.1005  1.2663 -0.2907
17566TIP3    H274190   5.601   1.355   1.144 -0.5257  0.6481  1.2917
17567TIP3   OH274191   3.848   4.807   1.053 -0.1918  0.7879 -0.5448
17567TIP3    H174192   3.769   4.758   1.077  0.7441 -0.4572  0.0814
17567TIP3    H274193   3.913   4.783   1.119  0.2712  3.0362 -0.1101
17568TIP3   OH274194   6.642   1.590  13.356 -0.9418 -0.0256 -0.1027
17568TIP3    H174195   6.683   1.562  13.438 -1.7679 -1.3155 -0.1144
17568TIP3    H274196   6.559   1.629  13.382 -0.5202  0.9898 -0.2225
17569TIP3   OH274197   2.932   2.384   3.529 -0.0736 -0.3771 -0.2021
17569TIP3    H174198   2.971   2.400   3.443  0.4540  0.4172  0.1761
17569TIP3    H274199   2.964   2.297   3.553 -0.5577 -0.7794 -0.9832
17570TIP3   OH274200   5.638   6.768  13.708  0.9712  0.0415 -0.6487
17570TIP3    H174201   5.688   6.765  13.626  0.6464 -0.0918 -0.8464
17570TIP3    H274202   5.702   6.792  13.775  1.5896 -1.4740 -0.6677
17571TIP3   OH274203   5.233   6.125  11.991 -0.1591  0.6033  0.1347
17571TIP3    H174204   5.261   6.106  11.902 -0.2316 -0.3319  0.3000
17571TIP3    H274205   5.171   6.197  11.983 -0.7688 -0.0042 -0.6473
17572TIP3   OH274206   2.777   6.200  14.208 -0.5902  0.2003  0.5106
17572TIP3    H174207   2.837   6.245  14.267 -1.1932  1.2748  0.3335
17572TIP3    H274208   2.697   6.189  14.259 -0.6746 -0.0506  0.3221
17573TIP3   OH274209   3.462   2.012   1.527  0.3120  0.4069 -0.1538
17573TIP3    H174210   3.388   1.953   1.512 -0.3730  0.9338  1.0249
17573TIP3    H274211   3.439   2.060   1.606  2.4961 -0.3435  1.0397
17574TIP3   OH274212   3.992   2.981  14.653  0.0680  0.4879 -0.3439
17574TIP3    H174213   4.037   3.035  14.719 -2.8062 -0.2980  2.5020
17574TIP3    H274214   3.930   3.040  14.612 -0.0155  0.3527 -0.4118
17575TIP3   OH274215   0.433   1.506   4.782  0.2868 -0.5618 -0.5551
17575TIP3    H174216   0.504   1.478   4.839  1.3929  0.4159 -1.3869
17575TIP3    H274217   0.419   1.598   4.805 -0.7456 -0.7558 -0.3778
17576TIP3   OH274218   0.177   4.842  14.893  0.2217 -0.5917 -0.5429
17576TIP3    H174219   0.237   4.903  14.850  0.0884  0.0661  0.1844
17576TIP3    H274220   0.212   4.756  14.873  2.4782 -0.1895  1.3942
17577TIP3   OH274221   3.126   5.912   0.113  0.3598 -0.6180  0.9704
17577TIP3    H174222   3.033   5.932   0.104  0.3516 -0.9371  0.3085
17577TIP3    H274223   3.140   5.909   0.208  0.2370  1.8408  1.1361
17578TIP3   OH274224   5.110   2.611   2.126 -0.1775 -0.3207  0.8316
17578TIP3    H174225   5.100   2.517   2.110 -1.4095  0.0460 -0.8263
17578TIP3    H274226   5.077   2.652   2.046  0.1033  1.5371  1.6324
17579TIP3   OH274227   1.566   4.851  13.980  0.5947  0.2804 -0.5270
17579TIP3    H174228   1.487   4.814  13.941 -0.0922  2.5669 -1.4674
17579TIP3    H274229   1.567   4.818  14.069 -0.6421 -0.9007 -0.9245
17580TIP3   OH274230   4.369   2.406  12.032 -0.0518 -0.2335 -0.1948
17580TIP3    H174231   4.318   2.440  11.958  1.0227  0.3192 -0.7142
17580TIP3    H274232   4.355   2.312  12.030 -0.9951 -0.0941 -0.3620
17581TIP3   OH274233   0.224   2.935   4.077  0.0873 -0.1638  0.8359
17581TIP3    H174234   0.135   2.923   4.110  0.3258 -1.5283  1.0204
17581TIP3    H274235   0.281   2.903   4.147  0.8731  2.8625  1.7263
17582TIP3   OH274236   5.981   3.349   2.580 -0.1428 -0.2928  0.2564
17582TIP3    H174237   6.053   3.406   2.552 -0.2157 -0.9009 -1.2671
17582TIP3    H274238   5.922   3.407   2.628  1.5453  0.1353  1.9444
17583TIP3   OH274239   4.877   5.901   3.727 -0.1285  0.7543 -0.1464
17583TIP3    H174240   4.971   5.918   3.728 -0.0150  0.3663 -1.7128
17583TIP3    H274241   4.869   5.818   3.681 -1.2814  1.1240 -0.6411
17584TIP3   OH274242   3.398   5.280   4.635  0.4201  0.0073 -0.3311
17584TIP3    H174243   3.408   5.189   4.605  1.9324  0.9389 -2.9692
17584TIP3    H274244   3.317   5.309   4.594  0.1755 -0.0311  0.1326
17585TIP3   OH274245   1.950   2.441   0.030  0.0603  0.2130 -0.4149
17585TIP3    H174246   1.989   2.482   0.107  0.8006  0.4473 -0.8992
17585TIP3    H274247   1.933   2.514  -0.030 -1.1213  0.1149 -0.2305
17586TIP3   OH274248   0.117   0.635   2.922  0.4756 -0.1544  0.0296
17586TIP3    H174249   0.140   0.613   3.012 -1.0920 -0.7411  0.3228
17586TIP3    H274250   0.127   0.730   2.917 -1.5048  0.1969  1.5096
17587TIP3   OH274251   1.397   2.217  13.761 -0.7255 -0.2966 -0.1907
17587TIP3    H174252   1.439   2.156  13.701  0.5427 -0.0949  0.4372
17587TIP3    H274253   1.388   2.168  13.843 -1.2064 -0.1575 -0.1577
17588TIP3   OH274254   0.726   5.239   2.381  0.4658  0.0917 -0.2746
17588TIP3    H174255   0.767   5.178   2.320 -1.0989  0.8094 -2.1695
17588TIP3    H274256   0.641   5.259   2.341 -0.6928  0.5707  2.1946
17589TIP3   OH274257   4.394   2.689  11.929 -0.9364 -0.1928  0.0444
17589TIP3    H174258   4.350   2.738  11.998 -0.7263 -0.7138  0.5640
17589TIP3    H274259   4.331   2.683  11.858 -1.0593  0.5822  0.0905
17590TIP3   OH274260   1.997   0.208  15.321 -0.5480  0.4854  0.7024
17590TIP3    H174261   2.000   0.140  15.253 -4.4867  1.7252 -0.9488
17590TIP3    H274262   2.039   0.284  15.281 -0.9202  0.5771  0.4848
17591TIP3   OH274263   1.257   1.912   5.502 -0.3763 -0.2498 -0.3891
17591TIP3    H174264   1.230   1.822   5.520  3.5732 -1.0158  3.3490
17591TIP3    H274265   1.304   1.907   5.419 -0.1343 -1.6634 -0.1929
17592TIP3   OH274266   3.731   3.858   2.739  0.1514  0.0575 -0.0451
17592TIP3    H174267   3.648   3.904   2.748 -0.2667 -0.9235  1.4627
17592TIP3    H274268   3.744   3.850   2.645 -1.2868  0.5418 -0.3069
17593TIP3   OH274269   6.475   4.329  14.470 -0.0442 -0.3624 -0.7624
17593TIP3    H174270   6.407   4.350  14.406  0.1417  2.1181 -0.2733
17593TIP3    H274271   6.474   4.404  14.531  0.8977 -1.8440  1.1847
17594TIP3   OH274272   0.227   3.717   5.941 -0.0061 -0.2619 -0.2785
17594TIP3    H174273   0.272   3.773   6.004 -3.1126  0.2527  1.7183
17594TIP3    H274274   0.229   3.630   5.980  0.9777 -0.6971 -1.2243
17595TIP3   OH274275   3.092   6.121   3.090  0.8455  0.2337 -0.0113
17595TIP3    H174276   3.115   6.123   2.997  0.6346 -2.6449 -0.2437
17595TIP3    H274277   3.020   6.183   3.098  0.5231  0.1881 -1.9034
17596TIP3   OH274278   6.470   2.405   0.525 -0.4496  0.4390 -0.0647
17596TIP3    H174279   6.551   2.456   0.529 -0.5814  0.8797 -1.9414
17596TIP3    H274280   6.497   2.315   0.541  0.9472  0.1476 -3.3179
17597TIP3   OH274281   0.512   4.616   1.086 -0.0497  0.6098 -0.2952
17597TIP3    H174282   0.557   4.555   1.144  0.3521  0.9917 -0.1990
17597TIP3    H274283   0.444   4.564   1.044 -0.6438  0.4345  0.8454
17598TIP3   OH274284   4.754   3.981  14.468  0.2736  0.1115  0.1741
17598TIP3    H174285   4.727   3.889  14.465 -0.8706  0.3958 -3.8265
17598TIP3    H274286   4.737   4.008  14.558 -0.4188 -3.2591  1.2007
17599TIP3   OH274287   4.939   4.930  12.060  0.1125 -0.8733 -0.2247
17599TIP3    H174288   4.967   5.019  12.038 -2.5319  0.1148 -0.0474
17599TIP3    H274289   4.903   4.896  11.978 -3.1553  0.0883  0.6576
17600TIP3   OH274290   3.707   5.566   2.860 -0.1266 -0.5244  0.4176
17600TIP3    H174291   3.764   5.603   2.792 -0.7926 -2.4675 -1.3191
17600TIP3    H274292   3.625   5.615   2.850 -0.2227 -0.7969 -0.2221
17601TIP3   OH274293   1.888   5.109   2.399 -0.2121  0.5649  0.2034
17601TIP3    H174294   1.794   5.103   2.418 -0.2519  1.0216  0.1759
17601TIP3    H274295   1.910   5.200   2.419  0.5060  0.1397  1.4725
17602TIP3   OH274296   1.707   0.922   4.491  0.1079 -0.6863  0.4618
17602TIP3    H174297   1.652   0.993   4.526  1.3804 -0.7108  2.6934
17602TIP3    H274298   1.676   0.844   4.538  2.2218 -0.6257  2.1013
17603TIP3   OH274299   0.578   6.040  15.057  0.5472  0.4251  0.1054
17603TIP3    H174300   0.623   6.124  15.060  0.6891  0.3350  0.7545
17603TIP3    H274301   0.619   5.993  14.984  2.8654 -0.3703  1.7805
17604TIP3   OH274302   2.310   0.346   4.212 -0.3155 -0.0074  0.1418
17604TIP3    H174303   2.379   0.302   4.163 -0.4890 -0.5464  0.3835
17604TIP3    H274304   2.310   0.305   4.298 -0.2819  0.6649  0.4753
17605TIP3   OH274305   5.500   4.949  14.466 -0.6346 -0.1431 -0.1795
17605TIP3    H174306   5.465   4.907  14.388  0.7497 -0.9838 -0.3747
17605TIP3    H274307   5.553   5.022  14.433  0.8049 -1.1299 -0.1057
17606TIP3   OH274308   3.264   1.663  16.121  0.1345 -0.3288 -0.2782
17606TIP3    H174309   3.349   1.708  16.124 -1.2068  2.4690 -0.7664
17606TIP3    H274310   3.240   1.652  16.213  0.4303  0.1209 -0.1413
17607TIP3   OH274311   2.672   6.400  11.194 -0.2098 -0.3811  0.9774
17607TIP3    H174312   2.643   6.383  11.105  0.7608 -0.7249  0.7082
17607TIP3    H274313   2.681   6.496  11.198  0.1975 -0.3930  0.5447
17608TIP3   OH274314   6.384   3.249  13.527 -0.9653  0.8029 -0.2128
17608TIP3    H174315   6.348   3.280  13.611  1.8849  0.5738  1.2042
17608TIP3    H274316   6.424   3.164  13.548  0.0888  0.8901 -1.7384
17609TIP3   OH274317   2.344   1.812  13.333  0.1377 -0.3461 -0.0248
17609TIP3    H174318   2.377   1.734  13.290 -2.0859 -0.5996 -1.4838
17609TIP3    H274319   2.253   1.819  13.302  0.2237  2.7574  0.1060
17610TIP3   OH274320   1.371   4.512   1.691 -0.2425 -0.1520 -0.2320
17610TIP3    H174321   1.282   4.500   1.724 -1.1547 -0.3171 -2.5829
17610TIP3    H274322   1.417   4.431   1.713 -1.4196 -1.0924 -1.1391
17611TIP3   OH274323   5.870   1.454   6.152 -0.5004  0.4491 -0.2328
17611TIP3    H174324   5.928   1.524   6.183 -2.1234  1.5137  0.4828
17611TIP3    H274325   5.868   1.391   6.224  0.1214  0.1659 -0.4534
17612TIP3   OH274326   0.592   1.075  14.988 -0.2267  0.1218 -0.0593
17612TIP3    H174327   0.626   1.064  15.077  1.9804  0.2283 -0.8236
17612TIP3    H274328   0.499   1.093  15.000 -0.4638 -2.0222  2.0974
17613TIP3   OH274329   3.058   3.289   5.693 -0.4543  0.0389 -0.0468
17613TIP3    H174330   3.115   3.266   5.767  2.4103 -2.3101 -2.6969
17613TIP3    H274331   2.976   3.245   5.712  0.1677 -0.4391  1.7620
17614TIP3   OH274332   3.139   6.287   1.955 -0.2406 -0.5694  0.1742
17614TIP3    H174333   3.146   6.292   2.050 -1.5785 -0.2648  0.2728
17614TIP3    H274334   3.064   6.343   1.933  1.1239  0.8056 -1.2358
17615TIP3   OH274335   2.422   0.771   0.332  0.3239 -0.5316 -0.1074
17615TIP3    H174336   2.340   0.743   0.373  0.2020  0.8254  0.6339
17615TIP3    H274337   2.404   0.767   0.238 -0.4626 -0.6322  0.0375
17616TIP3   OH274338   4.052   4.726   1.965  0.4467 -1.4494  0.3020
17616TIP3    H174339   4.012   4.775   2.037  4.5571  0.0301  1.8438
17616TIP3    H274340   4.057   4.788   1.893  1.8882 -0.8423  0.8833
17617TIP3   OH274341   0.937   1.081  10.850  0.0845  0.1420 -0.2714
17617TIP3    H174342   0.913   1.128  10.770  0.6357  0.2657 -0.3710
17617TIP3    H274343   0.955   0.992  10.820  0.9732  0.3530 -0.4127
17618TIP3   OH274344   6.373   2.537  16.792 -0.1875 -0.5838 -0.0974
17618TIP3    H174345   6.388   2.631  16.797 -0.4019 -0.4259 -1.7713
17618TIP3    H274346   6.278   2.527  16.801 -0.0385 -0.7636  1.3559
17619TIP3   OH274347   4.837   5.554   0.186 -0.0773 -0.2660 -0.5696
17619TIP3    H174348   4.929   5.537   0.206  0.1191  1.7422  0.4528
17619TIP3    H274349   4.831   5.649   0.178 -1.9844 -0.3860 -1.1253
17620TIP3   OH274350   0.917   6.510  15.250  0.4968 -0.5704  0.6605
17620TIP3    H174351   0.822   6.502  15.262 -0.0467  2.3484 -0.7204
17620TIP3    H274352   0.953   6.429  15.286 -2.5067 -1.8075  1.1660
17621TIP3   OH274353   5.664   4.602  15.517  0.0097  0.1428  0.2039
17621TIP3    H174354   5.670   4.518  15.563 -1.3467  0.4935  1.0974
17621TIP3    H274355   5.735   4.655  15.552  0.3552 -0.3590  0.2560
17622TIP3   OH274356   0.086   2.021   3.674 -0.4332 -0.9755  0.1501
17622TIP3    H174357  -0.001   1.983   3.680 -0.6321 -0.5193  0.1461
17622TIP3    H274358   0.109   2.014   3.582 -0.1118 -1.8767  0.2923
17623TIP3   OH274359   2.871   1.341   4.837  0.1842  0.4416 -0.0993
17623TIP3    H174360   2.884   1.422   4.788 -0.3181  0.2674 -0.5439
17623TIP3    H274361   2.793   1.357   4.891  1.3431  0.9944  1.4608
17624TIP3   OH274362   4.073   2.377  13.684 -0.7375  0.0743  0.0242
17624TIP3    H174363   4.168   2.367  13.684 -0.7409 -0.0858  1.0719
17624TIP3    H274364   4.049   2.373  13.592  0.3572  1.0371 -0.3255
17625TIP3   OH274365   3.966   1.194  12.771  0.2852 -0.1411  0.2903
17625TIP3    H174366   3.937   1.284  12.757 -0.0934 -0.3611 -0.3695
17625TIP3    H274367   3.885   1.145  12.788  0.6055 -0.1139  2.1207
17626TIP3   OH274368   5.355   0.612   0.771 -0.4241  0.8074 -0.9275
17626TIP3    H174369   5.318   0.669   0.703 -1.1463 -0.2168 -1.4121
17626TIP3    H274370   5.448   0.633   0.771 -0.8553  3.0826 -0.0378
17627TIP3   OH274371   2.304   6.402  11.930 -0.0072 -0.5621 -0.2649
17627TIP3    H174372   2.225   6.359  11.898 -0.8008 -0.5832  1.6106
17627TIP3    H274373   2.273   6.465  11.995  1.5312 -0.8927  0.8596
17628TIP3   OH274374   0.350   6.374  13.783 -0.0054 -0.7499  0.0332
17628TIP3    H174375   0.256   6.378  13.800 -0.1100 -0.8575 -0.5333
17628TIP3    H274376   0.377   6.466  13.776  0.2916 -0.6124  2.1042
17629TIP3   OH274377   4.039   6.704  14.060  0.1741  0.6436  0.1571
17629TIP3    H174378   4.084   6.645  14.001 -1.0385  0.4469 -0.6138
17629TIP3    H274379   4.009   6.776  14.005 -1.2386  0.3092  0.4319
17630TIP3   OH274380   5.717   4.846   1.768 -0.2371 -0.1585 -0.0242
17630TIP3    H174381   5.638   4.797   1.792  0.8577 -1.6091  0.7952
17630TIP3    H274382   5.695   4.888   1.685 -1.5535 -1.3436 -0.3128
17631TIP3   OH274383   0.175   2.173  12.876  0.2320 -0.2006 -0.0257
17631TIP3    H174384   0.145   2.152  12.964 -0.4133  1.3565  0.1653
17631TIP3    H274385   0.218   2.258  12.885  0.0517  0.0419 -1.2232
17632TIP3   OH274386   6.353   3.888  14.479  0.0907  0.3128  0.1060
17632TIP3    H174387   6.320   3.812  14.431  1.0526 -0.0439 -0.0132
17632TIP3    H274388   6.301   3.961  14.447  0.7565  0.0905 -1.5372
17633TIP3   OH274389   1.198   1.039  12.227  0.5078 -0.2561 -0.4523
17633TIP3    H174390   1.206   1.132  12.205  0.3198 -0.3843 -1.0710
17633TIP3    H274391   1.274   1.022  12.283  0.9992  0.0776 -1.0006
17634TIP3   OH274392   4.631   3.321  16.552 -0.1850 -0.2127 -0.1654
17634TIP3    H174393   4.591   3.349  16.470 -1.5544  0.0170  0.5450
17634TIP3    H274394   4.562   3.333  16.617  0.8571 -0.4238  1.0142
17635TIP3   OH274395   0.362   4.003   5.946 -0.0888 -0.2361  0.0998
17635TIP3    H174396   0.379   3.962   6.031  0.6950  0.8780  0.4997
17635TIP3    H274397   0.448   4.027   5.912 -0.2556 -2.0533 -1.7576
17636TIP3   OH274398   1.740   4.600   5.337 -0.3947  0.4393 -0.4218
17636TIP3    H174399   1.660   4.559   5.370 -0.6201  1.1771 -0.0325
17636TIP3    H274400   1.789   4.624   5.415 -1.4422  3.2204 -0.4737
17637TIP3   OH274401   1.999   0.596   4.486 -0.1536 -0.2698 -0.4297
17637TIP3    H174402   2.014   0.669   4.425  1.1700 -2.1917 -2.5646
17637TIP3    H274403   1.904   0.598   4.502 -0.3716  1.0295 -1.6196
17638TIP3   OH274404   6.553   4.606  14.212  0.4838 -0.6133 -0.7083
17638TIP3    H174405   6.587   4.696  14.212  0.8088 -0.7082  1.1233
17638TIP3    H274406   6.631   4.551  14.211  0.3945 -0.8372  1.1873
17639TIP3   OH274407   1.171   5.449  14.208 -0.6631  0.6735  0.0814
17639TIP3    H174408   1.236   5.463  14.139 -1.3785  1.8194 -0.3765
17639TIP3    H274409   1.213   5.386  14.267 -0.1469 -0.5764 -1.5372
17640TIP3   OH274410   3.663   0.569  15.838  0.5772  0.3877  0.3084
17640TIP3    H174411   3.587   0.616  15.803 -0.6958 -2.3547 -0.9340
17640TIP3    H274412   3.629   0.522  15.914  0.3193 -2.5875 -1.5047
17641TIP3   OH274413   2.506   1.314   2.406 -0.3701 -0.2160 -1.0101
17641TIP3    H174414   2.504   1.403   2.370 -0.7209  0.7690  1.2200
17641TIP3    H274415   2.592   1.308   2.448 -0.2497 -1.0429 -1.3702
17642TIP3   OH274416   3.089   5.190   5.563  0.2772 -0.0589  0.0886
17642TIP3    H174417   3.009   5.150   5.597 -0.6117  0.5932 -1.1436
17642TIP3    H274418   3.128   5.122   5.508 -0.9577  0.5191 -1.5853
17643TIP3   OH274419   2.100   5.783  12.396  0.1459  0.1095  0.5221
17643TIP3    H174420   2.065   5.793  12.307 -1.5381  1.8857  1.3010
17643TIP3    H274421   2.173   5.845  12.400  1.5298 -1.4006 -0.1684
17644TIP3   OH274422   4.900   1.088  16.670 -0.2011 -0.2546  0.7109
17644TIP3    H174423   4.877   1.035  16.593 -0.5300 -0.1543  0.7368
17644TIP3    H274424   4.828   1.073  16.731 -1.0808  1.3608  0.1427
17645TIP3   OH274425   1.303   5.904  13.008 -0.0832  0.0028 -0.1148
17645TIP3    H174426   1.263   5.921  12.922 -3.5022 -1.2696  1.0498
17645TIP3    H274427   1.333   5.813  13.002  1.6651  0.5726 -0.5753
17646TIP3   OH274428   4.151   6.456  17.045 -0.4600  0.0443  0.0674
17646TIP3    H174429   4.144   6.396  17.119 -0.6710  0.9543  0.8062
17646TIP3    H274430   4.117   6.407  16.970 -0.9494 -0.6360  0.7272
17647TIP3   OH274431   1.223   6.449   3.848 -0.5932  0.0726 -0.2191
17647TIP3    H174432   1.257   6.395   3.920 -0.8047  0.6933  0.3513
17647TIP3    H274433   1.191   6.385   3.784  1.2369 -0.5429 -0.5909
17648TIP3   OH274434   5.853   4.398  13.450 -0.5474  0.0581  0.0766
17648TIP3    H174435   5.802   4.352  13.383  1.2070  0.2760 -1.4901
17648TIP3    H274436   5.923   4.337  13.472 -0.2106  0.6224  0.5747
17649TIP3   OH274437   6.085   4.687  17.191  0.5782  0.1053  0.3359
17649TIP3    H174438   6.126   4.749  17.251 -0.3079  0.6636  0.3866
17649TIP3    H274439   6.052   4.617  17.248  1.0713 -0.1327  0.3379
17650TIP3   OH274440   2.029   3.736   1.436  0.0979  0.1527  0.3185
17650TIP3    H174441   2.067   3.815   1.396 -0.0053  0.3951  0.6892
17650TIP3    H274442   2.070   3.732   1.522  1.7390 -1.4100 -0.4746
17651TIP3   OH274443   1.062   6.603   5.625  0.1058  0.3895  0.4758
17651TIP3    H174444   1.044   6.668   5.693 -0.3693  0.1521  0.5833
17651TIP3    H274445   1.007   6.630   5.551  0.7496  0.7449  0.1228
17652TIP3   OH274446   0.805   4.379   3.039  0.0559  0.3533 -0.0809
17652TIP3    H174447   0.868   4.448   3.061  0.3974  0.3600 -1.0316
17652TIP3    H274448   0.732   4.426   2.999 -0.8926  0.4211  1.6227
17653TIP3   OH274449   3.434   1.235  14.331  0.0922 -0.3513 -0.1776
17653TIP3    H174450   3.469   1.185  14.404  0.0823  3.5938  2.8686
17653TIP3    H274451   3.342   1.248  14.353 -0.1131  0.2473 -1.3179
17654TIP3   OH274452   0.794   4.936   0.551 -0.4495 -0.0776 -0.3012
17654TIP3    H174453   0.820   5.012   0.500  1.4123  0.4318  1.2688
17654TIP3    H274454   0.725   4.968   0.609  0.8819  0.7248  0.9308
17655TIP3   OH274455   2.771   4.623   4.864  0.4116 -0.0656 -0.6291
17655TIP3    H174456   2.814   4.574   4.934  0.7660  0.7622 -0.2496
17655TIP3    H274457   2.841   4.679   4.828 -0.6663  2.5969  1.1310
17656TIP3   OH274458   2.670   5.370   3.255 -0.0202  0.6471 -0.9701
17656TIP3    H174459   2.683   5.281   3.288  0.2100  0.6149 -1.1445
17656TIP3    H274460   2.697   5.427   3.327 -3.0517  0.6207  0.3406
17657TIP3   OH274461   2.993   2.808   2.523 -0.2782  0.6358  0.2368
17657TIP3    H174462   3.024   2.886   2.477  0.3515  0.3554  0.1674
17657TIP3    H274463   2.902   2.826   2.544 -0.3762  1.0400 -0.5287
17658TIP3   OH274464   3.640   5.302  16.585  0.3051  0.2122  0.1230
17658TIP3    H174465   3.633   5.208  16.572 -1.9352  0.6205 -2.6768
17658TIP3    H274466   3.550   5.332  16.596  1.0001  2.0318  1.5673
17659TIP3   OH274467   3.020   6.528   1.949 -0.1367 -0.0315  0.1562
17659TIP3    H174468   3.111   6.536   1.980 -0.0311  1.5104 -0.4470
17659TIP3    H274469   2.975   6.601   1.991 -1.0985 -0.7530  0.3967
17660TIP3   OH274470   4.555   4.349   1.789 -0.4891 -0.2955  0.5866
17660TIP3    H174471   4.546   4.405   1.712 -2.0570 -1.0601  0.1514
17660TIP3    H274472   4.559   4.410   1.863 -1.1053  0.4225  0.0498
17661TIP3   OH274473   0.422   1.662   5.106  0.2117 -0.1226 -0.2540
17661TIP3    H174474   0.372   1.712   5.170  1.7320  0.8819  0.2127
17661TIP3    H274475   0.509   1.653   5.145  0.7347 -0.8110 -1.5151
17662TIP3   OH274476   4.586   4.650  14.168  0.1566 -0.0919  0.3590
17662TIP3    H174477   4.675   4.684  14.160 -0.3618  1.2986  0.2327
17662TIP3    H274478   4.569   4.648  14.262  0.8816 -1.9251  0.4759
17663TIP3   OH274479   4.250   0.450  12.248 -0.0051  0.1874 -0.5364
17663TIP3    H174480   4.182   0.456  12.316  0.1080 -1.4942 -0.2376
17663TIP3    H274481   4.330   0.479  12.292  0.2071 -1.5236  0.3243
17664TIP3   OH274482   3.588   4.123  17.215  0.4941 -0.2990  0.3993
17664TIP3    H174483   3.551   4.038  17.239  0.9999 -0.5790  0.2061
17664TIP3    H274484   3.595   4.171  17.297 -0.1226 -0.3085  0.4614
17665TIP3   OH274485   1.719   1.084   4.231 -0.1962 -0.1484  0.6149
17665TIP3    H174486   1.719   1.004   4.283 -0.5448  0.8035  2.1143
17665TIP3    H274487   1.653   1.068   4.163 -0.3011 -1.0923  0.9249
17666TIP3   OH274488   3.176   6.083   4.347  0.1094 -0.2741  0.4239
17666TIP3    H174489   3.140   6.018   4.407 -0.7304 -1.7179 -1.5260
17666TIP3    H274490   3.255   6.041   4.311 -0.5648 -0.3621 -1.0190
17667TIP3   OH274491   6.250   4.440   2.496 -0.4716  0.4494  0.6221
17667TIP3    H174492   6.288   4.359   2.529  1.1117  1.2356  0.8331
17667TIP3    H274493   6.296   4.509   2.542 -0.5077  1.5086 -0.8427
17668TIP3   OH274494   0.700   1.942  15.901  0.3236 -0.3124 -0.3972
17668TIP3    H174495   0.663   1.967  15.816 -1.0161 -1.5312 -0.2030
17668TIP3    H274496   0.770   1.880  15.879  1.3394  0.8927 -0.6857
17669TIP3   OH274497   2.416   3.045   5.517  0.3320  0.0519  0.4947
17669TIP3    H174498   2.490   3.075   5.464  1.3082 -3.6976 -0.5901
17669TIP3    H274499   2.456   2.994   5.587 -1.0828 -2.5518 -0.4432
17670TIP3   OH274500   1.827   1.489  17.140 -0.0447 -0.1296 -0.4450
17670TIP3    H174501   1.893   1.495  17.208 -0.8725 -3.6534  0.9000
17670TIP3    H274502   1.868   1.435  17.072 -1.0806 -1.3491 -0.1311
17671TIP3   OH274503   4.282   3.401   1.285 -0.0050 -0.0689  0.0117
17671TIP3    H174504   4.252   3.413   1.375 -2.1772 -0.7972 -0.5582
17671TIP3    H274505   4.376   3.383   1.293  0.3830  2.3160  1.9031
17672TIP3   OH274506   0.124   5.631   6.651  0.6500 -0.1284 -0.5325
17672TIP3    H174507   0.213   5.656   6.677  0.1522  1.7458 -0.4863
17672TIP3    H274508   0.071   5.709   6.668 -1.0538 -1.2428 -0.4180
17673TIP3   OH274509   1.440   1.821   3.442 -0.1826  0.1591 -0.1438
17673TIP3    H174510   1.521   1.809   3.392 -1.2824  0.2149 -2.0525
17673TIP3    H274511   1.418   1.733   3.474 -0.2055 -0.1660 -1.0216
17674TIP3   OH274512   5.740   3.749  16.446 -0.8828 -0.4760 -0.1526
17674TIP3    H174513   5.683   3.686  16.490  0.0402 -1.5106 -0.3838
17674TIP3    H274514   5.756   3.710  16.360 -1.5684  0.8572 -0.9257
17675TIP3   OH274515   2.882   1.807   6.610 -0.1056 -0.2286 -0.4753
17675TIP3    H174516   2.835   1.736   6.567  0.4998 -0.9182 -0.0169
17675TIP3    H274517   2.813   1.864   6.645 -0.6251 -1.2922  0.3031
17676TIP3   OH274518   2.927   6.587  11.549 -0.2348 -0.3720  0.0680
17676TIP3    H174519   2.950   6.631  11.467 -0.6714  0.2161  0.2582
17676TIP3    H274520   2.991   6.619  11.612 -0.1696 -0.4934  0.0654
17677TIP3   OH274521   2.905   5.801   0.666  0.3889  0.2716  0.5200
17677TIP3    H174522   2.812   5.809   0.688  0.3659  0.0261  0.5117
17677TIP3    H274523   2.950   5.820   0.748  0.4763  3.9293 -0.1917
17678TIP3   OH274524   3.532   3.151  11.430  0.8003 -0.0903  0.1322
17678TIP3    H174525   3.607   3.203  11.402 -0.9046  1.7619 -1.2899
17678TIP3    H274526   3.529   3.077  11.369  0.8723  0.3850 -0.4520
17679TIP3   OH274527   1.803   5.527  14.395  0.3574  0.7176 -0.2026
17679TIP3    H174528   1.879   5.545  14.450  1.2746  0.3368 -1.3053
17679TIP3    H274529   1.840   5.502  14.311 -0.9350 -1.3618 -0.2178
17680TIP3   OH274530   6.121   2.871  15.768  0.3259 -0.2622 -0.1918
17680TIP3    H174531   6.034   2.910  15.755 -0.3306 -1.4149  0.5715
17680TIP3    H274532   6.182   2.942  15.746 -0.7669  0.2046 -1.9207
17681TIP3   OH274533   3.339   3.389   0.008 -0.2961  0.0387  0.0812
17681TIP3    H174534   3.288   3.462  -0.029  0.0772  1.0441  1.4829
17681TIP3    H274535   3.276   3.342   0.063 -0.0214  0.6444  0.9466
17682TIP3   OH274536   0.100   1.384   6.372 -0.8872 -0.0262  0.0112
17682TIP3    H174537   0.128   1.463   6.418 -1.8107 -0.4498  1.3508
17682TIP3    H274538   0.128   1.312   6.429 -2.0831 -0.5652 -0.0586
17683TIP3   OH274539   4.450   3.196  11.565  0.4805  0.4943  0.3060
17683TIP3    H174540   4.383   3.228  11.626 -0.3632  0.0666 -0.3808
17683TIP3    H274541   4.521   3.166  11.622 -0.7228 -0.8967  1.1558
17684TIP3   OH274542   3.930   2.133  12.213 -0.4713 -0.4260  0.2162
17684TIP3    H174543   3.920   2.072  12.140  0.2462  0.6271 -0.8153
17684TIP3    H274544   4.019   2.117  12.245 -0.4698 -0.2878  0.2823
17685TIP3   OH274545   1.704   0.864  17.031 -0.1315 -0.5236  0.5925
17685TIP3    H174546   1.770   0.805  16.995 -0.1096  1.0371 -2.1984
17685TIP3    H274547   1.625   0.811  17.039  0.7295 -1.7236  1.3570
17686TIP3   OH274548   3.536   4.844  15.719  0.3390 -0.0446 -0.5780
17686TIP3    H174549   3.603   4.908  15.739 -1.1728  1.5900 -0.5234
17686TIP3    H274550   3.546   4.776  15.786  0.4973  1.3016  0.7995
17687TIP3   OH274551   4.754   4.837  13.438 -0.3547  0.0566 -0.1572
17687TIP3    H174552   4.669   4.792  13.437 -0.2722 -0.0906 -0.6376
17687TIP3    H274553   4.818   4.767  13.425 -0.0659 -0.0159  1.4626
17688TIP3   OH274554   6.027   2.988   3.373 -0.2507  0.4904 -0.4000
17688TIP3    H174555   6.024   3.065   3.317  1.0450  0.2536 -0.8524
17688TIP3    H274556   6.015   2.914   3.313  0.1530  0.2757 -0.2239
17689TIP3   OH274557   6.026   1.192  16.567  0.0886 -0.4389  0.7974
17689TIP3    H174558   5.935   1.196  16.597 -0.3121  2.5176 -0.4866
17689TIP3    H274559   6.077   1.208  16.647 -0.5063 -1.5751  1.4322
17690TIP3   OH274560   1.026   6.117  16.707 -0.3933  0.2420 -0.0376
17690TIP3    H174561   0.975   6.047  16.667  0.2438 -0.8260  0.9680
17690TIP3    H274562   1.064   6.078  16.786  0.7121  1.4544  0.0734
17691TIP3   OH274563   1.904   1.933  16.887 -0.6225  0.2738 -0.1786
17691TIP3    H174564   1.912   1.914  16.793  1.6399 -3.8516  0.6413
17691TIP3    H274565   1.828   1.883  16.915  0.3282 -0.7527  0.6175
17692TIP3   OH274566   4.813   5.221  17.335 -0.9538 -0.4516 -0.5944
17692TIP3    H174567   4.856   5.305  17.351 -0.4062 -0.1932 -2.9302
17692TIP3    H274568   4.884   5.157  17.340 -0.6059 -0.2773 -2.3421
17693TIP3   OH274569   5.531   6.776   5.903  0.0863  0.3289 -0.3739
17693TIP3    H174570   5.519   6.715   5.976 -0.3492  2.1267  1.1202
17693TIP3    H274571   5.625   6.777   5.888  0.2477  0.4131  0.6014
17694TIP3   OH274572   5.452   0.924  15.951 -0.2514  0.4625  0.1766
17694TIP3    H174573   5.485   0.876  15.876  0.6656  2.2769 -0.6557
17694TIP3    H274574   5.529   0.939  16.006 -0.0814  2.5142 -0.5097
17695TIP3   OH274575   2.959   4.182   0.942  0.4540 -0.8654  0.1835
17695TIP3    H174576   3.045   4.218   0.919 -0.0874  0.7702  0.5179
17695TIP3    H274577   2.964   4.170   1.037 -0.1129  0.6278  0.4432
17696TIP3   OH274578   6.053   3.257  15.553  0.2625  0.1319 -0.0630
17696TIP3    H174579   6.048   3.352  15.555 -0.0353  0.1052  1.3530
17696TIP3    H274580   6.099   3.237  15.472  1.4158  1.5252  0.2161
17697TIP3   OH274581   5.494   5.148   0.432  0.8978 -0.5977 -0.3443
17697TIP3    H174582   5.520   5.176   0.520  0.0002  0.1655 -0.3014
17697TIP3    H274583   5.520   5.220   0.375  0.0915 -0.3957 -0.4737
17698TIP3   OH274584   4.246   5.809  15.270 -0.2110 -0.4203 -0.0527
17698TIP3    H174585   4.220   5.722  15.300  2.4590 -1.3029 -0.0532
17698TIP3    H274586   4.250   5.801  15.175 -0.5855 -0.0984 -0.0962
17699TIP3   OH274587   0.404   5.037   5.349  0.0450  0.4790  0.3089
17699TIP3    H174588   0.333   5.058   5.410  1.3066 -0.0515  2.0111
17699TIP3    H274589   0.444   5.122   5.329 -2.1222  1.0693 -2.1654
17700TIP3   OH274590   0.438   0.718  16.865 -0.3658  0.5692  0.2318
17700TIP3    H174591   0.449   0.673  16.782  2.9668  1.4924  0.0365
17700TIP3    H274592   0.447   0.650  16.931 -0.3449  0.2254 -0.1241
17701TIP3   OH274593   2.034   6.718  12.054 -0.8528  0.1446  0.6767
17701TIP3    H174594   1.992   6.654  11.995  2.3202 -0.5458 -1.0982
17701TIP3    H274595   2.004   6.803  12.022 -0.1767 -0.2755 -1.2438
17702TIP3   OH274596   4.733   6.591   3.347 -0.3126  0.7806 -0.1605
17702TIP3    H174597   4.684   6.625   3.273 -0.2706  1.6398  0.1932
17702TIP3    H274598   4.782   6.666   3.380  0.5988  0.1291  0.0072
17703TIP3   OH274599   0.395   6.328   1.832 -0.4492  0.3103  0.3556
17703TIP3    H174600   0.307   6.353   1.804  0.3823  1.6485 -1.2505
17703TIP3    H274601   0.443   6.311   1.751  1.3565  1.7391  1.0333
17704TIP3   OH274602   4.571   4.960   5.827 -0.7677  0.0396  0.0231
17704TIP3    H174603   4.530   4.964   5.914 -0.1050  1.8834  0.2933
17704TIP3    H274604   4.547   5.043   5.785 -1.0133 -0.7897 -1.5588
17705TIP3   OH274605   1.610   3.093  15.142 -0.3154 -0.1043 -0.7698
17705TIP3    H174606   1.581   3.042  15.218 -0.7857 -0.0388 -0.9035
17705TIP3    H274607   1.532   3.141  15.114  0.5716  2.3152  0.6271
17706TIP3   OH274608   5.635   3.962  14.921  0.0827  0.3367  0.4022
17706TIP3    H174609   5.699   4.005  14.978 -1.1046 -0.3684  2.3577
17706TIP3    H274610   5.580   4.034  14.888  0.5597  0.7228  0.4355
17707TIP3   OH274611   3.203   3.432  13.615  0.5617  0.3673 -0.6065
17707TIP3    H174612   3.286   3.413  13.658  0.5832 -0.6230 -1.0581
17707TIP3    H274613   3.141   3.368  13.651  0.4348 -0.0771 -1.5627
17708TIP3   OH274614   5.494   1.877  13.440 -0.3275  0.3199 -0.0574
17708TIP3    H174615   5.471   1.784  13.448 -0.5620  0.5212  2.0556
17708TIP3    H274616   5.416   1.918  13.403 -0.7887 -0.1042  0.4311
17709TIP3   OH274617   5.352   1.719  16.466  0.2361 -0.1042 -0.1824
17709TIP3    H174618   5.313   1.757  16.386  0.3962  1.4838  0.4466
17709TIP3    H274619   5.362   1.794  16.525  1.9586 -0.9097  0.6058
17710TIP3   OH274620   5.983   3.652   0.447 -1.2902 -0.0080  0.1196
17710TIP3    H174621   6.049   3.588   0.420 -0.4111  0.4736  1.0239
17710TIP3    H274622   5.911   3.641   0.385 -0.4333 -0.6753 -0.7880
17711TIP3   OH274623   4.434   5.851   4.427 -0.0506  0.3894  0.8562
17711TIP3    H174624   4.372   5.796   4.379 -0.6179  1.5714  0.1728
17711TIP3    H274625   4.409   5.941   4.404  2.7089  0.9247 -0.5133
17712TIP3   OH274626   0.002   2.631  16.434 -0.1053  0.2421 -0.0299
17712TIP3    H174627  -0.044   2.655  16.354 -0.7243 -1.7023 -0.3157
17712TIP3    H274628  -0.064   2.587  16.487  1.3487 -2.7614 -0.4958
17713TIP3   OH274629   2.255   4.558  16.942 -0.6804  0.5673 -0.0352
17713TIP3    H174630   2.258   4.634  16.884  0.0605 -0.4934 -1.4801
17713TIP3    H274631   2.342   4.555  16.982 -0.6838  0.4433 -0.0362
17714TIP3   OH274632   4.039   3.857  15.584 -0.1708 -0.0836  0.1004
17714TIP3    H174633   3.943   3.855  15.577 -0.2319 -2.8250  0.8225
17714TIP3    H274634   4.064   3.768  15.609  2.5969  0.5469 -0.0695
17715TIP3   OH274635   1.911   6.058  14.572  0.9633 -0.3972  0.3898
17715TIP3    H174636   1.849   6.115  14.526  0.9994 -0.3497  0.3997
17715TIP3    H274637   1.954   6.115  14.635  1.3642 -0.3155  0.0506
17716TIP3   OH274638   6.237   5.743   4.616 -0.1585 -0.0596 -0.8686
17716TIP3    H174639   6.325   5.773   4.636  0.3523 -2.4703  0.9812
17716TIP3    H274640   6.185   5.823   4.610  1.8141  1.3428 -0.2006
17717TIP3   OH274641   0.162   4.805  11.515 -0.0502 -0.2845  0.6013
17717TIP3    H174642   0.162   4.804  11.419 -0.9334 -0.6474  0.5913
17717TIP3    H274643   0.073   4.779  11.539 -0.1624  0.8795  1.5139
17718TIP3   OH274644   5.126   5.712  15.331 -0.2870  0.0808 -0.3884
17718TIP3    H174645   5.070   5.641  15.299  1.9801 -1.4778 -1.2641
17718TIP3    H274646   5.128   5.700  15.426  0.1728 -1.1952 -0.5264
17719TIP3   OH274647   1.028   1.419   0.192  0.0986  0.7498  0.1968
17719TIP3    H174648   1.115   1.382   0.176  0.9128  2.7683 -0.4438
17719TIP3    H274649   0.993   1.435   0.104 -1.2189 -0.5749  0.4346
17720TIP3   OH274650   3.964   3.492   4.116 -0.5147 -0.7085 -0.1300
17720TIP3    H174651   3.962   3.574   4.165 -0.6507 -1.2403  0.7755
17720TIP3    H274652   3.959   3.424   4.182  1.9205 -1.5306 -0.6611
17721TIP3   OH274653   3.382   4.106  15.102 -0.0449 -0.7644  0.4818
17721TIP3    H174654   3.440   4.032  15.118  1.3687  0.4906  1.3715
17721TIP3    H274655   3.436   4.184  15.119 -1.1534  0.5207 -1.4204
17722TIP3   OH274656   4.797   6.328   3.441 -0.5271 -0.2674  0.3635
17722TIP3    H174657   4.782   6.417   3.410 -0.8418 -0.4440  0.0058
17722TIP3    H274658   4.862   6.338   3.511 -1.4742  0.3740  1.1777
17723TIP3   OH274659   0.441   6.697   1.102 -0.1744 -0.4384  0.2666
17723TIP3    H174660   0.447   6.726   1.193  0.1713 -1.6315  0.6412
17723TIP3    H274661   0.351   6.665   1.093 -0.2150 -0.3005  0.1820
17724TIP3   OH274662   3.349   0.356  13.824 -0.1373  0.2828  0.0787
17724TIP3    H174663   3.439   0.337  13.801 -0.2428 -0.2598  0.0974
17724TIP3    H274664   3.355   0.416  13.899  0.2179 -1.1654  1.2385
17725TIP3   OH274665   4.888   5.621   4.183  0.4471  0.1945  0.2404
17725TIP3    H174666   4.939   5.684   4.234  2.5574 -0.1981 -1.2675
17725TIP3    H274667   4.918   5.632   4.093  0.2516 -2.3186 -0.2267
17726TIP3   OH274668   1.315   3.032   1.098 -0.1364  0.1164  0.3857
17726TIP3    H174669   1.400   3.009   1.060 -0.7565  0.3232 -1.1902
17726TIP3    H274670   1.337   3.079   1.178  1.2832  0.8571 -0.3909
17727TIP3   OH274671   1.243   3.063   5.816  0.4719  0.3041 -0.0401
17727TIP3    H174672   1.270   3.006   5.744  1.7893  1.1386 -0.2434
17727TIP3    H274673   1.177   3.012   5.863  0.1458 -0.5740 -1.3705
17728TIP3   OH274674   0.021   0.063   4.736 -0.0892 -0.2233 -0.5296
17728TIP3    H174675   0.054  -0.008   4.790 -0.1926  0.6882  0.7609
17728TIP3    H274676   0.017   0.025   4.648  1.4815 -1.2867 -0.1934
17729TIP3   OH274677   1.701   0.987   6.352 -0.0890  0.3551 -0.4007
17729TIP3    H174678   1.713   1.060   6.292 -0.4736  0.4757 -0.3340
17729TIP3    H274679   1.629   0.936   6.314  0.1016  0.0737 -0.3866
17730TIP3   OH274680   3.053   3.821  12.967 -0.2869 -0.7487  0.3088
17730TIP3    H174681   3.039   3.754  13.034 -0.7935  0.2028  1.1947
17730TIP3    H274682   3.141   3.856  12.986 -0.6273 -0.1364  0.8210
17731TIP3   OH274683   0.533   1.866  15.338 -0.0024 -0.1377 -0.6924
17731TIP3    H174684   0.452   1.917  15.333 -0.3439 -0.6373 -0.3538
17731TIP3    H274685   0.509   1.789  15.388  1.1198  0.5378  0.9747
17732TIP3   OH274686   5.643   3.883  16.078  0.6974  0.5023  0.2677
17732TIP3    H174687   5.620   3.945  16.147  3.2159  2.6765 -0.6932
17732TIP3    H274688   5.721   3.839  16.111  1.0696  0.5048 -0.5865
17733TIP3   OH274689   5.237   6.095  13.931 -0.6193 -0.0679  0.3214
17733TIP3    H174690   5.326   6.122  13.908 -0.3772 -0.7192  0.4587
17733TIP3    H274691   5.189   6.096  13.848 -0.2271 -0.6412  0.0756
17734TIP3   OH274692   1.357   3.416   1.197 -0.3523 -0.2513  0.2949
17734TIP3    H174693   1.297   3.474   1.244 -0.9612 -0.8731  0.3057
17734TIP3    H274694   1.443   3.438   1.230 -0.4973  1.0948 -0.1662
17735TIP3   OH274695   0.482   4.683  11.695 -0.5945 -0.9708  0.5328
17735TIP3    H174696   0.459   4.776  11.702  0.8814 -0.6856  2.1154
17735TIP3    H274697   0.400   4.637  11.712 -1.4834  0.0087 -0.8657
17736TIP3   OH274698   5.221   3.152  11.365 -0.0271 -0.5784  0.4001
17736TIP3    H174699   5.215   3.070  11.316 -0.9884 -0.1877 -0.1526
17736TIP3    H274700   5.138   3.158  11.411 -1.1010  1.3650 -1.6315
17737TIP3   OH274701   3.584   6.461   4.664 -0.1793 -0.2270  0.1983
17737TIP3    H174702   3.561   6.370   4.645 -0.0882 -0.4080  0.9204
17737TIP3    H274703   3.677   6.459   4.686  0.2461  0.3031 -1.3785
17738TIP3   OH274704   5.658   1.066   4.474 -0.5968 -0.0066 -0.0339
17738TIP3    H174705   5.669   1.161   4.484  1.5006 -0.2757  0.8321
17738TIP3    H274706   5.747   1.031   4.479 -1.4044 -2.1371  0.7699
17739TIP3   OH274707   4.702   4.371   1.365 -0.4452 -0.4316 -0.1070
17739TIP3    H174708   4.649   4.352   1.288  0.3855  0.1426 -0.8380
17739TIP3    H274709   4.648   4.343   1.439 -1.8206  0.2355 -0.8221
17740TIP3   OH274710   0.196   3.483   5.428 -0.2486 -0.6196  0.3743
17740TIP3    H174711   0.169   3.573   5.447 -3.1876 -1.1496 -0.6749
17740TIP3    H274712   0.147   3.430   5.491 -0.2888 -1.6021 -0.4568
17741TIP3   OH274713   2.113   3.702   4.052  0.0803  0.1807 -0.3217
17741TIP3    H174714   2.194   3.737   4.089  0.4724 -0.5251 -0.5099
17741TIP3    H274715   2.070   3.658   4.125 -0.2455  0.7337 -0.1704
17742TIP3   OH274716   3.647   2.464  11.961  0.1887  0.4903  0.1838
17742TIP3    H174717   3.663   2.377  11.924 -0.4728  1.0272 -1.4376
17742TIP3    H274718   3.570   2.496  11.915  0.2338  1.8227  0.9793
17743TIP3   OH274719   5.045   1.363   1.356 -0.3416  0.5214 -0.4635
17743TIP3    H174720   4.983   1.398   1.292  0.4115  3.2487  0.1827
17743TIP3    H274721   5.129   1.365   1.312 -0.3805 -1.7540 -0.8063
17744TIP3   OH274722   1.945   4.601  12.258  0.1968 -0.6986 -0.2135
17744TIP3    H174723   1.971   4.614  12.167 -0.2036 -0.0719 -0.2430
17744TIP3    H274724   1.851   4.588  12.254  0.3591 -2.1047 -0.0192
17745TIP3   OH274725   1.130   2.268  11.669  0.2518  0.6563 -0.2114
17745TIP3    H174726   1.100   2.349  11.628  1.2669  0.6915 -0.9351
17745TIP3    H274727   1.159   2.294  11.756 -0.7015  0.8153  0.0676
17746TIP3   OH274728   5.166   3.133  15.830  0.2940  0.6873  0.0424
17746TIP3    H174729   5.213   3.177  15.901 -0.4897 -0.5255  1.3556
17746TIP3    H274730   5.094   3.193  15.809  0.7918  1.2631 -0.0621
17747TIP3   OH274731   4.836   2.416  11.122  0.2369  0.2083 -0.2990
17747TIP3    H174732   4.779   2.465  11.062 -0.8338 -0.3259  0.2510
17747TIP3    H274733   4.801   2.327  11.120  0.4801  0.0845  0.7664
17748TIP3   OH274734   5.998   2.564  16.479  0.7420  0.0792 -0.7583
17748TIP3    H174735   6.069   2.608  16.432 -0.1010 -0.7447 -2.8951
17748TIP3    H274736   6.014   2.471  16.465  0.4277 -0.1950  0.5909
17749TIP3   OH274737   5.649   1.483  12.484  0.4802  0.2481  0.2734
17749TIP3    H174738   5.678   1.540  12.555  0.4909 -0.8513  1.1812
17749TIP3    H274739   5.695   1.401  12.499  0.6985  0.0760 -1.1931
17750TIP3   OH274740   4.278   0.722   4.238 -0.0759 -0.1903 -0.5314
17750TIP3    H174741   4.202   0.685   4.194  0.3459 -0.4462 -1.0627
17750TIP3    H274742   4.266   0.701   4.330 -0.2679 -0.9116 -0.7151
17751TIP3   OH274743   3.164   3.942  11.221 -0.6026  0.0843 -0.2362
17751TIP3    H174744   3.154   3.891  11.141  0.9716 -0.2013 -0.2882
17751TIP3    H274745   3.250   3.984  11.213 -0.9955  1.1351  0.7092
17752TIP3   OH274746   4.603   5.914  12.645  0.7283  0.2571  0.0229
17752TIP3    H174747   4.653   5.833  12.650  0.2673  0.0056  0.6898
17752TIP3    H274748   4.626   5.962  12.724 -0.9166 -0.3737  0.9442
17753TIP3   OH274749   4.866   4.609  11.253  0.0095 -0.2855 -0.2963
17753TIP3    H174750   4.880   4.550  11.178  1.1192 -0.8267  0.3016
17753TIP3    H274751   4.798   4.669  11.224  1.9297  0.9609 -2.5993
17754TIP3   OH274752   4.627   5.265  14.388  0.4302 -0.0313 -0.3395
17754TIP3    H174753   4.556   5.296  14.445 -0.5738 -2.2471 -0.2912
17754TIP3    H274754   4.680   5.208  14.443 -0.2390 -1.7679 -1.4168
17755TIP3   OH274755   0.292   5.454   0.379  0.4222 -0.4867  0.1151
17755TIP3    H174756   0.384   5.461   0.406  0.0125  0.6488  1.3554
17755TIP3    H274757   0.244   5.504   0.445 -1.0970 -1.0275 -0.5280
17756TIP3   OH274758   3.101   1.136   0.800  0.3061 -0.3757  0.5937
17756TIP3    H174759   3.100   1.230   0.784 -0.2064 -0.3374  0.8212
17756TIP3    H274760   3.015   1.106   0.769  0.5479 -0.8023  0.3257
17757TIP3   OH274761   1.358   4.303   1.015 -0.1401  0.9686  0.3331
17757TIP3    H174762   1.310   4.220   1.009 -3.2869  2.3962  2.6313
17757TIP3    H274763   1.423   4.289   1.084 -0.9057  0.4848  0.9766
17758TIP3   OH274764   2.661   0.068  10.912 -0.3158  0.2940 -0.3017
17758TIP3    H174765   2.617   0.058  10.828  0.2320 -0.4565 -0.5140
17758TIP3    H274766   2.665  -0.021  10.948  0.9602  0.3317 -0.2777
17759TIP3   OH274767   0.161   6.157   2.035  0.2203 -0.4996 -0.2179
17759TIP3    H174768   0.213   6.077   2.029  0.1542 -0.5406 -0.2527
17759TIP3    H274769   0.171   6.199   1.949  2.6221  1.0217  0.6956
17760TIP3   OH274770   2.133   6.507  15.404  0.0800 -0.1196  0.1960
17760TIP3    H174771   2.098   6.568  15.468 -0.0179 -1.6222  1.6401
17760TIP3    H274772   2.058   6.451  15.380  0.7036 -1.2605  0.8200
17761TIP3   OH274773   6.573   6.162  14.735  0.1212  0.0337 -0.2727
17761TIP3    H174774   6.581   6.067  14.727  1.4271  0.1739 -0.7954
17761TIP3    H274775   6.483   6.181  14.707 -0.0500 -1.0082 -0.4651
17762TIP3   OH274776   3.227   4.955   2.158 -0.6411 -0.0264 -0.0190
17762TIP3    H174777   3.173   4.985   2.085 -0.0117 -0.3740 -0.6292
17762TIP3    H274778   3.303   5.013   2.158  0.1811 -1.0737 -0.6936
17763TIP3   OH274779   2.718   2.258  11.064  0.2674  0.4391 -0.0014
17763TIP3    H174780   2.734   2.172  11.024 -1.0878  0.2060 -0.1069
17763TIP3    H274781   2.746   2.249  11.155 -3.7471 -1.6005  1.3017
17764TIP3   OH274782   4.775   0.402  11.780 -0.6964  0.4806 -0.2840
17764TIP3    H174783   4.786   0.311  11.805 -0.5140  1.0929  2.0489
17764TIP3    H274784   4.681   0.415  11.772 -0.8591  0.5429  1.4041
17765TIP3   OH274785   0.212   5.573  13.466  0.0461  0.3738  0.3230
17765TIP3    H174786   0.216   5.499  13.406 -2.7680  0.8602 -0.6150
17765TIP3    H274787   0.273   5.637  13.429  0.1022 -0.2328 -0.6782
17766TIP3   OH274788   0.550   2.993  14.500  0.2128 -0.0047 -0.0759
17766TIP3    H174789   0.538   2.996  14.595  0.5379  0.1533 -0.0359
17766TIP3    H274790   0.480   3.048  14.466  0.3503  0.2868  0.1005
17767TIP3   OH274791   3.195   2.318  13.864  0.0911 -0.2406  0.4068
17767TIP3    H174792   3.122   2.304  13.924  0.2024  0.0061  0.6048
17767TIP3    H274793   3.265   2.354  13.920  1.1581 -2.5339  0.6772
17768TIP3   OH274794   1.073   6.673   1.758  0.0939  0.6748  0.3007
17768TIP3    H174795   1.023   6.706   1.833  0.8774  1.7752  0.3689
17768TIP3    H274796   1.040   6.723   1.683 -1.3564 -1.0788 -0.3162
17769TIP3   OH274797   1.045   6.363  10.322 -0.1739 -0.8196  0.5121
17769TIP3    H174798   1.004   6.365  10.235  0.7198 -1.3820  0.0633
17769TIP3    H274799   0.992   6.423  10.375 -1.6948 -1.6868  0.0198
17770TIP3   OH274800   2.089   2.060  15.454 -0.0820  0.2114 -0.2166
17770TIP3    H174801   2.140   2.093  15.380  2.2089 -1.6698  0.4298
17770TIP3    H274802   2.091   1.965  15.445 -1.2251  0.0002  1.3490
17771TIP3   OH274803   3.812   1.842   4.704  0.5355 -0.4634  0.0057
17771TIP3    H174804   3.769   1.763   4.739  0.7906  0.6584  3.2082
17771TIP3    H274805   3.872   1.808   4.638 -0.7826 -2.7322 -0.1505
17772TIP3   OH274806   3.774   5.728   4.252  0.3498  0.1293 -0.4642
17772TIP3    H174807   3.853   5.678   4.228  1.1885  1.0812  0.2293
17772TIP3    H274808   3.702   5.668   4.234  1.3005 -1.2472  0.1053
17773TIP3   OH274809   6.030   6.152  12.864  0.4505 -0.5940 -0.7793
17773TIP3    H174810   6.114   6.125  12.903 -0.6463 -2.1676  0.6391
17773TIP3    H274811   6.009   6.083  12.802 -1.4551 -2.2250  1.4898
17774TIP3   OH274812   2.042   2.811  16.361  0.0616 -0.6542 -0.0121
17774TIP3    H174813   2.101   2.846  16.428  0.4812 -1.2465 -0.0646
17774TIP3    H274814   1.978   2.881  16.347  0.9073  0.1198 -0.1517
17775TIP3   OH274815   1.228   4.863   3.693 -0.0816  0.0917 -0.2067
17775TIP3    H174816   1.245   4.919   3.770  1.5658 -0.7436  0.0753
17775TIP3    H274817   1.278   4.904   3.622 -0.6865  0.2238 -0.5624
17776TIP3   OH274818   5.922   6.706  16.836 -0.0261  0.3868 -0.3006
17776TIP3    H174819   5.902   6.622  16.876  4.0303 -1.2079 -1.1908
17776TIP3    H274820   5.877   6.770  16.891 -1.0221 -2.1364  2.0496
17777TIP3   OH274821   3.505   6.300  12.643  0.0894 -0.1234 -0.4112
17777TIP3    H174822   3.586   6.272  12.601  0.4765  0.6279 -0.2023
17777TIP3    H274823   3.526   6.302  12.736 -1.0233 -2.6311 -0.0477
17778TIP3   OH274824   1.227   2.844   2.410 -0.0185 -0.5226  0.6009
17778TIP3    H174825   1.215   2.760   2.454  2.7781 -0.5360  1.5398
17778TIP3    H274826   1.207   2.909   2.477  1.3167 -0.5048  0.9939
17779TIP3   OH274827   2.069   6.443  12.500  0.5363  0.6226 -0.2890
17779TIP3    H174828   2.008   6.475  12.567 -0.7355  0.6160 -1.4031
17779TIP3    H274829   2.136   6.511  12.495 -2.5367  3.8993 -3.2157
17780TIP3   OH274830   4.836   4.781  14.162 -0.1358  0.5896  0.2664
17780TIP3    H174831   4.917   4.732  14.172  1.5547  2.6621 -2.1941
17780TIP3    H274832   4.828   4.831  14.243  0.6350 -0.2019  0.8456
17781TIP3   OH274833   1.371   1.202  12.736  0.0331 -0.4279 -0.0635
17781TIP3    H174834   1.376   1.113  12.772  1.1277 -0.3853 -0.0809
17781TIP3    H274835   1.455   1.214  12.692 -0.5107  0.2574 -0.9192
17782TIP3   OH274836   5.470   0.819   0.270  0.1557 -0.6880  0.1038
17782TIP3    H174837   5.450   0.884   0.203  0.7632 -0.7833 -0.1739
17782TIP3    H274838   5.402   0.752   0.259 -1.6499  0.7708  1.6366
17783TIP3   OH274839   2.725   1.418  14.158  0.0498 -0.1812 -0.4523
17783TIP3    H174840   2.788   1.367  14.209 -0.0048 -0.2129 -0.4174
17783TIP3    H274841   2.741   1.392  14.067  0.8417  0.6189 -0.5566
17784TIP3   OH274842   6.491   4.985  15.655  0.3322  0.1002  0.3965
17784TIP3    H174843   6.565   5.012  15.709 -0.9953  2.1276  1.3383
17784TIP3    H274844   6.440   5.065  15.642 -0.8686 -0.9092 -1.5553
17785TIP3   OH274845   5.233   2.695   6.060  0.2695 -0.8164 -0.1484
17785TIP3    H174846   5.266   2.684   6.150 -1.2359  0.9146  0.6835
17785TIP3    H274847   5.143   2.663   6.064 -0.8096  1.9359 -0.2133
17786TIP3   OH274848   1.141   1.682  13.082 -0.9554  0.3082  0.3494
17786TIP3    H174849   1.149   1.689  12.987  2.0612 -0.2909  0.4472
17786TIP3    H274850   1.152   1.771  13.114  2.1705  0.0909  0.1980
17787TIP3   OH274851   0.837   6.029   0.588  0.0143  0.2058  0.6999
17787TIP3    H174852   0.814   5.949   0.540  0.7005 -1.0890  2.4186
17787TIP3    H274853   0.753   6.063   0.619 -0.3920  0.8065 -0.9515
17788TIP3   OH274854   3.681   6.635   2.150 -0.1113  0.2777  0.4127
17788TIP3    H174855   3.717   6.666   2.066  1.0084 -3.5696 -0.7607
17788TIP3    H274856   3.586   6.639   2.138 -0.0025  1.9432 -0.1087
17789TIP3   OH274857   6.071   5.591   2.497  0.1361 -0.1412  0.0248
17789TIP3    H174858   5.991   5.570   2.448 -0.1221  0.4547  0.1793
17789TIP3    H274859   6.123   5.511   2.492 -0.2480 -0.3702 -0.5101
17790TIP3   OH274860   4.514   1.387   4.284  0.1370  0.3043 -0.3580
17790TIP3    H174861   4.513   1.380   4.188 -0.0458 -0.9776 -0.2781
17790TIP3    H274862   4.607   1.384   4.307  0.2102  1.1135 -0.5129
17791TIP3   OH274863   2.170   4.573   1.748 -0.1624 -0.0984 -0.3627
17791TIP3    H174864   2.115   4.601   1.820 -0.2908 -0.9779 -0.0992
17791TIP3    H274865   2.179   4.650   1.692 -2.0938 -0.0672 -0.6815
17792TIP3   OH274866   6.545   3.416   5.947  0.5395 -0.4150 -0.3687
17792TIP3    H174867   6.522   3.345   5.887 -0.6841 -0.7942  0.5035
17792TIP3    H274868   6.640   3.411   5.956  0.6445 -0.8722 -1.6133
17793TIP3   OH274869   5.748   3.623  14.743 -0.3621  0.5246 -0.3098
17793TIP3    H174870   5.806   3.565  14.694  0.2198  1.2645 -0.5049
17793TIP3    H274871   5.806   3.686  14.785 -0.8079 -0.3108  1.6713
17794TIP3   OH274872   2.531   5.593   1.255  0.4017  0.0476  0.4664
17794TIP3    H174873   2.551   5.657   1.323 -1.9065  1.6747 -0.2612
17794TIP3    H274874   2.506   5.514   1.302  1.5433  0.2296  1.4175
17795TIP3   OH274875   3.379   2.998  15.692  0.2432 -0.1831 -0.3551
17795TIP3    H174876   3.289   2.967  15.695 -0.5728  2.0533 -0.0184
17795TIP3    H274877   3.418   2.967  15.773  0.1056 -1.9898 -0.9394
17796TIP3   OH274878   2.127   4.939  11.456  0.0981  0.2166 -0.0109
17796TIP3    H174879   2.114   4.916  11.548 -3.6241  0.4757 -0.3178
17796TIP3    H274880   2.118   5.034  11.454 -3.8420 -0.0062 -0.9412
17797TIP3   OH274881   5.253   3.615   1.039  0.3278 -0.3025  0.2347
17797TIP3    H174882   5.338   3.589   1.076  0.5507  0.1222  0.0326
17797TIP3    H274883   5.250   3.573   0.953  1.2413  1.2870 -0.6340
17798TIP3   OH274884   2.176   4.419   2.456 -0.8603 -0.5151  0.1442
17798TIP3    H174885   2.119   4.404   2.531 -0.6568 -0.5013  0.3011
17798TIP3    H274886   2.265   4.411   2.491 -0.7188 -3.3029 -0.6337
17799TIP3   OH274887   4.951   5.668  11.071 -0.0399  0.1722  0.3337
17799TIP3    H174888   4.919   5.608  11.004 -0.4826  1.1329 -0.3481
17799TIP3    H274889   4.883   5.736  11.077 -0.0172  0.1177  1.7655
17800TIP3   OH274890   4.367   3.380  13.744  0.3015  0.3374 -0.4780
17800TIP3    H174891   4.276   3.396  13.722  0.1465  0.6661  0.3754
17800TIP3    H274892   4.401   3.465  13.770  0.2326 -0.1642  1.3668
17801TIP3   OH274893   1.729   5.166   3.440 -0.1733 -0.3049 -0.1660
17801TIP3    H174894   1.725   5.187   3.533 -0.6527 -0.4682 -0.1479
17801TIP3    H274895   1.823   5.160   3.421 -0.0727 -0.7069  0.4059
17802TIP3   OH274896   2.204   0.514   2.880  0.1623  0.1398  0.3689
17802TIP3    H174897   2.220   0.598   2.838  0.0224 -0.1926 -0.3677
17802TIP3    H274898   2.109   0.503   2.879  0.2711 -0.9828 -1.5051
17803TIP3   OH274899   2.067   2.636  12.940 -0.0764  0.3209 -0.3597
17803TIP3    H174900   2.081   2.542  12.943  0.0515  0.2897 -1.4934
17803TIP3    H274901   2.149   2.674  12.969  1.2861  0.0980 -3.5106
17804TIP3   OH274902   6.502   5.585   2.715  0.8850 -0.4681  0.8119
17804TIP3    H174903   6.423   5.536   2.737  0.3882 -1.3918 -2.5070
17804TIP3    H274904   6.574   5.526   2.737  0.4272 -1.3403  0.0353
17805TIP3   OH274905   3.860   3.664  15.817  0.1679 -0.3729 -0.3459
17805TIP3    H174906   3.832   3.756  15.820 -0.6959 -0.6218 -0.3035
17805TIP3    H274907   3.810   3.627  15.745 -0.7405 -1.1892  0.6707
17806TIP3   OH274908   0.395   1.164   5.594 -0.3473  0.3574 -0.1731
17806TIP3    H174909   0.337   1.092   5.568  0.9958 -0.3605 -1.2439
17806TIP3    H274910   0.467   1.121   5.641  0.0736  1.0871 -0.1455
17807TIP3   OH274911   4.231   6.161  11.708 -0.2827  0.5105  0.5953
17807TIP3    H174912   4.187   6.236  11.667  1.8699  0.7164 -1.6028
17807TIP3    H274913   4.239   6.185  11.800  0.5463  3.1331 -0.0826
17808TIP3   OH274914   6.097   5.542   0.009 -0.5471  0.5352 -0.3374
17808TIP3    H174915   6.076   5.497  -0.073  1.3683 -1.7993  0.3474
17808TIP3    H274916   6.192   5.544   0.011 -0.5460  0.1955  2.0080
17809TIP3   OH274917   5.391   1.758   0.935 -0.0801  0.5012  0.7522
17809TIP3    H174918   5.296   1.763   0.941 -0.1756  1.3508 -0.9023
17809TIP3    H274919   5.407   1.701   0.860  0.7130  0.9502  0.5745
17810TIP3   OH274920   0.743   1.593   1.112 -0.2464  0.2592 -0.3580
17810TIP3    H174921   0.783   1.505   1.105  0.6178  0.6333 -0.2941
17810TIP3    H274922   0.748   1.614   1.205 -1.3824 -0.0294 -0.2174
17811TIP3   OH274923   6.321   6.672   0.779  0.0292  0.0284 -0.0241
17811TIP3    H174924   6.306   6.699   0.688  1.7607  0.6444 -0.1670
17811TIP3    H274925   6.380   6.738   0.814 -0.6358 -0.1922  1.5802
17812TIP3   OH274926   6.060   0.117  11.432 -0.1173  0.1834  0.2893
17812TIP3    H174927   6.008   0.037  11.433  0.0729 -0.0225 -1.5311
17812TIP3    H274928   6.150   0.087  11.445 -0.2341  0.3226  1.4758
17813TIP3   OH274929   5.803   5.094  13.785  0.0044  0.1003 -0.2099
17813TIP3    H174930   5.734   5.059  13.842  0.2686  0.2597  0.2082
17813TIP3    H274931   5.875   5.116  13.844  1.2378 -1.9661 -0.8208
17814TIP3   OH274932   3.622   3.056   2.530  0.0945 -0.4838 -0.1628
17814TIP3    H174933   3.549   3.118   2.538  2.1979  2.0569  1.0093
17814TIP3    H274934   3.623   3.032   2.438 -3.1250 -1.9190  0.0560
17815TIP3   OH274935   1.121   2.506  13.226 -0.4409 -0.6458 -0.1127
17815TIP3    H174936   1.176   2.486  13.150  0.2497  0.3689  0.0963
17815TIP3    H274937   1.038   2.535  13.190 -0.0070  0.1386 -0.5019
17816TIP3   OH274938   5.165   4.718   1.720 -0.5430  0.0085 -0.0754
17816TIP3    H174939   5.185   4.626   1.738  0.0579  0.4681  1.8512
17816TIP3    H274940   5.083   4.734   1.767  0.1247  0.8203  0.8323
17817TIP3   OH274941   6.037   0.389  13.563  0.1539 -0.1901 -0.1801
17817TIP3    H174942   6.013   0.371  13.654 -0.4092  2.1826  0.2041
17817TIP3    H274943   6.121   0.343  13.551  1.9265  1.9838  2.5979
17818TIP3   OH274944   0.529   3.627   2.721 -0.7324  0.4131 -0.2925
17818TIP3    H174945   0.487   3.696   2.774 -2.6884  0.3631 -1.6396
17818TIP3    H274946   0.584   3.675   2.660 -1.1588  0.7224 -0.4433
17819TIP3   OH274947   4.606   1.720   5.630  0.3229 -0.4192 -0.3559
17819TIP3    H174948   4.699   1.708   5.609  0.6012  1.0939 -0.1331
17819TIP3    H274949   4.574   1.781   5.564 -0.4894 -0.8192 -0.3491
17820TIP3   OH274950   2.015   3.338   1.472  0.1290 -0.4885  0.0477
17820TIP3    H174951   1.925   3.317   1.447  0.4004 -0.0637 -1.3738
17820TIP3    H274952   2.007   3.392   1.550 -0.8409 -0.4716 -0.0553
17821TIP3   OH274953   1.388   3.977  16.996  0.0476  0.2098 -0.8313
17821TIP3    H174954   1.326   3.986  17.068  1.2850  0.6748  0.2237
17821TIP3    H274955   1.366   4.049  16.936 -0.7106  0.0942 -0.6914
17822TIP3   OH274956   1.957   1.511   5.449 -0.1472  0.0408  0.3804
17822TIP3    H174957   1.983   1.602   5.465 -0.0265 -0.0337  0.6184
17822TIP3    H274958   2.031   1.474   5.400 -0.1245  0.0256  0.4265
17823TIP3   OH274959   2.403   2.476  16.384  0.3758 -0.1065  0.0005
17823TIP3    H174960   2.391   2.445  16.294  0.2915  0.7910 -0.3129
17823TIP3    H274961   2.362   2.563  16.385  0.9270  0.1559  0.7405
17824TIP3   OH274962   1.125   0.855   3.305 -0.2522  0.3676 -0.3172
17824TIP3    H174963   1.071   0.888   3.233 -1.3694 -1.3183 -0.3280
17824TIP3    H274964   1.061   0.822   3.368  0.7585  0.0923  0.5759
17825TIP3   OH274965   1.823   3.565   2.360 -0.5951  0.3775  0.2797
17825TIP3    H174966   1.736   3.604   2.351 -0.4728  0.2634 -2.0689
17825TIP3    H274967   1.852   3.549   2.269  0.9687 -1.5894  1.0430
17826TIP3   OH274968   3.565   0.497   5.519 -0.2917 -0.2971 -0.4472
17826TIP3    H174969   3.651   0.494   5.561 -0.2874  0.6809 -0.3546
17826TIP3    H274970   3.583   0.494   5.425 -0.1134  0.4563 -0.4425
17827TIP3   OH274971   6.140   0.805   0.760 -0.0865 -0.4005  0.4800
17827TIP3    H174972   6.215   0.781   0.815  0.7538  0.4472 -0.2471
17827TIP3    H274973   6.112   0.722   0.721  1.7224 -0.5145 -0.7223
17828TIP3   OH274974   1.928   0.829   4.348  0.2118  0.2475 -0.1734
17828TIP3    H174975   1.962   0.907   4.304 -0.4670  0.5306 -0.2082
17828TIP3    H274976   1.867   0.862   4.413  2.2108 -0.0776  2.0177
17829TIP3   OH274977   2.383   0.548  14.370  0.3923 -0.2213 -0.2307
17829TIP3    H174978   2.431   0.622  14.408 -0.2484  0.1294 -0.0851
17829TIP3    H274979   2.374   0.570  14.277 -1.7018  0.9832  0.1863
17830TIP3   OH274980   1.799   6.733  13.949  0.4088 -0.3371  0.6600
17830TIP3    H174981   1.884   6.734  13.993 -0.1259 -0.7912  1.7454
17830TIP3    H274982   1.788   6.641  13.922  0.1236 -0.3548  0.8283
17831TIP3   OH274983   0.515   0.190   3.217 -0.6787  0.1154  0.0261
17831TIP3    H174984   0.568   0.183   3.138 -0.9402 -0.9187 -0.0695
17831TIP3    H274985   0.560   0.255   3.271 -0.0787  0.2571 -0.6361
17832TIP3   OH274986   5.565   5.696   6.287 -0.0901 -0.2824  0.3819
17832TIP3    H174987   5.520   5.778   6.267  0.7204  0.0972  0.0452
17832TIP3    H274988   5.536   5.673   6.375 -0.3772  0.3301  0.4546
17833TIP3   OH274989   0.624   0.462   1.821  0.4697 -0.3357  0.3388
17833TIP3    H174990   0.715   0.480   1.801  0.9823 -1.0676  1.8520
17833TIP3    H274991   0.603   0.521   1.894 -0.1242 -0.5093  0.3191
17834TIP3   OH274992   0.189   4.531   1.248 -0.7890 -0.1672  0.7296
17834TIP3    H174993   0.206   4.536   1.154 -0.1798 -0.7900  0.8039
17834TIP3    H274994   0.207   4.619   1.281 -0.5553 -0.0704  0.3421
17835TIP3   OH274995   0.985   5.736  12.873 -0.3579 -0.1178  0.2484
17835TIP3    H174996   0.967   5.753  12.780  1.6313  0.0034 -0.1763
17835TIP3    H274997   1.006   5.822  12.909 -1.6865 -0.0845  0.9749
17836TIP3   OH274998   2.477   2.605  11.955  0.5302 -0.4203 -0.4246
17836TIP3    H174999   2.508   2.594  12.045 -0.6238 -1.0228 -0.0739
17836TIP3    H275000   2.497   2.522  11.912 -0.3355 -0.7263 -0.2617
17837TIP3   OH275001   5.355   0.543  14.425 -0.1391  0.0117 -0.4118
17837TIP3    H175002   5.299   0.468  14.444 -0.4741 -0.3123 -2.4675
17837TIP3    H275003   5.444   0.511  14.437 -0.3069 -0.4716 -0.4630
17838TIP3   OH275004   0.618   0.998  10.695 -0.0558  0.3789 -0.1327
17838TIP3    H175005   0.632   1.018  10.788  1.1677  0.9425 -0.4173
17838TIP3    H275006   0.558   1.067  10.665 -0.1891  0.3920  0.1558
17839TIP3   OH275007   0.821   0.582   0.386  0.5460 -0.8467 -0.3505
17839TIP3    H175008   0.773   0.612   0.464 -2.6563 -0.3965 -2.3081
17839TIP3    H275009   0.836   0.661   0.335  0.4303 -1.4182 -1.2946
17840TIP3   OH275010   5.247   2.714   2.332 -0.0733  0.5224  0.4777
17840TIP3    H175011   5.227   2.688   2.243 -0.1739 -2.2550  1.2356
17840TIP3    H275012   5.216   2.642   2.386  3.0761  0.4823  2.5005
17841TIP3   OH275013   3.562   5.771  17.031 -0.1589 -0.7152 -0.3237
17841TIP3    H175014   3.485   5.718  17.053 -2.3652  1.4609 -2.2353
17841TIP3    H275015   3.527   5.847  16.984  3.2201  0.0748 -1.9130
17842TIP3   OH275016   4.770   0.077  15.914 -0.4493  0.2814  0.2562
17842TIP3    H175017   4.797   0.095  15.824  0.6224 -0.6501  0.3846
17842TIP3    H275018   4.740  -0.013  15.913 -1.2892  0.5443  0.6534
17843TIP3   OH275019   0.828   2.615   2.186 -0.5728 -0.6334  0.0655
17843TIP3    H175020   0.848   2.659   2.269  0.2062 -0.9062  0.0310
17843TIP3    H275021   0.748   2.657   2.155  0.0103  0.5949  0.1536
17844TIP3   OH275022   1.271   0.899  15.550 -0.2072  0.5157 -0.5644
17844TIP3    H175023   1.188   0.856  15.568  0.2158  0.1435  0.5974
17844TIP3    H275024   1.254   0.992  15.565 -0.3957  0.4345 -0.2766
17845TIP3   OH275025   3.680   4.888  16.335 -0.6672  0.1866 -0.2473
17845TIP3    H175026   3.607   4.943  16.306 -0.0107  1.7988  1.0211
17845TIP3    H275027   3.757   4.931  16.299 -0.1085  0.3072  1.0648
17846TIP3   OH275028   5.529   1.614   2.501  0.7525 -0.1417 -0.0489
17846TIP3    H175029   5.620   1.620   2.472  0.9754 -1.3276  0.3566
17846TIP3    H275030   5.533   1.629   2.595  0.4134  0.5809 -0.1379
17847TIP3   OH275031   3.148   1.026  13.941  0.1623  0.1344  0.1272
17847TIP3    H175032   3.220   1.034  13.879 -0.0892  0.1491 -0.1657
17847TIP3    H275033   3.097   0.952  13.909 -0.8776  1.1365 -0.6275
17848TIP3   OH275034   1.317   3.880  13.317 -0.0656  0.6081  0.2177
17848TIP3    H175035   1.273   3.948  13.265 -0.3542  1.2900  1.3162
17848TIP3    H275036   1.294   3.798  13.274 -3.4430  0.7937  1.3975
17849TIP3   OH275037   4.439   4.177   1.450  0.5774 -0.0377 -0.3035
17849TIP3    H175038   4.366   4.159   1.390  0.0250  1.0836  0.0062
17849TIP3    H275039   4.397   4.190   1.535  0.9785  1.9380 -0.3671
17850TIP3   OH275040   0.892   2.125  16.214  0.5802 -0.2722  0.2096
17850TIP3    H175041   0.835   2.059  16.254  0.5446 -0.6014 -0.3658
17850TIP3    H275042   0.979   2.085  16.214  0.5418 -0.3587 -0.2248
17851TIP3   OH275043   2.597   1.151  12.446  0.0217  0.2125 -0.4757
17851TIP3    H175044   2.652   1.081  12.480  1.8798  1.0216 -1.6596
17851TIP3    H275045   2.569   1.120  12.360 -2.3307 -0.6416  0.5382
17852TIP3   OH275046   2.653   2.263  11.779 -0.2697  0.7773  0.4864
17852TIP3    H175047   2.620   2.313  11.704  1.4807  0.5947 -0.4498
17852TIP3    H275048   2.714   2.323  11.822  0.9760 -0.1190  0.0181
17853TIP3   OH275049   4.866   6.438  13.650 -0.1827 -0.2432  0.5172
17853TIP3    H175050   4.933   6.439  13.717  0.1530  0.8945  0.1947
17853TIP3    H275051   4.843   6.530  13.637 -0.3585 -0.4439 -0.8002
17854TIP3   OH275052   0.889   3.741  14.768  0.0938 -0.6169  0.2068
17854TIP3    H175053   0.862   3.669  14.825 -0.2511  0.0333  0.8848
17854TIP3    H275054   0.868   3.820  14.817 -0.2757 -0.0277 -0.8497
17855TIP3   OH275055   5.956   1.563   0.879 -0.1114 -0.4824  0.1738
17855TIP3    H175056   5.869   1.529   0.857 -0.5104  0.7110 -0.1842
17855TIP3    H275057   5.980   1.616   0.803  0.3767  0.2144  0.8049
17856TIP3   OH275058   2.940   6.363  16.070  0.3855  0.1526 -0.5736
17856TIP3    H175059   2.915   6.425  16.139 -2.8651  0.2115 -1.6349
17856TIP3    H275060   2.972   6.418  15.999 -0.2109  0.4553 -0.6184
17857TIP3   OH275061   2.356   3.823  11.404  0.0643 -0.8833 -0.4525
17857TIP3    H175062   2.290   3.892  11.410 -0.1034 -1.0362 -0.5241
17857TIP3    H275063   2.424   3.849  11.465 -0.1470 -0.8147 -0.2450
17858TIP3   OH275064   5.542   1.199   2.505 -0.0850  0.2263  0.0183
17858TIP3    H175065   5.508   1.264   2.566 -2.7024  0.4975 -1.5680
17858TIP3    H275066   5.563   1.248   2.425  2.1668 -0.2886  0.2057
17859TIP3   OH275067   6.291   4.676  12.751 -0.4542 -0.2155  0.4051
17859TIP3    H175068   6.316   4.612  12.685 -0.6414 -0.0038  0.1231
17859TIP3    H275069   6.202   4.652  12.775 -0.6306  0.1000  0.0914
17860TIP3   OH275070   4.235   1.259  13.704  0.5470  0.0108  0.0418
17860TIP3    H175071   4.142   1.243  13.719  0.7162  0.3349  1.5437
17860TIP3    H275072   4.274   1.172  13.705  0.3145 -0.1004 -0.2670
17861TIP3   OH275073   3.470   5.098   5.338  0.6600 -0.1029  0.0431
17861TIP3    H175074   3.466   5.186   5.300  1.5870 -0.0507  0.0487
17861TIP3    H275075   3.541   5.055   5.291  1.6002 -0.1557  1.4384
17862TIP3   OH275076   6.257   6.187   4.367 -0.3054 -1.1423 -0.3986
17862TIP3    H175077   6.221   6.253   4.426 -1.2563 -0.6158 -1.5422
17862TIP3    H275078   6.181   6.134   4.341  0.2871 -2.0935 -0.2598
17863TIP3   OH275079   4.535   4.763  17.000  0.4432 -0.1699 -0.5166
17863TIP3    H175080   4.605   4.748  16.937  0.2159 -0.7534 -0.6408
17863TIP3    H275081   4.494   4.677  17.011  1.7265 -0.5575  1.9246
17864TIP3   OH275082   3.409   3.462   2.366 -0.1699 -0.3120  0.2253
17864TIP3    H175083   3.479   3.413   2.410 -0.7826 -0.8587  0.6023
17864TIP3    H275084   3.446   3.550   2.353  0.1529 -0.2396  1.5001
17865TIP3   OH275085   5.677   1.609   0.913 -0.1153 -0.5699  0.3958
17865TIP3    H175086   5.616   1.604   0.987 -2.6480  1.1280 -1.4411
17865TIP3    H275087   5.669   1.525   0.869 -0.8536 -0.5000  0.3931
17866TIP3   OH275088   5.193   5.140   4.301 -0.1670 -0.5543  0.3992
17866TIP3    H175089   5.153   5.062   4.341 -3.4616  0.5738 -0.3884
17866TIP3    H275090   5.126   5.173   4.242  2.4787  0.9478 -1.9636
17867TIP3   OH275091   2.806   5.421  12.050  0.2096 -0.1172 -0.0915
17867TIP3    H175092   2.863   5.410  12.126 -0.3632 -2.6194  0.0499
17867TIP3    H275093   2.852   5.376  11.979 -1.6517 -2.5523  0.1169
17868TIP3   OH275094   0.740   4.232  17.032  0.5756 -0.3700  0.1033
17868TIP3    H175095   0.688   4.231  16.951  0.0182 -0.0270  0.4514
17868TIP3    H275096   0.762   4.325  17.044 -2.6404  0.2470  2.4010
17869TIP3   OH275097   1.165   3.046   2.601  0.1431  0.2848  0.1361
17869TIP3    H175098   1.207   3.097   2.671  2.0010 -0.0893 -0.6630
17869TIP3    H275099   1.081   3.020   2.639  1.7749 -1.4023  2.9341
17870TIP3   OH275100   0.899   4.730  16.847  0.1235 -0.4822  0.7418
17870TIP3    H175101   0.825   4.680  16.813 -1.5114  1.3441  1.4094
17870TIP3    H275102   0.949   4.668  16.899 -0.2981 -2.0338 -0.6133
17871TIP3   OH275103   6.498   4.231  15.379  0.3685 -0.2880 -0.5664
17871TIP3    H175104   6.461   4.316  15.401  3.1774  1.0369 -0.4661
17871TIP3    H275105   6.453   4.169  15.435 -1.5129  1.1658 -0.3894
17872TIP3   OH275106   6.740   4.448   3.665  0.0058  0.0707 -0.2821
17872TIP3    H175107   6.684   4.434   3.589  1.0697  0.0091 -1.0641
17872TIP3    H275108   6.762   4.541   3.663 -0.5485  0.2288  0.3779
17873TIP3   OH275109   4.619   5.833  11.821 -0.1323 -0.4578 -0.0685
17873TIP3    H175110   4.621   5.845  11.916 -0.2985 -1.9254  0.1468
17873TIP3    H275111   4.528   5.849  11.797  0.0578  0.6354 -0.1021
17874TIP3   OH275112   2.449   3.405   2.957 -0.2671  0.5127  0.4634
17874TIP3    H175113   2.495   3.382   2.876 -1.3704  0.5786 -0.2009
17874TIP3    H275114   2.496   3.357   3.026  1.6510  1.6580  0.0325
17875TIP3   OH275115   4.506   6.165  14.668 -0.4258 -0.0103 -0.8235
17875TIP3    H175116   4.593   6.163  14.628 -0.5363  1.8725 -1.2167
17875TIP3    H275117   4.515   6.227  14.741 -1.7191  1.1649 -1.6262
17876TIP3   OH275118   6.141   4.298   6.182  0.3029 -0.2522  0.7070
17876TIP3    H175119   6.195   4.256   6.249  0.5826 -0.0004  0.6428
17876TIP3    H275120   6.114   4.381   6.222 -0.5895 -0.6638  0.9935
17877TIP3   OH275121   6.635   1.054  13.292 -0.2959  0.1745 -0.1615
17877TIP3    H175122   6.564   1.005  13.333 -0.2320  0.7622  0.6726
17877TIP3    H275123   6.710   0.994  13.295 -1.0132 -0.8997 -2.1114
17878TIP3   OH275124   4.070   5.461  14.591 -0.0381 -0.3041  0.0138
17878TIP3    H175125   4.119   5.448  14.509  2.6215 -1.2069  1.6325
17878TIP3    H275126   4.054   5.372  14.623 -0.5012  0.0566  0.7851
17879TIP3   OH275127   6.543   5.610   4.532  0.3425 -0.4371  0.2779
17879TIP3    H175128   6.543   5.532   4.588 -3.2546 -1.1127 -0.4321
17879TIP3    H275129   6.562   5.577   4.445  0.1604 -0.2975  0.1853
17880TIP3   OH275130   2.779   3.396   2.999  0.2740 -0.6338 -0.2044
17880TIP3    H175131   2.771   3.307   3.032  1.1985  0.1233  2.3736
17880TIP3    H275132   2.746   3.451   3.071  0.4736  1.1277 -1.3885
17881TIP3   OH275133   2.586   0.551   6.036 -0.1315 -0.4544 -0.5634
17881TIP3    H175134   2.584   0.546   6.132  0.5295  0.2190 -0.5083
17881TIP3    H275135   2.533   0.477   6.008 -0.8072 -0.3350  0.3306
17882TIP3   OH275136   1.626   2.166  15.998  0.3137 -0.4189  0.6848
17882TIP3    H175137   1.599   2.243  16.048 -1.8403 -1.3139  1.0148
17882TIP3    H275138   1.718   2.182  15.977  0.0451  2.0549  1.0676
17883TIP3   OH275139   0.024   0.460  14.644 -0.6357 -0.3513 -0.3644
17883TIP3    H175140   0.021   0.384  14.702 -1.6705 -0.2577 -0.2795
17883TIP3    H275141  -0.005   0.533  14.698 -1.8655 -0.3064 -1.0397
17884TIP3   OH275142   4.347   0.586  12.621  0.1905  0.0828 -0.4630
17884TIP3    H175143   4.337   0.578  12.716  0.8378 -1.5898 -0.4986
17884TIP3    H275144   4.306   0.506  12.587  0.1364  0.5767 -1.5806
17885TIP3   OH275145   2.700   1.376   5.060 -0.1549 -0.1394  0.1484
17885TIP3    H175146   2.709   1.445   5.126 -0.5983  0.2352 -0.1677
17885TIP3    H275147   2.718   1.295   5.106  1.6876  0.2805  0.2391
17886TIP3   OH275148   1.092   1.242  16.944  0.2338 -0.6059  0.8197
17886TIP3    H175149   1.125   1.278  16.861  2.0622 -0.5764  1.5316
17886TIP3    H275150   1.077   1.149  16.926 -0.1046 -0.4470  0.2578
17887TIP3   OH275151   0.625   1.531   5.502  0.7700  0.0663  0.4345
17887TIP3    H175152   0.698   1.593   5.511  1.0038 -0.4294  2.3760
17887TIP3    H275153   0.558   1.580   5.455  0.8775  1.8965  2.0622
17888TIP3   OH275154   0.817   1.193   4.703 -0.5479 -0.5041  0.0761
17888TIP3    H175155   0.771   1.109   4.710 -1.6638 -0.0099 -0.9006
17888TIP3    H275156   0.868   1.200   4.783  1.7629 -3.3746 -0.9592
17889TIP3   OH275157   3.177   3.625   2.455 -0.4316 -0.2511 -0.1734
17889TIP3    H175158   3.270   3.608   2.440  0.1211  1.4530  0.9878
17889TIP3    H275159   3.157   3.577   2.535  0.0856  1.1874  0.8607
17890TIP3   OH275160   0.547   2.209   1.533  0.1631  0.1201 -0.2007
17890TIP3    H175161   0.577   2.249   1.452 -0.1033  0.2623 -0.2307
17890TIP3    H275162   0.458   2.179   1.514  0.4717 -0.7700 -0.2762
17891TIP3   OH275163   2.807   6.368  13.814  0.4032  0.7253  0.5758
17891TIP3    H175164   2.728   6.342  13.768  0.8303  0.7244 -0.1827
17891TIP3    H275165   2.807   6.464  13.809  0.3760  0.7317  0.6999
17892TIP3   OH275166   5.654   1.023  13.931  0.7201 -0.2673  0.0604
17892TIP3    H175167   5.667   1.003  14.024  0.3495 -0.1935  0.1272
17892TIP3    H275168   5.607   0.948  13.896  0.3321 -0.0275  0.0635
17893TIP3   OH275169   1.797   0.178   5.484  0.2187  0.0998 -0.2612
17893TIP3    H175170   1.885   0.157   5.452 -0.1936  0.4712 -1.7153
17893TIP3    H275171   1.806   0.263   5.527  0.7978 -0.4321  0.6983
17894TIP3   OH275172   4.803   0.750   1.579  0.9305 -0.4080 -0.1488
17894TIP3    H175173   4.857   0.827   1.562 -1.0576  1.8804  2.9360
17894TIP3    H275174   4.721   0.768   1.533  0.9267 -1.4124 -0.5592
17895TIP3   OH275175   1.852   3.963  15.700  0.3783 -0.0924 -0.2238
17895TIP3    H175176   1.864   3.929  15.789 -1.2266  0.1453  0.1170
17895TIP3    H275177   1.790   3.902  15.660  0.8164  0.0065 -1.0669
17896TIP3   OH275178   5.106   2.474  13.628 -0.3535 -0.1209 -0.3757
17896TIP3    H175179   5.039   2.528  13.670  0.2235 -0.4931  1.0738
17896TIP3    H275180   5.155   2.535  13.573 -3.0521 -0.1659 -3.1128
17897TIP3   OH275181   0.226   2.811   2.400  0.2326 -0.4877 -0.1668
17897TIP3    H175182   0.254   2.720   2.405 -0.3418 -0.6988 -0.7007
17897TIP3    H275183   0.308   2.861   2.394  0.5510 -0.9541  0.2659
17898TIP3   OH275184   5.605   5.214  16.033 -0.0109 -0.0771  0.3997
17898TIP3    H175185   5.628   5.269  16.108 -0.3057 -0.9833  1.1738
17898TIP3    H275186   5.515   5.240  16.012 -0.0905 -0.1373  0.6542
17899TIP3   OH275187   6.670   6.139  15.148  0.0067 -0.9991  0.0957
17899TIP3    H175188   6.693   6.140  15.055 -3.1575 -0.6943 -0.8119
17899TIP3    H275189   6.655   6.047  15.168 -1.6508 -0.8815 -0.4372
17900TIP3   OH275190   5.444   2.239   0.210  0.3337 -0.2174 -0.2282
17900TIP3    H175191   5.540   2.228   0.209  0.6180  1.6295  0.8183
17900TIP3    H275192   5.418   2.210   0.298  0.3394  1.7625  0.4684
17901TIP3   OH275193   5.597   2.452   4.664  0.4629 -0.6581  0.3472
17901TIP3    H175194   5.590   2.514   4.736  1.1603  0.2846 -0.3592
17901TIP3    H275195   5.598   2.508   4.585 -3.0763 -1.7177 -0.6401
17902TIP3   OH275196   3.640   5.888   3.579 -0.5045  0.1349 -0.0633
17902TIP3    H175197   3.608   5.841   3.656 -0.6880  1.5764  0.7696
17902TIP3    H275198   3.564   5.937   3.548 -0.9255 -1.6601 -2.2045
17903TIP3   OH275199   4.268   6.015  14.095  1.0363  0.0405 -0.1317
17903TIP3    H175200   4.226   5.929  14.100  0.0535  0.5318  0.3137
17903TIP3    H275201   4.325   6.009  14.018 -1.7826  0.1632 -2.4086
17904TIP3   OH275202   4.179   6.414   1.416  0.2658  0.5311 -0.3985
17904TIP3    H175203   4.106   6.440   1.472  0.7975 -0.1924  0.6642
17904TIP3    H275204   4.169   6.319   1.407  1.0212  0.4406 -0.3191
17905TIP3   OH275205   0.854   1.871  16.797  0.2530 -0.3877 -0.0946
17905TIP3    H175206   0.825   1.916  16.876  1.8659  1.9188 -0.7106
17905TIP3    H275207   0.777   1.871  16.740 -0.9835 -2.2408  1.4439
17906TIP3   OH275208   4.316   4.024  13.983  0.3798 -0.3995 -0.1018
17906TIP3    H175209   4.368   4.096  13.947  1.5110 -0.8453  0.6067
17906TIP3    H275210   4.241   4.018  13.924  0.4006  1.1698 -0.3389
17907TIP3   OH275211   2.084   1.041   5.216  0.7536  0.2340 -0.1789
17907TIP3    H175212   2.112   0.978   5.149  0.9306 -1.1881  1.1643
17907TIP3    H275213   2.007   1.084   5.178  0.2045 -1.2955 -0.8987
17908TIP3   OH275214   0.093   5.016  12.656 -0.0331  0.5270  0.3713
17908TIP3    H175215   0.122   5.013  12.565 -0.0615 -0.4571  0.3801
17908TIP3    H275216   0.160   5.068  12.701  0.6306  0.0218  0.0033
17909TIP3   OH275217   0.262   0.197  12.647  0.6688  0.3089  0.5295
17909TIP3    H175218   0.222   0.158  12.725 -0.1521  0.0694  0.0002
17909TIP3    H275219   0.339   0.143  12.630  0.6660  0.1569  0.9736
17910TIP3   OH275220   2.247   4.116  14.935 -0.2628  0.1252 -0.7477
17910TIP3    H175221   2.303   4.179  14.888 -2.5512  1.5169 -1.7911
17910TIP3    H275222   2.267   4.032  14.895  0.6288  0.6660 -1.4979
17911TIP3   OH275223   0.484   4.750   0.178 -0.2916  0.3010  0.3545
17911TIP3    H175224   0.443   4.816   0.234  0.1680  1.3936 -0.5742
17911TIP3    H275225   0.435   4.754   0.096  0.0178 -0.2094  0.1410
17912TIP3   OH275226   0.887   3.875  15.430  0.8589 -0.0820 -0.0669
17912TIP3    H175227   0.957   3.839  15.484  1.4022  0.3772 -0.4507
17912TIP3    H275228   0.913   3.966  15.415  0.1379  0.1190 -0.1495
17913TIP3   OH275229   2.260   3.301  10.801 -0.0565 -0.4116  0.0643
17913TIP3    H175230   2.206   3.223  10.815 -0.3547 -0.4448 -1.1663
17913TIP3    H275231   2.341   3.283  10.849 -0.9631 -0.5438  1.5777
17914TIP3   OH275232   4.367   0.630   2.241  0.2670 -0.3648  0.4521
17914TIP3    H175233   4.273   0.621   2.260  0.2708  1.9037  1.9327
17914TIP3    H275234   4.409   0.629   2.327  1.4531  0.0665 -0.1026
17915TIP3   OH275235   3.458   1.828   0.803 -0.3012  0.3353 -0.5721
17915TIP3    H175236   3.496   1.750   0.844  0.4345  0.7297 -0.4937
17915TIP3    H275237   3.374   1.840   0.849  0.5270  0.7964  0.8964
17916TIP3   OH275238   4.639   1.173  12.082  0.5520 -0.3875 -0.5362
17916TIP3    H175239   4.551   1.151  12.055  0.3975 -1.0464  0.4704
17916TIP3    H275240   4.676   1.092  12.116  1.6136 -0.1652 -1.0778
17917TIP3   OH275241   1.524   2.963  15.983  0.3507  0.3713 -0.4244
17917TIP3    H175242   1.605   3.000  16.018  0.0238 -0.8542  1.8143
17917TIP3    H275243   1.455   2.997  16.039 -0.8134  1.6530 -2.4937
17918TIP3   OH275244   3.473   1.269   0.296  0.2656 -0.1284  0.0371
17918TIP3    H175245   3.424   1.188   0.286  0.1075 -0.0333  0.0333
17918TIP3    H275246   3.477   1.306   0.208 -1.3080  0.8117  0.3209
17919TIP3   OH275247   0.742   2.979   1.871  0.1835  0.0118 -0.0717
17919TIP3    H175248   0.686   2.930   1.931 -1.3426  0.0021 -1.4110
17919TIP3    H275249   0.830   2.965   1.903 -0.6032  0.4970  2.4813
17920TIP3   OH275250   4.553   1.599  13.653 -0.4084  0.7544 -0.0466
17920TIP3    H175251   4.608   1.615  13.729 -0.5115 -0.3248  0.2593
17920TIP3    H275252   4.550   1.684  13.608  4.5148  0.2125 -2.1392
17921TIP3   OH275253   3.985   2.875  12.539 -0.1290  0.1654 -0.1672
17921TIP3    H175254   3.904   2.824  12.542  0.1642 -0.3586 -0.8159
17921TIP3    H275255   4.039   2.838  12.608  0.5136 -1.1834 -1.3478
17922TIP3   OH275256   5.413   4.318   4.253 -0.1787  0.3499 -0.2974
17922TIP3    H175257   5.390   4.240   4.202 -0.1444  0.1371  0.0156
17922TIP3    H275258   5.329   4.350   4.287 -0.5491  1.8619 -2.4245
17923TIP3   OH275259   3.634   5.034  16.629 -0.3810  1.1281  0.0015
17923TIP3    H175260   3.592   5.052  16.714 -0.8440 -1.0984  0.3268
17923TIP3    H275261   3.564   4.994  16.577  0.5522  0.1245 -0.5081
17924TIP3   OH275262   0.294   5.799  16.317 -0.2156  0.6300 -0.7908
17924TIP3    H175263   0.227   5.866  16.311  0.4914  1.2413 -2.9084
17924TIP3    H275264   0.250   5.718  16.290 -0.6405  0.5713  0.0590
17925TIP3   OH275265   6.336   3.736  13.825  0.0709 -0.7505 -0.4457
17925TIP3    H175266   6.397   3.662  13.830 -1.2391 -1.8468 -0.2507
17925TIP3    H275267   6.365   3.795  13.895 -0.4570 -2.3525  1.2170
17926TIP3   OH275268   5.002   0.561  11.763  0.3570 -0.9275  0.4324
17926TIP3    H175269   4.920   0.512  11.759 -2.0436  2.5176  2.5282
17926TIP3    H275270   5.001   0.617  11.686  0.3765 -0.4039  0.8065
17927TIP3   OH275271   2.820   1.170  10.498  0.0641  0.7049  0.2599
17927TIP3    H175272   2.883   1.217  10.443 -0.1741 -0.3423 -0.9550
17927TIP3    H275273   2.858   1.083  10.508  0.2873  0.9816  2.1128
17928TIP3   OH275274   0.616   5.766   3.887 -0.2671  0.1417 -0.2976
17928TIP3    H175275   0.548   5.786   3.952 -2.5349 -0.7330 -2.2408
17928TIP3    H275276   0.613   5.671   3.878  0.5746  0.1752 -1.1139
17929TIP3   OH275277   0.018   0.685   1.485  0.1657 -0.2032  0.1907
17929TIP3    H175278   0.041   0.645   1.401 -1.3487 -1.8851  0.4978
17929TIP3    H275279  -0.067   0.726   1.470 -0.1240 -0.5314  0.8966
17930TIP3   OH275280   0.323   6.716   2.958  0.1308  0.3293  0.0695
17930TIP3    H175281   0.301   6.809   2.957  2.1445  0.8497 -0.5254
17930TIP3    H275282   0.372   6.702   2.878 -1.9877 -1.7909 -0.9782
17931TIP3   OH275283   4.035   3.090   3.155 -0.1639  0.7926 -0.3726
17931TIP3    H175284   3.946   3.115   3.129 -1.3027  0.1287  2.5860
17931TIP3    H275285   4.031   2.995   3.167  0.5188  0.9322  1.1774
17932TIP3   OH275286   3.000   4.656   4.483 -0.4415  0.1187  0.0027
17932TIP3    H175287   2.923   4.668   4.539 -0.4685 -0.8417  0.1815
17932TIP3    H275288   2.967   4.614   4.404 -0.2484  0.5953 -0.3396
17933TIP3   OH275289   5.110   5.753   5.787 -0.1433 -0.3983  0.5133
17933TIP3    H175290   5.167   5.794   5.853 -0.5867  0.5820  0.2987
17933TIP3    H275291   5.098   5.821   5.721 -0.2549 -1.1509 -0.2517
17934TIP3   OH275292   5.348   6.214  11.449 -0.6484 -0.6606  0.5327
17934TIP3    H175293   5.301   6.297  11.440 -1.3373 -0.9937  0.9306
17934TIP3    H275294   5.434   6.238  11.482 -0.8193 -0.0981  0.5840
17935TIP3   OH275295   2.913   5.115   4.495  0.0397 -0.0769 -0.4436
17935TIP3    H175296   2.837   5.107   4.437 -0.0713  0.5286 -0.3869
17935TIP3    H275297   2.876   5.108   4.583 -0.2419  2.1614 -0.3373
17936TIP3   OH275298   0.857   1.482  14.552 -0.3421  0.3729  0.2033
17936TIP3    H175299   0.831   1.390  14.548  1.6067 -0.2769  1.0300
17936TIP3    H275300   0.798   1.520  14.617 -0.2311 -0.6716  0.9565
17937TIP3   OH275301   5.561   6.137  16.538  0.1400 -0.4417  0.3503
17937TIP3    H175302   5.545   6.151  16.444  0.1760  0.0271  0.4116
17937TIP3    H275303   5.585   6.223  16.571  0.3594 -0.6535  0.7476
17938TIP3   OH275304   5.999   4.423   4.736 -0.2761  0.6242  0.2026
17938TIP3    H175305   6.053   4.351   4.767 -0.0314  0.7471  0.0673
17938TIP3    H275306   6.058   4.475   4.681 -0.8392  0.1204 -0.9076
17939TIP3   OH275307   3.067   3.027   2.338 -0.3662 -0.0759 -0.0857
17939TIP3    H175308   3.090   3.103   2.284 -1.0200  1.1414  1.2783
17939TIP3    H275309   3.013   2.973   2.280 -0.0029  0.5613 -1.0436
17940TIP3   OH275310   3.969   0.327  16.574 -0.4664  0.0384 -0.1568
17940TIP3    H175311   4.031   0.312  16.502  1.4214 -2.5582  1.8082
17940TIP3    H275312   3.890   0.281  16.547  0.1321 -0.6827 -0.7478
17941TIP3   OH275313   5.889   4.257  11.541 -0.4826  0.1081 -0.1892
17941TIP3    H175314   5.954   4.304  11.594  0.2982 -2.4003  1.3064
17941TIP3    H275315   5.942   4.199  11.486 -1.4220 -0.1906 -0.7920
17942TIP3   OH275316   3.016   3.795  15.602 -0.7545  0.7332  0.4399
17942TIP3    H175317   3.055   3.717  15.562 -1.0288  0.0022  1.5480
17942TIP3    H275318   2.921   3.779  15.595 -0.8065  0.7744  1.0189
17943TIP3   OH275319   0.754   3.622   2.116  0.1260  0.0013  0.5701
17943TIP3    H175320   0.761   3.624   2.021 -2.9897 -0.4410  0.2336
17943TIP3    H275321   0.754   3.714   2.143  0.4929  0.1361  0.1279
17944TIP3   OH275322   3.972   6.123   0.280  0.7272  0.2608  1.1135
17944TIP3    H175323   3.896   6.179   0.296 -0.5262 -0.9581 -0.2221
17944TIP3    H275324   4.025   6.171   0.216 -1.8030 -1.1120 -2.3435
17945TIP3   OH275325   1.706   4.292   4.050 -0.7533  0.1567  0.1005
17945TIP3    H175326   1.796   4.269   4.028 -1.0501  0.5184 -1.5995
17945TIP3    H275327   1.663   4.207   4.066 -0.4237 -0.0991 -0.3607
17946TIP3   OH275328   6.186   3.195  17.085  0.3225 -0.2543 -0.0345
17946TIP3    H175329   6.255   3.135  17.058 -0.1457 -0.1288 -1.5971
17946TIP3    H275330   6.233   3.268  17.126  0.9299 -1.3363  1.2828
17947TIP3   OH275331   3.057   4.289   4.240 -0.2864  0.6741 -0.2028
17947TIP3    H175332   3.093   4.256   4.158  0.3240  1.0784 -0.1094
17947TIP3    H275333   2.962   4.279   4.231 -0.1449 -0.6230 -0.3683
17948TIP3   OH275334   0.681   2.263   3.577 -0.1606  0.8961 -0.1056
17948TIP3    H175335   0.718   2.189   3.528  1.2521  0.7320  1.1559
17948TIP3    H275336   0.598   2.230   3.611  0.2358  0.0448  0.0606
17949TIP3   OH275337   5.241   0.339   4.694  0.1813  0.1945  0.2400
17949TIP3    H175338   5.264   0.264   4.748 -1.0369  1.2939  2.4349
17949TIP3    H275339   5.207   0.302   4.612  3.2032 -1.5056 -0.3641
17950TIP3   OH275340   2.332   3.937  15.211  0.2741  0.3002 -0.3839
17950TIP3    H175341   2.390   4.009  15.240  0.0219  1.3111 -2.2430
17950TIP3    H275342   2.392   3.867  15.186  0.5983  0.4425 -0.0203
17951TIP3   OH275343   2.232   3.295   1.039 -0.5821  0.2676 -0.0371
17951TIP3    H175344   2.276   3.285   0.955  1.6767  1.3595  0.9300
17951TIP3    H275345   2.178   3.373   1.029  0.2792  0.8456 -0.2581
17952TIP3   OH275346   0.946   1.042  14.371 -0.4408 -0.0101 -0.1881
17952TIP3    H175347   0.928   1.066  14.462  4.5504  1.1305  0.7668
17952TIP3    H275348   0.938   1.123  14.322 -2.7336 -0.5515 -0.8501
17953TIP3   OH275349   0.364   3.654  16.779 -0.0103  0.0736 -0.0907
17953TIP3    H175350   0.282   3.698  16.758 -1.2520 -0.8018  2.5190
17953TIP3    H275351   0.351   3.563  16.751  0.2317  0.0070  0.0083
17954TIP3   OH275352   2.641   6.006  17.103  0.4708 -0.9041  0.0986
17954TIP3    H175353   2.559   6.048  17.130  1.4967  1.1987  0.1349
17954TIP3    H275354   2.615   5.916  17.080 -1.6752 -0.5709  0.9338
17955TIP3   OH275355   0.938   0.079   6.388  0.3695 -0.4021  0.7285
17955TIP3    H175356   1.032   0.061   6.385  0.5035  0.4081 -0.1334
17955TIP3    H275357   0.898   0.003   6.346  0.8347  0.4758 -1.4010
17956TIP3   OH275358   0.516   2.711  14.481 -0.0183 -0.2595 -0.6400
17956TIP3    H175359   0.422   2.693  14.489  0.0621 -0.1023  0.8236
17956TIP3    H275360   0.524   2.805  14.497  0.3148 -0.1236 -1.5495
17957TIP3   OH275361   1.485   5.668   4.567  0.3890 -0.0954 -0.1210
17957TIP3    H175362   1.538   5.700   4.640  1.3534 -1.6848 -0.0762
17957TIP3    H275363   1.544   5.669   4.491  0.1547 -0.7744 -0.3263
17958TIP3   OH275364   2.264   5.318  16.900  0.1040  0.2871 -0.0211
17958TIP3    H175365   2.300   5.345  16.815  1.7883 -1.8147 -0.0547
17958TIP3    H275366   2.169   5.320  16.886  0.2778  1.5459 -1.4065
17959TIP3   OH275367   5.221   0.639   5.817  0.2960  0.1144 -0.3070
17959TIP3    H175368   5.183   0.723   5.793  0.9748  0.0343 -1.7620
17959TIP3    H275369   5.315   0.649   5.799  0.2417 -1.2910 -1.5595
17960TIP3   OH275370   3.728   6.676   4.486  0.1446  0.2333  0.7940
17960TIP3    H175371   3.727   6.594   4.437 -1.4677 -0.2096  1.4924
17960TIP3    H275372   3.763   6.741   4.425  0.2279 -0.7170 -0.1936
17961TIP3   OH275373   2.592   3.874  14.853 -0.1019  0.1175 -0.1581
17961TIP3    H175374   2.576   3.960  14.893  1.6455 -0.1977  1.3441
17961TIP3    H275375   2.687   3.867  14.850 -0.2088 -1.9661  0.1958
17962TIP3   OH275376   2.169   6.622   0.149 -0.8493  0.3679 -0.7917
17962TIP3    H175377   2.147   6.691   0.086 -2.5265  1.2755  0.6810
17962TIP3    H275378   2.214   6.555   0.097  1.2350  2.6992 -2.2195
17963TIP3   OH275379   3.195   6.332  12.088  0.6702 -0.0710  0.1692
17963TIP3    H175380   3.117   6.278  12.078  1.6570 -1.3923 -0.7392
17963TIP3    H275381   3.166   6.421  12.066 -0.1850 -0.8382 -2.0948
17964TIP3   OH275382   3.426   4.779   6.632 -0.8745  0.1551 -0.0429
17964TIP3    H175383   3.384   4.693   6.636 -2.7890  1.0814  2.5150
17964TIP3    H275384   3.393   4.818   6.552  0.0186 -1.4269 -1.2445
17965TIP3   OH275385   0.897   6.621  13.279  0.1879  0.0029  0.2379
17965TIP3    H175386   0.956   6.658  13.213 -0.1847  2.9083  1.3926
17965TIP3    H275387   0.950   6.617  13.359 -0.5364  0.6653  0.7756
17966TIP3   OH275388   1.601   4.635   3.628  0.4938  0.6313  0.1675
17966TIP3    H175389   1.652   4.586   3.564 -1.6793 -0.6729 -0.6552
17966TIP3    H275390   1.577   4.570   3.695  0.0809  1.2575  0.6473
17967TIP3   OH275391   6.094   0.113  16.783 -0.2484  0.0427 -0.6529
17967TIP3    H175392   6.058   0.025  16.776 -1.4670  0.3493  0.9704
17967TIP3    H275393   6.100   0.129  16.878 -0.3111  1.7832 -0.9059
17968TIP3   OH275394   1.818   3.239   0.592  0.0691  0.3789 -0.3083
17968TIP3    H175395   1.799   3.217   0.684 -1.5051 -0.2450 -0.7448
17968TIP3    H275396   1.812   3.334   0.588  2.5652  0.6553  0.6990
17969TIP3   OH275397   2.360   4.787  15.618 -0.9346  0.0914  0.0092
17969TIP3    H175398   2.266   4.803  15.612 -1.0453 -0.6185 -0.1885
17969TIP3    H275399   2.386   4.762  15.529 -0.0700  2.7689 -0.6079
17970TIP3   OH275400   3.932   6.152  14.423 -0.0240 -0.1722  0.2798
17970TIP3    H175401   3.933   6.075  14.366  0.5330 -1.2839  1.7225
17970TIP3    H275402   4.020   6.189  14.415 -0.1675  0.0920 -0.1090
17971TIP3   OH275403   3.035   6.759  11.363 -0.1255  0.0377  0.4832
17971TIP3    H175404   3.059   6.782  11.273  0.8218 -1.2319  0.3882
17971TIP3    H275405   2.954   6.807  11.379 -0.5891 -0.1206 -1.2317
17972TIP3   OH275406   3.149   2.612   3.436 -0.0823  0.0080 -0.1655
17972TIP3    H175407   3.222   2.620   3.497 -0.9444 -1.5203  1.1252
17972TIP3    H275408   3.179   2.550   3.369 -0.0651 -0.3590  0.1795
17973TIP3   OH275409   6.741   4.019   0.836  0.0450 -0.2568  0.4284
17973TIP3    H175410   6.789   3.941   0.809 -0.6018 -0.3242 -0.5823
17973TIP3    H275411   6.697   3.994   0.917 -0.1754 -0.9458  0.0976
17974TIP3   OH275412   1.536   0.082  12.473  0.0506  0.2577  0.2186
17974TIP3    H175413   1.567   0.015  12.412  4.0290 -0.1702  2.3819
17974TIP3    H275414   1.596   0.155  12.461  0.0023  0.7457  2.5516
17975TIP3   OH275415   5.415   1.593   4.871 -0.2883  0.5506 -0.1908
17975TIP3    H175416   5.483   1.530   4.847 -1.5420 -0.5754 -0.9990
17975TIP3    H275417   5.342   1.572   4.813 -1.6409  1.1304  1.2141
17976TIP3   OH275418   5.408   3.947  16.337 -0.0976 -0.5374 -0.2620
17976TIP3    H175419   5.420   3.869  16.391 -0.5244  0.2338  0.9919
17976TIP3    H275420   5.314   3.963  16.339  0.0663  0.4343  0.1293
17977TIP3   OH275421   5.616   5.292   4.883  0.1893 -0.4691 -0.2517
17977TIP3    H175422   5.530   5.334   4.880 -0.9987 -2.6691  1.1077
17977TIP3    H275423   5.656   5.325   4.964 -0.9728 -2.2610  1.1125
17978TIP3   OH275424   1.172   5.624  11.029 -0.1886  0.3816  0.1434
17978TIP3    H175425   1.127   5.642  10.947 -1.8502  2.5115  1.4148
17978TIP3    H275426   1.224   5.703  11.046 -1.3545  0.8303  1.9951
17979TIP3   OH275427   6.259   4.302  14.710  0.2699 -0.0407  0.2962
17979TIP3    H175428   6.319   4.242  14.755  0.0096 -2.2147 -2.0190
17979TIP3    H275429   6.303   4.387  14.714  2.2901 -1.0357  0.8817
17980TIP3   OH275430   0.465   4.230   4.988 -0.0414 -0.0251  0.5116
17980TIP3    H175431   0.496   4.192   4.905  1.2791  0.7126  0.6407
17980TIP3    H275432   0.417   4.159   5.030  0.2568 -0.7727 -0.3605
17981TIP3   OH275433   3.984   1.017   0.153 -0.0039 -0.2399  0.6488
17981TIP3    H175434   3.901   0.989   0.116  0.0590  0.1170  0.2304
17981TIP3    H275435   4.046   1.012   0.080 -0.2645  2.2800  0.1706
17982TIP3   OH275436   5.602   3.151   2.515 -0.5490 -0.0582 -0.0663
17982TIP3    H175437   5.578   3.116   2.429  0.0108 -1.8048  0.4490
17982TIP3    H275438   5.535   3.119   2.574 -1.2414  1.5907  0.1062
17983TIP3   OH275439   3.006   1.822   6.002  0.7929 -0.0537 -0.0178
17983TIP3    H175440   2.932   1.879   6.025  2.1862  1.8264  0.0454
17983TIP3    H275441   2.990   1.797   5.911  0.6419  1.2828 -0.3735
17984TIP3   OH275442   2.767   5.484   0.090  0.4988 -0.4478  1.0743
17984TIP3    H175443   2.725   5.484   0.004 -1.1101 -0.6690  1.8243
17984TIP3    H275444   2.813   5.401   0.094  2.8683  0.6657 -0.5770
17985TIP3   OH275445   6.491   1.312   0.608 -0.4273 -0.5349  0.1853
17985TIP3    H175446   6.458   1.400   0.624 -0.3931 -0.2900 -0.9662
17985TIP3    H275447   6.427   1.254   0.649 -1.1265  0.0002 -0.1242
17986TIP3   OH275448   1.143   5.603  16.547 -0.5659 -0.1160 -0.0536
17986TIP3    H175449   1.220   5.594  16.490 -0.7720  1.8118 -0.7236
17986TIP3    H275450   1.075   5.553  16.504  0.3698 -2.1699  0.7441
17987TIP3   OH275451   4.396   0.615   6.272  0.0385  0.2445  0.5262
17987TIP3    H175452   4.437   0.656   6.195 -1.5452 -0.2537 -0.6314
17987TIP3    H275453   4.323   0.672   6.294 -0.8399 -0.7618  0.2793
17988TIP3   OH275454   4.399   0.942   1.068 -0.3734  0.4331  0.2992
17988TIP3    H175455   4.374   1.031   1.091 -2.0522  0.4501 -1.3487
17988TIP3    H275456   4.368   0.889   1.141 -1.8848  0.9219  0.0510
17989TIP3   OH275457   5.847   3.998   6.056 -0.1176  0.2347 -0.1626
17989TIP3    H175458   5.832   4.091   6.075  2.3201  0.3201  1.7944
17989TIP3    H275459   5.816   3.953   6.134 -1.2927 -0.6639 -1.1020
17990TIP3   OH275460   3.484   2.332   2.716  0.3492  0.1971 -0.5041
17990TIP3    H175461   3.547   2.399   2.744  0.0748  0.1242  0.2899
17990TIP3    H275462   3.412   2.381   2.677  0.2958  0.3415 -0.2190
17991TIP3   OH275463   3.241   1.931  13.178  0.5245 -0.4402  0.9250
17991TIP3    H175464   3.201   1.961  13.096  0.7519  0.0890  1.0018
17991TIP3    H275465   3.264   2.012  13.224 -0.1755 -0.7178  1.8035
17992TIP3   OH275466   0.999   4.812   0.342  1.2450 -0.2361 -0.2516
17992TIP3    H175467   0.949   4.849   0.414  1.8570 -0.4966  0.3223
17992TIP3    H275468   0.934   4.774   0.284  0.6474  1.1536 -0.5254
17993TIP3   OH275469   4.379   0.192   6.520 -0.0550  0.4665  0.2612
17993TIP3    H175470   4.420   0.276   6.502 -0.7406  0.6337 -0.5994
17993TIP3    H275471   4.351   0.198   6.612  0.2217  1.0356  0.3131
17994TIP3   OH275472   3.463   5.458  11.262  0.2399  0.7095 -0.0889
17994TIP3    H175473   3.431   5.476  11.173  2.3655  1.3040 -0.7899
17994TIP3    H275474   3.474   5.363  11.264  0.8384  0.7599 -0.7119
17995TIP3   OH275475   5.948   2.166  13.416  0.1652 -0.4998  0.3193
17995TIP3    H175476   5.875   2.138  13.361  1.4743 -1.8586 -0.8262
17995TIP3    H275477   5.940   2.113  13.495 -0.3905 -0.2693  0.4161
17996TIP3   OH275478   3.255   5.549   1.741  0.3288 -0.4211  0.4953
17996TIP3    H175479   3.189   5.482   1.724  0.2251 -0.1261 -0.3075
17996TIP3    H275480   3.334   5.500   1.763  0.6019 -0.8537 -1.3531
17997TIP3   OH275481   4.048   3.518  13.340 -0.9369  0.3777 -0.7737
17997TIP3    H175482   4.041   3.532  13.435 -0.4276  1.2057 -0.8456
17997TIP3    H275483   4.007   3.433  13.325 -0.9699  0.2125  0.1973
17998TIP3   OH275484   1.577   2.016  15.787 -0.0173  0.2872  0.0442
17998TIP3    H175485   1.653   1.963  15.809 -0.4857 -0.5624 -0.3511
17998TIP3    H275486   1.554   2.061  15.868 -0.0121 -0.6237  0.5584
17999TIP3   OH275487   3.307   0.582   0.543  0.2435 -0.7199 -0.3277
17999TIP3    H175488   3.359   0.524   0.598 -0.5629 -0.7826  0.3920
17999TIP3    H275489   3.310   0.667   0.587 -1.1190 -0.9767  0.3301
18000TIP3   OH275490   6.308   5.122  13.899 -0.1313  0.3468 -0.1731
18000TIP3    H175491   6.280   5.048  13.846  0.0873  1.2908 -1.6422
18000TIP3    H275492   6.403   5.125  13.888  0.3774 -1.2762  2.7407
18001TIP3   OH275493   3.851   0.574  17.136 -0.0365 -0.0850 -0.6215
18001TIP3    H175494   3.758   0.563  17.158  0.3539 -0.2595  1.0355
18001TIP3    H275495   3.868   0.505  17.071 -0.9614 -0.3492 -0.5965
18002TIP3   OH275496   2.721   4.814  14.670 -0.4769 -0.7904  0.1073
18002TIP3    H175497   2.762   4.757  14.604  0.4885  1.1104 -1.0147
18002TIP3    H275498   2.663   4.755  14.719 -0.5632 -2.4640 -1.8420
18003TIP3   OH275499   5.972   0.108   5.410  0.1342 -0.2672  0.3511
18003TIP3    H175500   5.966   0.054   5.489 -0.7665  0.7626  1.0182
18003TIP3    H275501   5.942   0.195   5.438 -1.3270 -0.1524 -1.3777
18004TIP3   OH275502   0.990   0.294  14.178 -0.1430  0.0982  0.0626
18004TIP3    H175503   1.001   0.389  14.187  0.6643 -0.1317  2.1595
18004TIP3    H275504   1.047   0.257  14.245 -2.8028 -1.7678  1.4982
18005TIP3   OH275505   2.006   6.005  15.838  0.7573 -0.6218 -0.2654
18005TIP3    H175506   2.055   6.019  15.757  0.3351  0.6316 -0.3132
18005TIP3    H275507   2.072   6.015  15.908  0.6423  0.8795 -0.3380
18006TIP3   OH275508   5.076   2.846  16.468  0.0242 -0.0070  0.0791
18006TIP3    H175509   5.169   2.871  16.469  0.2186 -0.4459 -2.1941
18006TIP3    H275510   5.063   2.801  16.551  2.0236 -0.4991  0.1864
18007TIP3   OH275511   5.609   5.700  13.004 -0.8301 -0.3464 -0.1251
18007TIP3    H175512   5.550   5.625  12.996 -1.6958  0.4698 -1.8338
18007TIP3    H275513   5.617   5.734  12.915  0.5391  0.8610  0.4193
18008TIP3   OH275514   4.910   4.494   4.101  0.9048 -0.9815  0.0353
18008TIP3    H175515   4.961   4.482   4.181  0.5989 -0.7813  0.2678
18008TIP3    H275516   4.833   4.543   4.130  1.4331  0.2703 -0.6088
18009TIP3   OH275517   6.093   1.924  11.449 -0.1747 -0.3263 -0.0889
18009TIP3    H175518   6.065   1.837  11.422 -0.7792 -0.4515  0.8793
18009TIP3    H275519   6.026   1.952  11.512  0.6818  0.3083  0.5632
18010TIP3   OH275520   3.602   3.723   0.070  0.2132  0.0050 -0.6670
18010TIP3    H175521   3.569   3.647   0.117  1.7687 -1.2387 -1.4709
18010TIP3    H275522   3.694   3.731   0.096  0.8875 -0.1968 -2.7459
18011TIP3   OH275523   5.752   6.067  11.854  0.8407  0.0858  0.0203
18011TIP3    H175524   5.836   6.111  11.864  0.4032  0.7334  1.0217
18011TIP3    H275525   5.702   6.122  11.793  1.1945 -0.4007 -0.7260
18012TIP3   OH275526   5.725   6.281  14.100 -0.5619  0.0426 -0.4534
18012TIP3    H175527   5.755   6.222  14.031  0.3746  0.1981 -0.1921
18012TIP3    H275528   5.734   6.369  14.062 -0.2288  0.1162 -0.2071
18013TIP3   OH275529   5.917   3.198  16.107  0.9080 -0.2148 -0.1118
18013TIP3    H175530   5.958   3.249  16.037  0.8670 -3.0954 -2.4413
18013TIP3    H275531   5.989   3.177  16.167  1.2111  1.1350  0.0487
18014TIP3   OH275532   2.247   5.786   3.660  0.0964  0.0188  0.0504
18014TIP3    H175533   2.242   5.709   3.717 -0.5307  0.0309  0.0165
18014TIP3    H275534   2.156   5.814   3.650  0.1044 -0.4286 -1.5836
18015TIP3   OH275535   0.836   5.829  13.826  0.2883  1.1281  0.4011
18015TIP3    H175536   0.762   5.798  13.774 -1.2582  1.2043  2.4525
18015TIP3    H275537   0.848   5.920  13.798  0.4836  0.7428 -0.8463
18016TIP3   OH275538   0.908   0.964  13.071  0.3329 -0.1405  0.1074
18016TIP3    H175539   0.934   1.028  13.137  1.7823 -0.2588 -0.3149
18016TIP3    H275540   0.919   1.010  12.988 -1.4276 -0.0057 -0.0862
18017TIP3   OH275541   3.070   3.297  12.077 -0.5080 -0.0593 -0.1327
18017TIP3    H175542   3.115   3.274  12.159 -0.0927  1.4608  0.1140
18017TIP3    H275543   3.080   3.220  12.021 -0.8940 -1.1716  1.2725
18018TIP3   OH275544   6.151   5.067   4.745 -0.3966 -0.1173  0.4056
18018TIP3    H175545   6.239   5.064   4.708 -1.3448 -0.5453 -1.9886
18018TIP3    H275546   6.155   5.008   4.820  1.1297 -0.8535 -0.2120
18019TIP3   OH275547   2.468   4.053  15.528  0.1129 -0.4272 -0.3234
18019TIP3    H175548   2.470   3.966  15.487  0.4570 -0.4618 -0.2333
18019TIP3    H275549   2.558   4.084  15.523 -0.1156  0.1719 -0.8716
18020TIP3   OH275550   4.660   0.732  11.153  0.0083 -0.2874  0.0674
18020TIP3    H175551   4.596   0.734  11.082  0.7096 -1.3272 -0.6383
18020TIP3    H275552   4.745   0.738  11.109  0.5846 -3.2136  0.5171
18021TIP3   OH275553   2.573   5.952  16.787  0.3987  0.3122 -0.6873
18021TIP3    H175554   2.529   6.025  16.744  1.0035  1.5831  0.7436
18021TIP3    H275555   2.504   5.910  16.838  0.3937  1.0202 -0.0904
18022TIP3   OH275556   2.139   3.862  15.390 -0.4163  0.1434  0.0383
18022TIP3    H175557   2.204   3.876  15.322 -0.1982  1.8603  0.5360
18022TIP3    H275558   2.138   3.768  15.405 -0.4651 -0.2717 -2.3121
18023TIP3   OH275559   0.774   0.686  16.094 -0.0539 -0.3500  0.4702
18023TIP3    H175560   0.759   0.601  16.052  0.8781 -0.2838 -0.0091
18023TIP3    H275561   0.795   0.664  16.185 -3.1365 -0.4417  1.2744
18024TIP3   OH275562   4.896   5.678  11.918 -0.0582  0.1008 -0.8472
18024TIP3    H175563   4.932   5.759  11.884 -1.2011  0.7087 -0.6597
18024TIP3    H275564   4.841   5.644  11.847 -0.6230  0.1792 -0.4552
18025TIP3   OH275565   0.141   6.014  15.469 -0.1821  0.2398 -0.3227
18025TIP3    H175566   0.106   5.966  15.394 -1.1926  0.4902 -0.0350
18025TIP3    H275567   0.236   6.006  15.461 -0.2969 -0.4681 -1.1439
18026TIP3   OH275568   1.078   6.613   2.813  0.2251  0.5298 -0.0672
18026TIP3    H175569   1.042   6.549   2.752  1.4078 -0.1320 -0.0932
18026TIP3    H275570   1.167   6.628   2.782  0.7460  0.4108  1.3126
18027TIP3   OH275571   0.674   1.916  16.609  0.2928 -0.4363  0.4281
18027TIP3    H175572   0.655   1.905  16.515  0.6563 -2.8739  0.5832
18027TIP3    H275573   0.593   1.891  16.653  0.0353  0.9578  0.8075
18028TIP3   OH275574   4.675   5.988   2.633 -0.0518 -0.4857  0.1274
18028TIP3    H175575   4.641   5.926   2.568 -0.1518 -0.8383  0.5046
18028TIP3    H275576   4.731   6.048   2.584 -0.1832 -0.7048 -0.2915
18029TIP3   OH275577   1.115   2.128   0.253 -0.1585 -0.0563  0.7028
18029TIP3    H175578   1.206   2.098   0.248  0.1254  0.7335  0.9857
18029TIP3    H275579   1.120   2.223   0.241 -1.2258 -0.2538 -2.4882
18030TIP3   OH275580   2.825   1.840  13.613  0.0876  0.1388 -0.1299
18030TIP3    H175581   2.916   1.858  13.588  0.5073 -2.0976 -0.4259
18030TIP3    H275582   2.824   1.850  13.708  0.6065  0.3196 -0.1396
18031TIP3   OH275583   5.475   0.192   5.138 -0.3939  0.3278  0.2097
18031TIP3    H175584   5.531   0.114   5.139 -0.7039  0.1086  1.5927
18031TIP3    H275585   5.524   0.254   5.083  0.3003 -0.5014 -0.1520
18032TIP3   OH275586   4.226   6.393  16.472  0.6252 -1.0764 -0.1035
18032TIP3    H175587   4.246   6.311  16.427  0.9070 -1.1876  0.2161
18032TIP3    H275588   4.287   6.395  16.545  0.0522 -0.9833  0.3788
18033TIP3   OH275589   5.660   6.003   4.324 -0.3473 -0.0569 -0.0141
18033TIP3    H175590   5.705   5.921   4.345 -1.6346 -0.4761  1.2225
18033TIP3    H275591   5.567   5.981   4.326 -0.6774  0.8535 -2.2828
18034TIP3   OH275592   5.979   1.162  15.897  0.0811 -0.2082 -0.0019
18034TIP3    H175593   5.951   1.154  15.988 -0.6239  0.1065 -0.1891
18034TIP3    H275594   5.904   1.132  15.846 -0.0691  0.9907 -0.5155
18035TIP3   OH275595   5.714   5.116   6.003 -0.5293 -0.4215  0.5261
18035TIP3    H175596   5.704   5.209   6.026  1.3950  0.0298 -0.3112
18035TIP3    H275597   5.630   5.093   5.963 -0.9984  0.9844  0.6274
18036TIP3   OH275598   3.395   3.197   2.506 -0.1259 -0.1766 -0.0434
18036TIP3    H175599   3.351   3.281   2.493  1.6079  0.8084  0.1010
18036TIP3    H275600   3.344   3.154   2.575 -2.0681 -0.0354 -1.3326
18037TIP3   OH275601   2.932   0.943  17.045 -0.6472  0.1179  0.3565
18037TIP3    H175602   2.843   0.907  17.042  0.0605 -1.7506  0.5597
18037TIP3    H275603   2.929   1.017  16.984 -2.2677 -0.0604  0.1581
18038TIP3   OH275604   5.432   5.064   4.956 -0.1762  0.1572  0.3197
18038TIP3    H175605   5.355   5.048   4.901  0.0643  0.3529 -0.0766
18038TIP3    H275606   5.437   5.160   4.962  0.3203  0.1519 -0.0486
18039TIP3   OH275607   2.833   0.129   4.680  0.7844 -0.3758 -0.2935
18039TIP3    H175608   2.918   0.084   4.672  1.2190  0.4860 -0.6917
18039TIP3    H275609   2.846   0.191   4.751 -0.0678 -1.4143  0.7916
18040TIP3   OH275610   3.059   5.912  12.078 -0.3229 -0.4469  0.0072
18040TIP3    H175611   3.029   5.830  12.116  1.0131  0.0220  2.2628
18040TIP3    H275612   3.138   5.889  12.029 -0.8807 -0.7250 -0.7895
18041TIP3   OH275613   0.674   2.098   2.232  0.2827 -0.0885  0.0168
18041TIP3    H175614   0.760   2.113   2.273  0.0073 -0.6840  0.8461
18041TIP3    H275615   0.671   2.161   2.160  0.8761  0.8734  0.7969
18042TIP3   OH275616   5.230   4.407  12.765 -0.5658  0.2145  0.1454
18042TIP3    H175617   5.148   4.418  12.813  0.0306 -1.2662  1.5764
18042TIP3    H275618   5.212   4.336  12.702 -1.1259  1.6592 -1.3971
18043TIP3   OH275619   1.620   3.093  15.636  0.3348  0.2246  0.2145
18043TIP3    H175620   1.663   3.018  15.677  0.8437  0.8995  0.9366
18043TIP3    H275621   1.597   3.151  15.708  1.7017  1.6740 -0.4303
18044TIP3   OH275622   2.446   4.486   6.779 -0.4190 -0.0774 -0.1591
18044TIP3    H175623   2.468   4.400   6.745  0.4172 -0.1732  0.5943
18044TIP3    H275624   2.530   4.525   6.801 -0.6646  1.4528 -1.6826
18045TIP3   OH275625   0.056   2.277   1.351  0.2582  0.2733 -0.5148
18045TIP3    H175626   0.038   2.332   1.274 -0.9068  0.1585 -0.3481
18045TIP3    H275627   0.146   2.298   1.375  0.3894  0.8698 -1.4588
18046TIP3   OH275628   1.583   1.736   0.468 -0.3445 -0.2900  0.4030
18046TIP3    H175629   1.612   1.656   0.512  0.6486  0.7147  1.6398
18046TIP3    H275630   1.663   1.784   0.449 -0.8761  0.0674 -1.0584
18047TIP3   OH275631   0.876   6.042  13.028 -0.1900 -0.2259 -0.0486
18047TIP3    H175632   0.788   6.077  13.013 -0.0646  0.1975  0.1691
18047TIP3    H275633   0.925   6.066  12.949 -0.6944 -1.9273 -0.9235
18048TIP3   OH275634   4.720   2.839   4.953  0.3658 -0.3379 -0.2856
18048TIP3    H175635   4.793   2.879   4.907  0.0035 -0.2773 -0.8152
18048TIP3    H275636   4.655   2.821   4.885 -0.3301  0.0980  0.2371
18049TIP3   OH275637   2.446   4.205  17.144 -0.1881  0.4167 -0.5985
18049TIP3    H175638   2.396   4.126  17.163  0.9556 -0.0519  0.6766
18049TIP3    H275639   2.462   4.245  17.230 -0.0889  1.6181 -1.1521
18050TIP3   OH275640   3.711   3.564  17.269 -0.1531  0.0394  0.3688
18050TIP3    H175641   3.692   3.500  17.338  0.4377 -0.5693 -0.0209
18050TIP3    H275642   3.660   3.641  17.293 -0.2206 -0.2868  1.3015
18051TIP3   OH275643   0.628   1.613  12.465  0.3580  0.2722 -0.3545
18051TIP3    H175644   0.672   1.692  12.493 -0.6714  0.6106  0.3853
18051TIP3    H275645   0.662   1.544  12.523 -0.4703  0.6366  0.5880
18052TIP3   OH275646   1.160   4.972  13.116  0.2554 -0.2792 -0.0506
18052TIP3    H175647   1.102   5.035  13.073  0.1871  0.8178  1.5642
18052TIP3    H275648   1.233   5.025  13.149  0.6397 -1.1849  0.6043
18053TIP3   OH275649   0.802   6.389   4.485  0.5983 -0.1871  0.6482
18053TIP3    H175650   0.814   6.326   4.414  0.0645 -0.4938  0.8328
18053TIP3    H275651   0.710   6.381   4.510  0.2046  1.4788 -0.1111
18054TIP3   OH275652   0.079   1.303  11.235 -0.2320  0.6665 -0.4606
18054TIP3    H175653   0.135   1.355  11.177 -0.0930 -0.0700 -0.9997
18054TIP3    H275654   0.108   1.212  11.221 -0.2827  0.4661  0.6675
18055TIP3   OH275655   2.846   1.740  16.707  0.0743  0.2287 -0.2952
18055TIP3    H175656   2.833   1.755  16.801 -0.5304  2.5582 -0.6833
18055TIP3    H275657   2.873   1.825  16.673 -3.1231  0.4205 -2.7915
18056TIP3   OH275658   2.331   5.997  14.918 -0.2154 -0.2282  0.4083
18056TIP3    H175659   2.282   5.955  14.989  0.4805 -2.8598 -0.5706
18056TIP3    H275660   2.328   5.934  14.846  0.4058  1.6939 -1.4122
18057TIP3   OH275661   1.545   4.504  10.663 -0.0448  0.0186  0.1622
18057TIP3    H175662   1.544   4.445  10.588  0.1052  0.1204  0.0767
18057TIP3    H275663   1.461   4.491  10.706  0.7515 -1.7465  1.3184
18058TIP3   OH275664   1.192   0.848  12.556 -1.2232 -0.2761  0.4822
18058TIP3    H175665   1.102   0.855  12.524 -0.7991  0.5785 -0.5795
18058TIP3    H275666   1.229   0.775  12.507 -0.8336  0.4798 -0.3753
18059TIP3   OH275667   2.503   5.016   0.401 -0.1863 -0.0432 -0.0125
18059TIP3    H175668   2.594   4.986   0.405 -0.1809 -0.1115 -0.5140
18059TIP3    H275669   2.501   5.074   0.324 -0.5496  0.0151  0.0401
18060TIP3   OH275670   0.040   5.886   3.870  0.1181  0.2062  0.0709
18060TIP3    H175671   0.045   5.791   3.878  2.0556  0.2528  0.0643
18060TIP3    H275672   0.016   5.916   3.958  0.7493 -0.2493  0.4090
18061TIP3   OH275673   5.598   0.136  12.531 -0.1703  0.2074  0.0836
18061TIP3    H175674   5.586   0.072  12.461  2.8539  1.0431 -1.3700
18061TIP3    H275675   5.672   0.104  12.581  0.8816  2.0673 -0.1682
18062TIP3   OH275676   2.069   0.229   4.451 -0.8873  0.0836  0.9611
18062TIP3    H175677   2.093   0.191   4.366 -1.5088  0.6919  0.5089
18062TIP3    H275678   2.116   0.175   4.514  0.2256  0.1254  0.1926
18063TIP3   OH275679   6.756   5.460   5.116  0.1220 -0.4310  0.0298
18063TIP3    H175680   6.833   5.506   5.085  0.9555 -0.8172  1.4283
18063TIP3    H275681   6.688   5.527   5.121  1.6549  1.1379  3.3883
18064TIP3   OH275682   1.797   2.430   5.364 -1.0801 -0.3590  0.0312
18064TIP3    H175683   1.705   2.418   5.386 -1.3986 -0.6036 -1.3415
18064TIP3    H275684   1.842   2.354   5.401 -1.1820  0.4441  1.9131
18065TIP3   OH275685   1.743   2.248   0.582  0.2054  0.0528  0.1178
18065TIP3    H175686   1.695   2.209   0.508  0.1628  0.5056 -0.0989
18065TIP3    H275687   1.808   2.305   0.541  0.9954 -0.6204  0.4117
18066TIP3   OH275688   3.642   0.836   6.058 -0.2795 -0.0122 -0.2296
18066TIP3    H175689   3.625   0.889   6.136 -0.5854 -1.6134  0.8432
18066TIP3    H275690   3.559   0.791   6.041  0.1030 -0.5037 -0.8218
18067TIP3   OH275691   2.582   4.972  14.852  0.4436 -0.0664  0.4345
18067TIP3    H175692   2.535   4.890  14.838 -0.0444 -0.0024  1.5599
18067TIP3    H275693   2.657   4.967  14.793  0.8312 -1.6362  1.0121
18068TIP3   OH275694   4.765   6.025  15.507 -0.1853  0.1779 -0.1685
18068TIP3    H175695   4.699   6.093  15.497  1.4901  2.0471  0.7505
18068TIP3    H275696   4.802   6.040  15.595 -0.5414 -2.6837  0.5845
18069TIP3   OH275697   4.113   2.198   3.318 -1.0700  0.1291 -0.9012
18069TIP3    H175698   4.152   2.257   3.382  0.0265 -1.4456 -0.0295
18069TIP3    H275699   4.127   2.240   3.234  0.7064  0.5838 -0.4090
18070TIP3   OH275700   0.615   6.165  10.463  0.0355  0.1697  1.1586
18070TIP3    H175701   0.641   6.254  10.486  0.5024  1.1396 -2.5284
18070TIP3    H275702   0.519   6.167  10.466  0.0613  0.3856  2.2994
18071TIP3   OH275703   6.074   4.509  15.537 -0.3253 -0.7333 -0.0895
18071TIP3    H175704   6.160   4.475  15.513 -1.3489 -1.3431 -3.3389
18071TIP3    H275705   6.020   4.431  15.550 -1.4517 -0.4853 -2.6738
18072TIP3   OH275706   6.390   6.157   0.956 -0.5480  0.0779 -0.6526
18072TIP3    H175707   6.372   6.069   0.923  0.2061 -0.5606  0.5637
18072TIP3    H275708   6.395   6.212   0.877  0.9384 -1.3341 -1.5989
18073TIP3   OH275709   0.461   0.762  10.916 -0.0809 -0.1124 -0.8859
18073TIP3    H175710   0.420   0.778  10.831  1.3062  0.1266 -1.5359
18073TIP3    H275711   0.510   0.681  10.905 -0.3479 -0.3924 -0.1231
18074TIP3   OH275712   2.924   0.341   5.644 -0.0791 -0.3869 -0.1693
18074TIP3    H175713   2.973   0.423   5.641 -1.1307  0.2179 -2.0344
18074TIP3    H275714   2.855   0.356   5.708 -0.6448  0.4343 -0.9508
18075TIP3   OH275715   6.747   1.284   2.126  0.8895  0.0946 -0.1715
18075TIP3    H175716   6.716   1.373   2.109 -0.8342 -0.1439  1.4224
18075TIP3    H275717   6.772   1.250   2.040 -2.7261  0.5601 -1.5597
18076TIP3   OH275718   4.182   1.139  16.252  0.2353  0.4586  0.5435
18076TIP3    H175719   4.203   1.181  16.169  1.6307 -0.9845  0.1200
18076TIP3    H275720   4.093   1.105  16.239  0.9347 -0.9493 -0.9140
18077TIP3   OH275721   2.428   5.085   0.871  0.2683  0.4175 -0.0520
18077TIP3    H175722   2.465   5.162   0.913 -1.1081  0.8377  0.4332
18077TIP3    H275723   2.334   5.102   0.866  0.0745 -0.7351 -0.9861
18078TIP3   OH275724   3.009   4.243  13.513 -0.2187 -0.6814 -0.4924
18078TIP3    H175725   3.029   4.229  13.420  1.3587 -0.0087 -0.2959
18078TIP3    H275726   3.051   4.170  13.558  0.8395  0.0927 -0.1681
18079TIP3   OH275727   5.303   4.875  12.591 -0.3078  0.1879  0.0077
18079TIP3    H175728   5.210   4.896  12.581 -0.9300 -2.4467 -0.5240
18079TIP3    H275729   5.347   4.930  12.526 -1.7986 -0.3072 -1.4873
18080TIP3   OH275730   2.731   4.642   2.145 -0.3873 -0.4504 -0.4802
18080TIP3    H175731   2.645   4.616   2.179 -0.0124 -0.3687  0.5721
18080TIP3    H275732   2.731   4.612   2.054 -0.4175 -3.1425  0.3124
18081TIP3   OH275733   4.064   0.304   5.248 -0.2221 -0.1620  0.0852
18081TIP3    H175734   4.075   0.393   5.215 -2.5729 -0.6920 -2.6309
18081TIP3    H275735   3.999   0.265   5.189 -0.4082 -3.2204  2.0656
18082TIP3   OH275736   6.249   3.316  12.707  0.1463 -0.1727  0.6451
18082TIP3    H175737   6.184   3.382  12.730  2.0102  1.7662  0.6439
18082TIP3    H275738   6.266   3.330  12.613  1.0914 -0.1423  0.8112
18083TIP3   OH275739   3.787   0.320   1.443  0.7268  0.2364 -1.4306
18083TIP3    H175740   3.708   0.365   1.413  0.9276  0.6816 -1.2976
18083TIP3    H275741   3.838   0.388   1.487 -0.7419 -0.8543  2.3503
18084TIP3   OH275742   3.856   0.681   5.578  0.2493  0.2606  0.0795
18084TIP3    H175743   3.873   0.765   5.620 -2.7617  0.8938  0.2361
18084TIP3    H275744   3.827   0.624   5.649  2.9496 -1.2597  0.1100
18085TIP3   OH275745   6.713   0.765   2.709 -0.0792  0.0418  0.1585
18085TIP3    H175746   6.777   0.824   2.751  0.1485  0.0381 -0.1802
18085TIP3    H275747   6.745   0.755   2.620  1.1590 -2.3962  0.7834
18086TIP3   OH275748   4.508   6.728   1.079  0.1483  0.1358  0.4467
18086TIP3    H175749   4.445   6.722   1.007  0.4853 -1.0694  0.2219
18086TIP3    H275750   4.491   6.651   1.132  1.2707 -0.0889  0.5086
18087TIP3   OH275751   5.475   0.300  17.011  0.6576 -0.5727  0.5403
18087TIP3    H175752   5.394   0.329  17.054  0.6991  1.8347 -0.8316
18087TIP3    H275753   5.449   0.223  16.961 -0.1482 -1.3906  2.1319
18088TIP3   OH275754   4.303   4.278  11.203 -0.4071 -0.2829  0.0325
18088TIP3    H175755   4.344   4.365  11.203 -0.4172 -0.2780 -0.1338
18088TIP3    H275756   4.354   4.227  11.140  1.0587 -1.0980  1.7731
18089TIP3   OH275757   2.199   5.832   5.433 -0.2623  0.0740  0.5755
18089TIP3    H175758   2.201   5.854   5.340 -0.6874  0.2919  0.6180
18089TIP3    H275759   2.113   5.861   5.463 -0.6202 -1.1319  0.7552
18090TIP3   OH275760   6.547   2.860  13.238 -0.3261  0.1499 -0.3449
18090TIP3    H175761   6.641   2.858  13.225 -0.3773 -0.3075 -0.6635
18090TIP3    H275762   6.516   2.773  13.211 -0.5567 -0.5985  2.0705
18091TIP3   OH275763   5.767   5.759  16.878 -0.1328  0.4406  0.3022
18091TIP3    H175764   5.795   5.846  16.848 -1.0398  1.3241  1.8996
18091TIP3    H275765   5.675   5.754  16.851 -0.1944  0.1321  0.5744
18092TIP3   OH275766   6.065   2.049   5.682  0.2109 -0.0131 -0.4766
18092TIP3    H175767   5.973   2.028   5.665 -0.5612  0.3676  2.5421
18092TIP3    H275768   6.067   2.145   5.689  1.0448  0.0504 -1.3985
18093TIP3   OH275769   5.892   4.634  14.444 -0.3648  0.1138  0.1065
18093TIP3    H175770   5.891   4.730  14.447  1.5857  0.1752  3.6434
18093TIP3    H275771   5.985   4.612  14.438 -0.7481 -1.5713  0.1006
18094TIP3   OH275772   0.357   1.155  13.900  0.2600  0.0254 -0.0157
18094TIP3    H175773   0.274   1.191  13.931  0.7459  1.0308  0.1617
18094TIP3    H275774   0.394   1.224  13.845  0.1477 -1.1106 -1.6158
18095TIP3   OH275775   4.471   6.187   2.271 -0.0688 -0.3598  0.4725
18095TIP3    H175776   4.542   6.124   2.282  0.4929 -0.0501 -1.1306
18095TIP3    H275777   4.484   6.250   2.341  0.1745 -1.2701  1.2690
18096TIP3   OH275778   5.660   1.255   5.364  0.2716  0.6463 -0.7792
18096TIP3    H175779   5.726   1.254   5.434  0.9319 -1.8271 -1.3655
18096TIP3    H275780   5.585   1.209   5.401 -0.6924  2.2457 -0.6083
18097TIP3   OH275781   1.132   0.316  13.074  0.4133  0.7410  0.1278
18097TIP3    H175782   1.204   0.348  13.019  0.9319  0.5822  0.6951
18097TIP3    H275783   1.073   0.271  13.013  0.9415  0.6231 -0.3097
18098TIP3   OH275784   0.478   1.564   0.707 -0.2109 -0.4907 -0.1605
18098TIP3    H175785   0.461   1.471   0.696  2.0796 -1.1831  1.4584
18098TIP3    H275786   0.562   1.579   0.663 -0.3795  0.7338 -0.1098
18099TIP3   OH275787   5.405   3.798  13.235  0.0135  0.3910  0.1851
18099TIP3    H175788   5.494   3.834  13.237  0.2931 -0.3061  0.4748
18099TIP3    H275789   5.405   3.739  13.160 -0.2895  0.5811  0.0318
18100TIP3   OH275790   4.573   5.626   0.943  0.7736  0.1961 -0.3973
18100TIP3    H175791   4.668   5.639   0.946  0.6222  1.3681 -0.0804
18100TIP3    H275792   4.543   5.649   1.032  0.1128  0.6082 -0.7155
18101TIP3   OH275793   1.199   2.364  15.039 -0.0101 -0.5598 -0.2016
18101TIP3    H175794   1.260   2.407  14.979  0.1098 -2.4460 -1.5361
18101TIP3    H275795   1.130   2.330  14.983 -2.3313  1.4166  1.2678
18102TIP3   OH275796   4.805   3.912  16.027 -0.6879 -0.0487 -0.3973
18102TIP3    H175797   4.834   3.822  16.013 -1.4117 -0.4719  0.7077
18102TIP3    H275798   4.884   3.965  16.013 -0.2857 -0.8276 -1.1795
18103TIP3   OH275799   1.992   4.579   0.054 -0.1440  0.3295 -0.1780
18103TIP3    H175800   2.050   4.541  -0.012  0.0835  0.5866 -0.1305
18103TIP3    H275801   1.938   4.642   0.006 -0.3529  0.1235 -0.2141
18104TIP3   OH275802   1.110   0.045  16.794 -0.4760  0.3560  0.0892
18104TIP3    H175803   1.170  -0.025  16.767  0.9472  2.3176 -2.2754
18104TIP3    H275804   1.148   0.078  16.876 -0.5129 -0.8348  0.6072
18105TIP3   OH275805   0.591   1.635   6.168 -0.2048 -0.1636 -0.0767
18105TIP3    H175806   0.571   1.577   6.242 -0.2704  0.2754  0.2569
18105TIP3    H275807   0.506   1.656   6.130 -0.0627 -1.7110 -1.3162
18106TIP3   OH275808   1.029   3.794   1.982  0.5076 -0.3755  0.0723
18106TIP3    H175809   0.943   3.831   1.959 -0.6589 -2.1161  1.3422
18106TIP3    H275810   1.074   3.866   2.027 -1.8881 -0.4303  2.9334
18107TIP3   OH275811   5.391   3.580   3.929  0.4101 -0.0220 -0.0855
18107TIP3    H175812   5.449   3.655   3.928 -0.6815  0.8466 -0.5535
18107TIP3    H275813   5.444   3.507   3.897  1.5615  0.4685  0.6515
18108TIP3   OH275814   4.256   2.112  17.046 -0.3235  0.1736  0.0739
18108TIP3    H175815   4.266   2.207  17.056 -0.5557  0.2012  0.0470
18108TIP3    H275816   4.173   2.092  17.089 -0.0030 -0.1011  0.5683
18109TIP3   OH275817   5.927   2.257   3.369 -1.0128  0.9158  0.3102
18109TIP3    H175818   5.961   2.347   3.360 -0.9701  0.9245  0.5602
18109TIP3    H275819   5.934   2.238   3.462 -0.0618  0.2744  0.1219
18110TIP3   OH275820   6.579   5.444   5.819  0.5400 -0.3985 -0.1610
18110TIP3    H175821   6.629   5.364   5.806  0.1079 -0.4584 -1.6595
18110TIP3    H275822   6.611   5.504   5.752  1.6164  1.1165  1.6065
18111TIP3   OH275823   2.610   0.746   3.765 -0.0935 -0.2287  0.4898
18111TIP3    H175824   2.592   0.655   3.789  0.2997 -0.8257 -1.3602
18111TIP3    H275825   2.528   0.778   3.728  0.0149 -0.1008  0.3604
18112TIP3   OH275826   5.072   0.924  17.404  0.0516  0.6745 -0.3549
18112TIP3    H175827   5.163   0.898  17.388  0.1082  0.3264  0.4763
18112TIP3    H275828   5.038   0.949  17.318  0.0796 -1.8508 -1.1805
18113TIP3   OH275829   5.215   1.592   2.588  0.3065 -0.6704  0.7065
18113TIP3    H175830   5.150   1.536   2.545  0.2776 -0.9638  1.1218
18113TIP3    H275831   5.263   1.532   2.646  0.1181 -0.2320  1.3334
18114TIP3   OH275832   4.602   5.511  13.462 -0.7136  0.2925  0.4416
18114TIP3    H175833   4.516   5.549  13.480 -1.1197 -0.6464  0.5374
18114TIP3    H275834   4.591   5.467  13.378 -0.8367 -1.2774  1.2416
18115TIP3   OH275835   6.454   6.274   2.835 -0.0619  0.3295 -0.1082
18115TIP3    H175836   6.498   6.251   2.753  0.6668  0.3368  0.2716
18115TIP3    H275837   6.437   6.190   2.878 -0.1019  0.3454 -0.0920
18116TIP3   OH275838   3.103   5.376  14.096  0.5494 -0.1075  0.4676
18116TIP3    H175839   3.066   5.319  14.163 -1.7723 -0.9578 -1.4277
18116TIP3    H275840   3.079   5.464  14.125 -2.1572 -0.5603 -0.1099
18117TIP3   OH275841   3.683   6.563  16.264 -0.0126  0.4206  0.2693
18117TIP3    H175842   3.731   6.481  16.280  0.5576  0.8381  0.7119
18117TIP3    H275843   3.633   6.545  16.184  0.1823 -0.3282  0.2994
18118TIP3   OH275844   0.789   4.713   0.203 -0.4845  0.6651  0.4444
18118TIP3    H175845   0.774   4.633   0.253  0.0625 -0.0695 -0.5288
18118TIP3    H275846   0.701   4.744   0.181 -0.7404 -1.1906 -1.4900
18119TIP3   OH275847   2.135   1.277  14.041 -0.6985  0.2032  0.1255
18119TIP3    H175848   2.180   1.332  14.105  1.1491  0.5796 -1.3976
18119TIP3    H275849   2.082   1.338  13.990  0.4686  0.4706 -0.8281
18120TIP3   OH275850   1.315   5.649   5.169  0.4266  0.2443 -0.2591
18120TIP3    H175851   1.334   5.699   5.090 -0.9066  1.8557  0.3866
18120TIP3    H275852   1.297   5.715   5.236  1.9914 -1.0398  1.5645
18121TIP3   OH275853   4.836   4.027  12.694  0.4082  0.1135 -0.2206
18121TIP3    H175854   4.816   4.084  12.768  0.2191 -0.6915  0.3526
18121TIP3    H275855   4.764   3.964  12.692 -1.3134  1.9444 -2.9839
18122TIP3   OH275856   4.682   4.980  14.015 -0.0732  0.0569 -0.3432
18122TIP3    H175857   4.737   4.932  14.077 -0.5256  0.4984  0.4061
18122TIP3    H275858   4.724   5.066  14.007 -0.3184  0.1906 -0.2158
18123TIP3   OH275859   3.746   0.408  12.823  0.0417  0.2212 -0.6843
18123TIP3    H175860   3.827   0.442  12.861  0.3801  0.8745 -1.9432
18123TIP3    H275861   3.757   0.313  12.825 -0.1572  0.1907  1.2391
18124TIP3   OH275862   6.246   1.920   1.755 -0.1836 -0.4565  0.0882
18124TIP3    H175863   6.166   1.968   1.779 -0.9444 -1.8086  0.3639
18124TIP3    H275864   6.215   1.833   1.728  1.2575 -1.4728  1.4781
18125TIP3   OH275865   3.270   5.730   5.481 -0.0328  0.1644  0.1138
18125TIP3    H175866   3.177   5.753   5.486  0.0433  0.2925  1.1682
18125TIP3    H275867   3.309   5.772   5.557  0.4121 -2.1506  1.2443
18126TIP3   OH275868   3.517   2.739   0.990 -0.0980  0.5096  0.0455
18126TIP3    H175869   3.573   2.706   0.920 -0.6737  0.3870 -0.3580
18126TIP3    H275870   3.534   2.679   1.064  0.8593  0.9216  0.1771
18127TIP3   OH275871   6.041   3.668   0.813  0.8853  0.4854  0.1937
18127TIP3    H175872   6.029   3.592   0.757  0.4546  1.3092 -0.8738
18127TIP3    H275873   5.953   3.688   0.845  0.9825  0.5900  0.3981
18128TIP3   OH275874   4.075   6.039  12.934  0.2645 -0.2750  0.1024
18128TIP3    H175875   4.028   6.108  12.982  1.5580  1.3569 -0.8697
18128TIP3    H275876   4.147   6.014  12.992  0.7045  0.3248 -0.1768
18129TIP3   OH275877   1.381   5.442  12.941  0.6627  0.1190 -0.2571
18129TIP3    H175878   1.308   5.501  12.961  1.0037  0.6863 -0.6401
18129TIP3    H275879   1.381   5.436  12.845  1.0386  0.0267 -0.2522
18130TIP3   OH275880   6.622   2.354   4.212 -0.0127 -0.1234 -0.6841
18130TIP3    H175881   6.545   2.362   4.156  0.9697 -1.7487 -2.3975
18130TIP3    H275882   6.684   2.303   4.160  1.9690  0.5320  0.9091
18131TIP3   OH275883   5.204   2.152   1.947 -0.3470  0.3770  0.3915
18131TIP3    H175884   5.298   2.136   1.953 -0.3795 -0.0217 -0.1021
18131TIP3    H275885   5.171   2.082   1.892 -0.8704  0.7646  0.1982
18132TIP3   OH275886   3.879   3.817  16.956 -0.5738 -0.0228 -0.5529
18132TIP3    H175887   3.876   3.886  17.022 -0.2208  0.0692 -0.6350
18132TIP3    H275888   3.965   3.825  16.915 -0.2610 -0.9304 -0.1170
18133TIP3   OH275889   4.760   5.216  15.376 -0.2561 -0.1591  0.4511
18133TIP3    H175890   4.833   5.175  15.423  0.2894 -1.4789 -1.4202
18133TIP3    H275891   4.803   5.273  15.311 -0.9812  1.4923  1.3644
18134TIP3   OH275892   6.666   4.779  12.030 -0.3197  0.4303 -0.4433
18134TIP3    H175893   6.623   4.848  11.979  0.6388  0.6255 -1.0110
18134TIP3    H275894   6.632   4.790  12.119  1.0450  2.7355 -0.1293
18135TIP3   OH275895   6.043   6.307  13.961 -0.1582 -0.1482 -0.5259
18135TIP3    H175896   6.125   6.279  13.920  0.1278  1.4821 -1.1399
18135TIP3    H275897   5.976   6.285  13.896 -0.2489 -1.4574 -0.0342
18136TIP3   OH275898   3.854   0.800   1.385  0.9930 -0.5321  0.0357
18136TIP3    H175899   3.764   0.781   1.357  1.3343 -0.2395 -1.3214
18136TIP3    H275900   3.869   0.891   1.359  1.1407 -0.0274  1.7679
18137TIP3   OH275901   4.327   6.114  12.536  0.4947 -0.3577  0.5789
18137TIP3    H175902   4.298   6.129  12.446 -0.0845 -0.7588  0.6902
18137TIP3    H275903   4.291   6.028  12.559  0.5177 -0.2001  1.2411
18138TIP3   OH275904   5.409   6.500  11.477 -0.1659  0.4869 -0.5623
18138TIP3    H175905   5.491   6.531  11.438  0.4407  1.2333  1.2216
18138TIP3    H275906   5.341   6.547  11.430  0.4958  0.9035 -1.1297
18139TIP3   OH275907   6.190   1.953   3.892 -0.1043  0.4484  0.1183
18139TIP3    H175908   6.098   1.968   3.913  0.3017 -0.1631  2.7026
18139TIP3    H275909   6.237   1.984   3.969  1.7935 -0.1869 -0.7296
18140TIP3   OH275910   4.014   4.756  13.499  0.2075  0.0979  0.2042
18140TIP3    H175911   4.019   4.682  13.560 -0.4509  1.5619  2.1285
18140TIP3    H275912   3.928   4.748  13.458  1.0303 -1.4491 -1.3814
18141TIP3   OH275913   5.502   2.408   4.290  0.6194  0.1992 -0.0180
18141TIP3    H175914   5.482   2.501   4.302  0.4959  0.3623 -1.3693
18141TIP3    H275915   5.577   2.407   4.231  1.1507 -0.5486  0.6540
18142TIP3   OH275916   4.625   4.706   4.338  0.6276  0.2639  0.2620
18142TIP3    H175917   4.596   4.779   4.393 -2.4285  0.4695 -1.3809
18142TIP3    H275918   4.599   4.628   4.386 -0.1001  0.3957  0.0966
18143TIP3   OH275919   2.592   1.061   4.105 -0.1825  0.0107 -0.0990
18143TIP3    H175920   2.519   1.046   4.165 -1.2027  0.8675 -1.0912
18143TIP3    H275921   2.610   1.155   4.112  0.7235 -0.1574 -0.0066
18144TIP3   OH275922   5.218   4.631   4.118  0.2716 -0.8214  0.1078
18144TIP3    H175923   5.209   4.584   4.201 -0.1772 -0.2131  0.4080
18144TIP3    H275924   5.302   4.601   4.083  0.1202 -1.6407  0.4220
18145TIP3   OH275925   4.286   1.149  11.908 -0.0494 -0.3644 -0.6414
18145TIP3    H175926   4.223   1.130  11.839  0.1129 -0.7866 -0.6751
18145TIP3    H275927   4.339   1.069  11.915 -1.5271 -1.2565  1.5256
18146TIP3   OH275928   4.721   3.202  17.323 -0.0763 -0.0538  0.3975
18146TIP3    H175929   4.783   3.164  17.385  0.1060  1.6780  1.3305
18146TIP3    H275930   4.774   3.259  17.268 -0.5014 -0.3162 -0.3044
18147TIP3   OH275931   3.673   2.502   0.339 -0.3521  0.0173 -0.1557
18147TIP3    H175932   3.622   2.579   0.365  0.9239  0.1461  2.2468
18147TIP3    H275933   3.696   2.519   0.248  0.5647  2.9153  0.4947
18148TIP3   OH275934   1.089   5.504   5.050 -0.4460  0.4155 -0.1628
18148TIP3    H175935   1.155   5.547   5.104  0.9210 -2.3428  0.5396
18148TIP3    H275936   1.011   5.502   5.105 -1.2016  3.5615 -0.9378
18149TIP3   OH275937   4.852   6.775   4.329 -0.3763 -0.1373  0.0555
18149TIP3    H175938   4.795   6.790   4.253  0.9759  1.0630 -0.7604
18149TIP3    H275939   4.832   6.846   4.389  2.0203  1.8907 -1.3681
18150TIP3   OH275940   5.586   0.441   3.869 -0.4300  0.3003 -0.0863
18150TIP3    H175941   5.494   0.420   3.887 -0.1370 -0.7879  0.2227
18150TIP3    H275942   5.636   0.374   3.916  0.5001  0.3774 -0.9108
18151TIP3   OH275943   2.466   5.042  11.894  0.7942 -0.0926 -0.8871
18151TIP3    H175944   2.531   5.011  11.831  0.9412  0.3130 -0.9422
18151TIP3    H275945   2.495   5.131  11.916  1.9200 -0.9527  1.3631
18152TIP3   OH275946   1.041   0.170   5.148 -0.2152 -0.7932  0.6311
18152TIP3    H175947   1.065   0.077   5.150  1.8700 -0.3423 -0.4106
18152TIP3    H275948   1.102   0.209   5.085 -2.6254  0.8895 -0.8248
18153TIP3   OH275949   1.915   6.566  13.255  0.1777 -0.4519  0.6889
18153TIP3    H175950   1.857   6.612  13.315  1.0015 -0.4376  1.4894
18153TIP3    H275951   1.862   6.553  13.176 -0.8848 -0.3799  1.3695
18154TIP3   OH275952   2.626   1.027   3.217  0.0168 -0.2863 -0.1372
18154TIP3    H175953   2.651   1.048   3.127  0.5089 -1.4269 -0.2777
18154TIP3    H275954   2.614   1.113   3.258 -0.0856  0.2575 -1.2408
18155TIP3   OH275955   1.454   4.292   2.931  0.7281 -0.6183  0.2868
18155TIP3    H175956   1.448   4.273   3.025  1.4085  0.4959  0.5723
18155TIP3    H275957   1.518   4.229   2.897 -0.0322 -1.4882  0.4144
18156TIP3   OH275958   2.436   2.421   4.483 -0.2389  0.9489  0.1561
18156TIP3    H175959   2.364   2.378   4.529  0.4017 -0.2533  0.0722
18156TIP3    H275960   2.447   2.505   4.528 -0.9199  0.6406  0.9215
18157TIP3   OH275961   3.665   1.729  12.814  0.3312  0.1553  0.1054
18157TIP3    H175962   3.633   1.670  12.882 -2.6451  0.5525 -0.7917
18157TIP3    H275963   3.610   1.710  12.738  1.5193  1.8201 -1.2462
18158TIP3   OH275964   0.224   3.975   1.158  0.1022  0.0461  0.3379
18158TIP3    H175965   0.218   4.019   1.073 -1.6046 -0.4789  0.1524
18158TIP3    H275966   0.249   3.885   1.136  1.4575  0.3578  0.5503
18159TIP3   OH275967   6.724   0.361  15.383  0.5328  0.3360 -0.1381
18159TIP3    H175968   6.697   0.405  15.303  0.8228  0.1385 -0.3504
18159TIP3    H275969   6.645   0.356  15.437  0.2600  0.1799 -0.5479
18160TIP3   OH275970   3.938   0.888  14.232 -0.3417 -0.6211 -0.0493
18160TIP3    H175971   3.958   0.980  14.249 -0.9386 -0.2125 -1.3997
18160TIP3    H275972   4.020   0.852  14.195 -0.3290 -0.4440 -0.1941
18161TIP3   OH275973   6.525   5.027  13.705  0.1830  0.4953  0.2885
18161TIP3    H175974   6.581   5.079  13.649  0.8065  0.0106  0.4569
18161TIP3    H275975   6.437   5.038  13.668  0.6986 -0.5894 -1.3774
18162TIP3   OH275976   1.519   4.255  17.138  0.4237 -0.1890  0.2973
18162TIP3    H175977   1.572   4.293  17.209 -0.0587  1.1061 -0.0105
18162TIP3    H275978   1.577   4.190  17.098  1.0788 -0.1906  1.2006
18163TIP3   OH275979   0.682   5.617   5.434 -0.1466  0.7433  0.3554
18163TIP3    H175980   0.586   5.620   5.438 -0.2970 -1.4790 -0.0640
18163TIP3    H275981   0.711   5.664   5.513 -1.7163 -1.5539  2.4638
18164TIP3   OH275982   1.444   5.469   0.074 -0.3402 -0.0549 -0.5078
18164TIP3    H175983   1.523   5.413   0.075 -0.6280 -0.5423 -1.8298
18164TIP3    H275984   1.372   5.407   0.059 -0.7384  0.5971 -1.3434
18165TIP3   OH275985   4.633   3.885  10.914  0.4873 -0.1193  0.0817
18165TIP3    H175986   4.561   3.893  10.977  0.9259 -0.8968  0.6959
18165TIP3    H275987   4.589   3.868  10.831 -0.0297 -2.2479  0.7272
18166TIP3   OH275988   3.351   6.594   2.635  0.1510  0.3134  0.3584
18166TIP3    H175989   3.279   6.657   2.646 -0.5109 -0.1855 -0.9717
18166TIP3    H275990   3.310   6.508   2.642  0.6269  0.0202 -0.3646
18167TIP3   OH275991   4.082   3.817  16.614  0.0659  0.3647  0.2086
18167TIP3    H175992   3.996   3.808  16.573  0.2343  0.6982 -0.2192
18167TIP3    H275993   4.108   3.907  16.596  0.3240  0.3922  0.6990
18168TIP3   OH275994   6.065   2.577   5.304 -0.3102  0.2747 -0.3099
18168TIP3    H175995   6.032   2.494   5.337  1.2052 -0.4084 -0.4201
18168TIP3    H275996   6.104   2.555   5.219 -0.1255  1.1339 -0.4550
18169TIP3   OH275997   1.576   5.123  13.498  0.4347 -0.3255  0.0347
18169TIP3    H175998   1.557   5.216  13.511  2.8419 -0.1024  2.7791
18169TIP3    H275999   1.654   5.121  13.443  1.7696 -0.5507  1.8501
18170TIP3   OH276000   0.602   0.706   4.723 -0.2955 -0.2097  0.5795
18170TIP3    H176001   0.656   0.748   4.656 -1.6032  1.0007  0.2507
18170TIP3    H276002   0.547   0.644   4.676  0.5122 -1.1712  0.8690
18171TIP3   OH276003   6.217   4.735   5.775 -0.1172  0.1149 -0.4727
18171TIP3    H176004   6.205   4.823   5.740 -1.3515 -0.0809 -0.6057
18171TIP3    H276005   6.139   4.687   5.745 -1.7879  0.1471  3.2549
18172TIP3   OH276006   5.512   3.260   2.805 -0.3921 -0.1549 -0.4693
18172TIP3    H176007   5.456   3.298   2.738  0.1310  0.1337 -0.7519
18172TIP3    H276008   5.468   3.280   2.887 -1.3446 -1.0261 -0.7396
18173TIP3   OH276009   1.499   2.091   1.041  0.2469 -0.0530 -0.0540
18173TIP3    H176010   1.533   2.012   1.000 -0.1696 -0.3689  0.2110
18173TIP3    H276011   1.532   2.162   0.986  0.8487 -0.3874 -0.1370
18174TIP3   OH276012   4.651   5.359  15.627  0.0550  0.1324 -0.4073
18174TIP3    H176013   4.634   5.280  15.575  1.2673  0.2833 -1.0742
18174TIP3    H276014   4.721   5.404  15.579  0.4587  0.8239  0.7974
18175TIP3   OH276015   0.208   0.953   5.617  0.2148 -0.0440 -0.3102
18175TIP3    H176016   0.166   1.033   5.646  0.3755  0.0565 -0.3540
18175TIP3    H276017   0.169   0.884   5.671  1.7243  0.3292  1.3697
18176TIP3   OH276018   3.110   5.351   3.996  0.0161 -0.0785  0.6079
18176TIP3    H176019   3.092   5.445   3.985 -1.2813 -0.2387  1.1944
18176TIP3    H276020   3.063   5.309   3.924 -1.1491 -0.4303  1.5493
18177TIP3   OH276021   2.953   5.172   5.129  0.0487  0.2253  0.6891
18177TIP3    H176022   2.894   5.099   5.146 -0.8528  0.6813 -0.3817
18177TIP3    H276023   3.041   5.136   5.146 -0.4109 -0.9339  0.6943
18178TIP3   OH276024   5.078   1.634  14.662  0.0646  0.6233 -0.3094
18178TIP3    H176025   4.987   1.646  14.635 -0.2370 -0.6435  0.0551
18178TIP3    H276026   5.074   1.568  14.732  1.3343 -0.0558 -0.8377
18179TIP3   OH276027   0.021   2.438  15.309  0.0921 -0.3255  0.0169
18179TIP3    H176028  -0.026   2.494  15.372  1.7548  2.3648 -0.9314
18179TIP3    H276029   0.101   2.488  15.289  0.5889 -2.0391 -2.6883
18180TIP3   OH276030   1.113   1.097  13.240 -0.0910 -0.1729 -0.4133
18180TIP3    H176031   1.139   1.114  13.331 -1.3451  1.7031 -0.3435
18180TIP3    H276032   1.131   1.004  13.226  0.3154 -0.4498  1.6855
18181TIP3   OH276033   2.455   1.465  14.463 -0.6186 -1.1977  0.0484
18181TIP3    H176034   2.501   1.512  14.394  0.0540 -2.0011 -0.0726
18181TIP3    H276035   2.477   1.373  14.448 -1.8714 -1.5637  0.2944
18182TIP3   OH276036   4.990   4.968   0.860  0.2312 -0.4389 -0.5243
18182TIP3    H176037   4.904   4.973   0.818  0.6407 -1.5555 -1.5504
18182TIP3    H276038   4.973   4.925   0.944 -0.1435 -1.1582 -0.9578
18183TIP3   OH276039   0.130   1.115  13.537 -0.2150 -0.0895  0.3391
18183TIP3    H176040   0.219   1.104  13.570  0.2309 -0.8339 -1.0283
18183TIP3    H276041   0.120   1.209  13.523  0.1384  0.0586  1.0265
18184TIP3   OH276042   3.937   2.031  16.044  0.3077 -0.0501  0.5941
18184TIP3    H176043   3.976   1.985  16.119  0.3913  0.8401  1.1136
18184TIP3    H276044   3.846   2.001  16.043  0.1647  0.3192  1.3857
18185TIP3   OH276045   4.521   4.686  13.445  0.5821 -0.0020  0.1435
18185TIP3    H176046   4.461   4.669  13.518  0.9391  1.5388  0.8340
18185TIP3    H276047   4.519   4.606  13.393  0.2533 -1.1069  1.7982
18186TIP3   OH276048   6.609   3.247   1.899  0.6708 -1.0442  0.0921
18186TIP3    H176049   6.544   3.213   1.961 -0.9529  1.1518 -0.2697
18186TIP3    H276050   6.691   3.251   1.949 -0.5099  0.3828  2.0655
18187TIP3   OH276051   1.115   1.013   2.824 -0.0127  0.1955  0.2835
18187TIP3    H176052   1.210   1.015   2.832 -0.1003 -0.8819  2.8161
18187TIP3    H276053   1.084   1.059   2.902 -1.6127  1.2584 -0.9171
18188TIP3   OH276054   5.105   0.922   5.804  0.8457  0.1736 -0.0679
18188TIP3    H176055   5.034   0.879   5.853  0.3275 -0.8188 -1.6374
18188TIP3    H276056   5.075   1.012   5.793  1.1744  0.5553  1.7762
18189TIP3   OH276057   1.290   1.089   0.689 -0.1164  0.0794  0.2259
18189TIP3    H176058   1.317   1.077   0.780  0.9785 -0.5107 -0.1515
18189TIP3    H276059   1.362   1.052   0.638 -0.6097  0.6070 -0.8859
18190TIP3   OH276060   1.529   5.866  15.352  0.5780  0.1668  0.1308
18190TIP3    H176061   1.445   5.820  15.341  0.5155  0.2962  0.0505
18190TIP3    H276062   1.504   5.953  15.384  0.6066  0.5404 -0.8108
18191TIP3   OH276063   0.976   0.935  14.689 -0.6132 -0.4361 -0.6865
18191TIP3    H176064   0.898   0.923  14.743  0.8042  0.4907  1.7063
18191TIP3    H276065   1.025   0.853  14.699  0.2473  0.2040  0.5058
18192TIP3   OH276066   0.087   4.912  11.932 -0.5041  0.0312 -0.1582
18192TIP3    H176067   0.030   4.840  11.957  1.8329 -0.8838  3.1506
18192TIP3    H276068   0.047   4.990  11.971 -1.9383  0.2895 -2.0065
18193TIP3   OH276069   4.649   0.012  12.194 -0.5169  0.6423  0.6553
18193TIP3    H176070   4.589   0.073  12.152 -0.2983 -0.7117 -1.8283
18193TIP3    H276071   4.736   0.051  12.180 -0.4670  0.3264  0.0424
18194TIP3   OH276072   3.524   1.549  11.422 -0.1007 -0.5093 -0.7558
18194TIP3    H176073   3.488   1.518  11.505  0.3174  0.2608 -0.2725
18194TIP3    H276074   3.580   1.477  11.392  0.8781 -0.2568  0.3659
18195TIP3   OH276075   3.022   4.127  12.283  0.2784 -0.4923  0.1047
18195TIP3    H176076   3.014   4.036  12.310  2.9325 -0.8765 -0.1388
18195TIP3    H276077   3.105   4.131  12.235  1.0862  2.3605  1.5042
18196TIP3   OH276078   1.994   6.478  13.678 -0.3915 -0.5442  0.2487
18196TIP3    H176079   1.908   6.441  13.696  0.5397 -2.0289  1.8857
18196TIP3    H276080   1.976   6.554  13.622 -2.8678 -0.0728  1.5619
18197TIP3   OH276081   6.063   3.078  13.688  0.3051  0.1209 -0.5006
18197TIP3    H176082   6.079   3.172  13.676  2.1332 -0.2209 -1.0871
18197TIP3    H276083   6.082   3.063  13.781  2.1901 -0.0185 -0.8780
18198TIP3   OH276084   0.188   2.470   2.508 -0.2012 -0.5121  0.9192
18198TIP3    H176085   0.280   2.443   2.501 -0.4471 -1.6209  1.6517
18198TIP3    H276086   0.159   2.480   2.418 -0.0237 -2.5752  0.5865
18199TIP3   OH276087   5.480   0.698   5.746  0.0043 -0.6055 -0.4293
18199TIP3    H176088   5.466   0.642   5.670 -0.1158 -1.2957  0.0911
18199TIP3    H276089   5.559   0.664   5.788  1.1522  0.9184 -1.2450
18200TIP3   OH276090   3.212   5.304  11.708 -0.3263  0.4387 -0.5387
18200TIP3    H176091   3.180   5.367  11.644  0.0811  0.2892 -0.8987
18200TIP3    H276092   3.287   5.262  11.664  0.3163  0.7398  0.2566
18201TIP3   OH276093   1.079   0.968  16.825  0.2523  0.3029  0.1336
18201TIP3    H176094   1.042   0.901  16.768  0.4782  0.6551 -0.4303
18201TIP3    H276095   1.072   0.930  16.913  0.5606 -0.5535 -0.1955
18202TIP3   OH276096   3.691   3.139  15.470  0.2043 -0.6821 -0.2155
18202TIP3    H176097   3.665   3.078  15.400  1.3254 -0.6069 -0.7210
18202TIP3    H276098   3.610   3.182  15.495 -0.1961 -0.5719 -1.6168
18203TIP3   OH276099   5.296   3.896  15.226  0.4462 -0.0034  0.5363
18203TIP3    H176100   5.273   3.950  15.151  2.3674 -0.2917 -0.3086
18203TIP3    H276101   5.307   3.808  15.190 -0.3117 -0.5218  1.4878
18204TIP3   OH276102   4.124   1.710   3.331  1.0365 -0.6476 -0.5209
18204TIP3    H176103   4.108   1.648   3.403  1.7544 -0.7936 -0.4802
18204TIP3    H276104   4.036   1.736   3.302  0.7453 -0.3224  0.6312
18205TIP3   OH276105   5.495   1.474  16.775  0.6274  0.1576  0.2691
18205TIP3    H176106   5.449   1.554  16.800  1.2542  0.4402  0.5370
18205TIP3    H276107   5.569   1.505  16.723 -0.0748 -0.3530 -1.0912
18206TIP3   OH276108   4.821   1.589   0.074  0.0370  0.0776  0.1688
18206TIP3    H176109   4.769   1.513   0.099  0.9869 -0.8079 -0.4545
18206TIP3    H276110   4.859   1.565  -0.011 -0.5461  1.7031 -0.5921
18207TIP3   OH276111   4.790   4.841   0.334 -0.3345  0.1155 -0.3366
18207TIP3    H176112   4.832   4.869   0.252 -1.0702  0.1006 -0.7286
18207TIP3    H276113   4.863   4.819   0.392  0.2132  0.6684 -0.7941
18208TIP3   OH276114   2.505   0.375  16.260  0.6984 -0.4639 -0.0181
18208TIP3    H176115   2.485   0.371  16.353 -1.2355 -0.5887 -0.3959
18208TIP3    H276116   2.524   0.467  16.243 -0.9321 -0.0754  0.1547
18209TIP3   OH276117   6.317   2.172   3.551 -0.0866 -0.3301  0.4104
18209TIP3    H176118   6.323   2.175   3.455 -0.2563  0.5744  0.4179
18209TIP3    H276119   6.266   2.250   3.574  0.6372 -0.0999  1.2904
18210TIP3   OH276120   6.685   0.942  16.381 -0.2035  0.5000  0.2635
18210TIP3    H176121   6.778   0.927  16.398 -0.2993 -0.8032 -0.2226
18210TIP3    H276122   6.661   1.014  16.439  0.9137  0.2954  1.0111
18211TIP3   OH276123   6.406   0.885   6.840 -0.6208  0.1363  0.6090
18211TIP3    H176124   6.359   0.805   6.816 -2.3080  0.9724  0.9808
18211TIP3    H276125   6.342   0.936   6.890  0.4575  1.6698  0.4735
18212TIP3   OH276126   5.441   6.233   2.886 -0.0152 -0.2423  0.5265
18212TIP3    H176127   5.444   6.328   2.885 -0.3969 -0.2328  0.0117
18212TIP3    H276128   5.466   6.207   2.797  1.7849 -0.6851  1.1136
18213TIP3   OH276129   4.660   6.182   4.364 -0.2159  0.0826  0.1001
18213TIP3    H176130   4.662   6.086   4.357  2.8137 -0.0386  1.1605
18213TIP3    H276131   4.734   6.211   4.310 -0.0498  1.6903  1.1368
18214TIP3   OH276132   5.421   2.931  15.096 -0.3586  0.7046 -0.4336
18214TIP3    H176133   5.441   2.996  15.029 -1.2454 -0.5744 -2.0221
18214TIP3    H276134   5.354   2.875  15.055 -1.3404  0.1927  1.7266
18215TIP3   OH276135   5.968   4.309  12.570  0.3371 -0.2649  0.1164
18215TIP3    H176136   6.002   4.250  12.503  0.6943 -1.6499  1.4642
18215TIP3    H276137   5.901   4.360  12.526  1.5856 -0.0879 -1.6638
18216TIP3   OH276138   6.021   4.130   3.434  0.2946 -0.1352  0.0279
18216TIP3    H176139   5.971   4.124   3.516  2.8039  0.7049  1.7454
18216TIP3    H276140   6.037   4.224   3.423  1.4116 -0.3712 -0.4855
18217TIP3   OH276141   4.563   4.071   5.774  0.6532 -0.3189 -0.1862
18217TIP3    H176142   4.628   4.029   5.718 -0.4494 -0.9534 -1.0297
18217TIP3    H276143   4.494   4.099   5.714  0.1527  0.3639  0.6806
18218TIP3   OH276144   2.961   4.756   0.710 -0.0625  0.2778  0.2307
18218TIP3    H176145   2.884   4.775   0.656 -0.0412  0.1889  0.1691
18218TIP3    H276146   2.991   4.670   0.680  1.6959  1.4438 -1.7148
18219TIP3   OH276147   0.111   3.804   0.745  0.3230  0.8299 -0.7662
18219TIP3    H176148   0.206   3.797   0.745  0.2351 -0.5015 -0.3117
18219TIP3    H276149   0.084   3.762   0.663  0.0502 -0.0951 -0.2099
18220TIP3   OH276150   2.973   1.820   0.106  0.2423  0.5227 -0.1798
18220TIP3    H176151   3.008   1.895   0.057  0.1184  0.6899 -0.0156
18220TIP3    H276152   3.039   1.751   0.095 -0.1781  0.2769 -1.2801
18221TIP3   OH276153   6.718   4.194  11.448  0.1576  0.0480 -0.0055
18221TIP3    H176154   6.734   4.197  11.543 -0.2026 -4.6054  0.4343
18221TIP3    H276155   6.805   4.196  11.409  0.3299  1.5320  0.4063
18222TIP3   OH276156   2.205   1.797  15.461 -0.8768 -0.5112  0.0362
18222TIP3    H176157   2.263   1.752  15.401  0.1616 -2.3112  2.2392
18222TIP3    H276158   2.156   1.727  15.504 -2.6021  0.7927  0.3037
18223TIP3   OH276159   2.480   2.141   0.067  0.0934  0.0906 -0.4081
18223TIP3    H176160   2.420   2.072   0.094 -0.8275  1.4804  1.1964
18223TIP3    H276161   2.555   2.093   0.029 -0.7072 -1.7542  0.2316
18224TIP3   OH276162   4.936   1.976  12.612 -0.7671  0.4669  0.2582
18224TIP3    H176163   4.966   1.902  12.665  0.9627  1.1198  0.2448
18224TIP3    H276164   4.981   1.965  12.528 -1.7231  0.6958 -0.3002
18225TIP3   OH276165   0.674   4.624   3.101  0.2070  0.1237 -0.1022
18225TIP3    H176166   0.717   4.632   3.185  0.6085 -0.1783 -0.2741
18225TIP3    H276167   0.712   4.694   3.047  1.3568 -0.8491 -0.6114
18226TIP3   OH276168   4.484   6.718  13.654  0.0126 -0.3639 -0.4221
18226TIP3    H176169   4.475   6.686  13.744 -0.2995 -1.3322 -0.7869
18226TIP3    H276170   4.431   6.658  13.602  0.3753  0.0516 -1.2911
18227TIP3   OH276171   2.975   1.458   6.081  0.1732  0.3663 -0.3911
18227TIP3    H176172   3.009   1.369   6.093  0.8180  0.8913  2.4672
18227TIP3    H276173   2.899   1.447   6.023 -0.3279 -2.1991  0.6123
18228TIP3   OH276174   0.201   5.504  17.098 -0.4886  0.3594  0.0959
18228TIP3    H176175   0.276   5.445  17.104 -0.6902  0.2072  1.4734
18228TIP3    H276176   0.176   5.502  17.005 -1.9476 -3.6157  0.3900
18229TIP3   OH276177   0.972   6.165   4.842  0.6721  0.3553  0.4014
18229TIP3    H176178   0.973   6.192   4.933 -0.1659 -1.0632  0.8499
18229TIP3    H276179   0.994   6.245   4.793 -0.8483  1.6366  1.6975
18230TIP3   OH276180   0.686   6.278  14.939 -0.2014  0.0429  0.2165
18230TIP3    H176181   0.681   6.370  14.965  0.1325 -0.2813  1.5227
18230TIP3    H276182   0.777   6.253  14.959  0.0618 -0.2578 -1.2653
18231TIP3   OH276183   3.428   4.754   1.519  0.3668 -0.4609 -0.0052
18231TIP3    H176184   3.455   4.682   1.576  1.3471 -0.1829 -0.1016
18231TIP3    H276185   3.333   4.745   1.512  0.0060  0.3064  2.7885
18232TIP3   OH276186   5.069   5.820   2.209 -0.4629 -0.1509 -0.2307
18232TIP3    H176187   5.129   5.825   2.135 -1.3264 -3.7314 -1.3670
18232TIP3    H276188   5.126   5.815   2.286  0.6010 -0.4300 -1.0211
18233TIP3   OH276189   0.600   0.816  11.218  0.2016 -0.6144  0.7292
18233TIP3    H176190   0.685   0.774  11.208  0.6435  0.6801 -2.6310
18233TIP3    H276191   0.542   0.766  11.161 -0.1827  0.9324 -0.3156
18234TIP3   OH276192   0.991   2.574   0.419 -0.2781 -0.5436 -0.4203
18234TIP3    H176193   0.963   2.657   0.457 -0.9926 -0.4863 -1.0501
18234TIP3    H276194   1.042   2.531   0.488 -0.1440  0.2886  0.0039
18235TIP3   OH276195   4.442   3.693   4.958  0.5623 -0.4545  0.5015
18235TIP3    H176196   4.348   3.688   4.944  0.5098  0.6315  0.4026
18235TIP3    H276197   4.454   3.765   5.019  1.2093 -1.6802  1.8959
18236TIP3   OH276198   5.950   5.187  16.822  0.1554  0.2179  0.2194
18236TIP3    H176199   6.042   5.160  16.831  0.2310  0.4073  0.0533
18236TIP3    H276200   5.904   5.108  16.795  0.4908  0.3927 -0.9411
18237TIP3   OH276201   4.662   3.080  12.658  0.2697  0.2088 -0.6457
18237TIP3    H176202   4.694   3.141  12.724 -0.4099 -0.9112  0.7863
18237TIP3    H276203   4.734   3.019  12.644 -0.3784 -0.9958  0.9320
18238TIP3   OH276204   3.198   1.228  16.598 -0.2605  0.0869 -0.1630
18238TIP3    H176205   3.157   1.142  16.594 -0.9000  0.4342 -2.4304
18238TIP3    H276206   3.126   1.289  16.585  0.4541  0.8786 -0.5022
18239TIP3   OH276207   5.787   0.296   3.111 -0.2937 -0.2942 -0.0528
18239TIP3    H176208   5.866   0.291   3.058  0.9637  1.5185  1.5189
18239TIP3    H276209   5.734   0.363   3.069 -1.3035 -1.8952 -1.4222
18240TIP3   OH276210   6.632   2.315   3.471  0.1516 -0.4314  0.3733
18240TIP3    H176211   6.647   2.224   3.446  0.6925 -0.0430 -0.8075
18240TIP3    H276212   6.539   2.319   3.494 -0.9496 -0.4870 -3.3898
18241TIP3   OH276213   3.829   5.593  14.550 -0.3323 -0.3786  0.1181
18241TIP3    H176214   3.801   5.574  14.461  1.3876  0.5163 -0.6711
18241TIP3    H276215   3.906   5.537  14.563  0.9009  1.2345  0.1022
18242TIP3   OH276216   5.506   3.653  12.126  0.3735  0.0307  0.2432
18242TIP3    H176217   5.446   3.578  12.122  0.2189  0.2030 -1.0792
18242TIP3    H276218   5.451   3.726  12.154  0.3436 -0.1726  0.7195
18243TIP3   OH276219   2.607   1.889   5.718 -0.0175 -0.1789 -0.0181
18243TIP3    H176220   2.542   1.833   5.759 -0.1268 -0.1694 -0.1772
18243TIP3    H276221   2.574   1.978   5.729 -1.9546 -0.3286 -3.3245
18244TIP3   OH276222   1.326   5.134   2.469  0.5857  0.5781 -0.2981
18244TIP3    H176223   1.344   5.056   2.520 -0.8290 -1.2139 -2.3854
18244TIP3    H276224   1.238   5.160   2.495  1.3478  2.0789  1.0022
18245TIP3   OH276225   5.658   6.697   0.672  0.2536  0.1352  0.1348
18245TIP3    H176226   5.667   6.625   0.610  1.0117 -0.2738  0.6989
18245TIP3    H276227   5.613   6.658   0.747  2.5123 -0.3543  1.3304
18246TIP3   OH276228   4.167   4.177   2.200  0.1620 -0.3428 -0.6391
18246TIP3    H176229   4.129   4.142   2.280  1.1078 -0.3809 -0.1907
18246TIP3    H276230   4.243   4.227   2.229 -2.5440  4.5957 -0.9054
18247TIP3   OH276231   1.225   3.995  14.220 -0.1362  0.1737 -0.9002
18247TIP3    H176232   1.134   3.965  14.231 -0.0220 -0.6219 -1.8877
18247TIP3    H276233   1.245   4.042  14.300 -0.1009 -3.0845  1.1780
18248TIP3   OH276234   2.764   3.761   0.998 -0.1877  0.2911  0.2213
18248TIP3    H176235   2.759   3.750   0.903  1.6688  2.3406 -0.2051
18248TIP3    H276236   2.719   3.844   1.014 -3.2848 -1.5010  1.6417
18249TIP3   OH276237   1.466   5.012  10.348 -0.0708  0.4372 -0.0663
18249TIP3    H176238   1.374   5.024  10.373 -0.8568 -2.2294 -1.3444
18249TIP3    H276239   1.462   4.974  10.260  2.3240  1.4932 -0.6931
18250TIP3   OH276240   5.314   6.014  13.003 -0.3727  0.3364  0.3374
18250TIP3    H176241   5.394   5.984  13.046 -1.0535 -0.8440  0.8266
18250TIP3    H276242   5.326   5.993  12.911  0.3176  1.1784  0.2154
18251TIP3   OH276243   5.119   0.705  17.112 -0.4894 -0.1711 -0.2887
18251TIP3    H176244   5.058   0.645  17.156 -0.2269  0.8189  1.4774
18251TIP3    H276245   5.102   0.690  17.018 -3.9038  0.4897  0.0777
18252TIP3   OH276246   0.033   6.024   3.622  0.2640  0.0275 -0.1084
18252TIP3    H176247   0.056   5.969   3.696  1.1724  1.5969  0.8340
18252TIP3    H276248  -0.013   6.099   3.661 -3.7166 -1.3482 -1.5990
18253TIP3   OH276249   0.673   1.678   3.245  0.1880 -0.9252  0.1620
18253TIP3    H176250   0.758   1.691   3.287 -0.2923  1.1865  0.5901
18253TIP3    H276251   0.687   1.605   3.184  2.4559 -0.2555 -0.2076
18254TIP3   OH276252   4.733   2.784   3.646  0.6022 -0.6608  0.0345
18254TIP3    H176253   4.692   2.736   3.574  0.3236  0.7525 -0.7907
18254TIP3    H276254   4.726   2.725   3.721 -0.7999 -1.4126 -0.6385
18255TIP3   OH276255   3.395   0.930   4.272  0.1187 -0.1722  0.5826
18255TIP3    H176256   3.404   0.884   4.355 -0.9617  1.5797  1.7326
18255TIP3    H276257   3.456   1.003   4.278 -0.9403  0.7388  0.4094
18256TIP3   OH276258   1.917   6.360   1.513  0.3195 -0.0337 -0.1402
18256TIP3    H176259   1.898   6.338   1.421  1.2555 -0.0821 -0.3259
18256TIP3    H276260   1.950   6.278   1.550  2.5108  0.6455 -0.4750
18257TIP3   OH276261   2.959   4.864   2.271 -0.3667  0.4432  0.0862
18257TIP3    H176262   3.040   4.912   2.258  0.7770 -1.3208  0.3245
18257TIP3    H276263   2.986   4.773   2.284 -2.4849 -0.5463 -1.7141
18258TIP3   OH276264   3.538   1.597   2.180  0.1329  0.4130 -0.9562
18258TIP3    H176265   3.514   1.662   2.114 -0.9296 -1.0283 -2.0531
18258TIP3    H276266   3.594   1.535   2.133  1.4536  0.6833  0.1716
18259TIP3   OH276267   1.049   1.502  17.028  0.3092 -0.2852 -0.4928
18259TIP3    H176268   0.956   1.522  17.043  0.2277 -1.2341  0.3854
18259TIP3    H276269   1.048   1.412  16.994  1.0065 -1.1159  1.5537
18260TIP3   OH276270   0.066   3.987   6.018  0.2804 -0.0056  0.0494
18260TIP3    H176271   0.158   3.967   6.031  0.5949  0.6380 -1.0959
18260TIP3    H276272   0.041   3.936   5.941 -0.7018 -1.2516  1.1382
18261TIP3   OH276273   4.289   0.095   5.682 -0.1106  0.7968 -0.3962
18261TIP3    H176274   4.228   0.080   5.754 -1.7416 -0.7156 -1.9907
18261TIP3    H276275   4.373   0.112   5.725 -1.3709  1.7562  1.8593
18262TIP3   OH276276   5.907   3.210  12.890  0.3611  0.1043  0.0851
18262TIP3    H176277   5.902   3.217  12.795 -1.7071 -1.0335  0.0484
18262TIP3    H276278   5.977   3.148  12.907 -0.5630 -1.2319 -0.8246
18263TIP3   OH276279   4.139   4.463   5.113  0.5892  0.2108 -0.3221
18263TIP3    H176280   4.107   4.540   5.067 -0.0193 -0.1870 -0.5831
18263TIP3    H276281   4.075   4.394   5.092  2.3567 -1.0217 -2.0200
18264TIP3   OH276282   3.839   5.291   0.502  0.4298  0.2270 -0.0202
18264TIP3    H176283   3.924   5.255   0.526 -0.1280 -1.6074 -0.5666
18264TIP3    H276284   3.776   5.226   0.535 -0.8249  1.8848  1.0060
18265TIP3   OH276285   4.651   6.318  12.999 -0.8149  0.6181 -0.6743
18265TIP3    H176286   4.646   6.320  12.904  0.6078  0.6627 -0.7662
18265TIP3    H276287   4.679   6.406  13.024 -0.8337  0.5031 -0.2369
18266TIP3   OH276288   4.466   2.897   5.951 -0.4303  0.4083 -0.0639
18266TIP3    H176289   4.418   2.926   5.874  0.4131  0.7170 -0.4927
18266TIP3    H276290   4.528   2.968   5.969 -1.2984  0.7939  1.5166
18267TIP3   OH276291   4.930   2.439   1.524  0.2100  0.0913  0.3353
18267TIP3    H176292   4.943   2.524   1.483 -1.1727  0.9507  1.5795
18267TIP3    H276293   4.875   2.391   1.462  3.2629 -1.0472 -1.7189
18268TIP3   OH276294   1.417   4.257  13.424  0.0629  0.4151 -0.0274
18268TIP3    H176295   1.367   4.316  13.479 -1.2154  0.6451 -1.3971
18268TIP3    H276296   1.410   4.172  13.468 -1.0433  0.5670  0.1032
18269TIP3   OH276297   5.265   2.959   3.150 -0.7332 -0.1244  0.1304
18269TIP3    H176298   5.237   3.003   3.070  1.7310  1.3327 -0.0303
18269TIP3    H276299   5.184   2.925   3.189 -2.0528 -0.5200 -2.7224
18270TIP3   OH276300   3.233   1.349  16.854  0.0324 -0.2529 -0.8496
18270TIP3    H176301   3.309   1.328  16.908 -0.8207  1.5993  1.1937
18270TIP3    H276302   3.255   1.314  16.768  2.0968 -1.9938  0.2808
18271TIP3   OH276303   3.860   3.422  15.022 -0.0932 -0.5532 -0.3589
18271TIP3    H176304   3.934   3.460  15.068  0.0990 -0.3838 -0.8093
18271TIP3    H276305   3.855   3.332  15.056 -1.3922  0.2221  1.7358
18272TIP3   OH276306   0.457   6.696  10.561  0.0192  0.0780 -0.1957
18272TIP3    H176307   0.513   6.700  10.484 -0.6551  0.0295 -0.6966
18272TIP3    H276308   0.433   6.787  10.579  1.3720  0.2719  0.8794
18273TIP3   OH276309   4.422   5.188  11.133 -0.2427  0.1075 -0.1145
18273TIP3    H176310   4.357   5.219  11.070 -1.1242 -0.3464  0.5495
18273TIP3    H276311   4.451   5.103  11.099 -0.4515  0.0287 -0.0948
18274TIP3   OH276312   6.096   1.415  15.848  0.2369 -0.0373 -0.0730
18274TIP3    H176313   6.038   1.341  15.866  0.2200 -0.3830 -1.4121
18274TIP3    H276314   6.109   1.412  15.753  0.1365  1.7666 -0.1669
18275TIP3   OH276315   3.998   3.189  16.411  0.1379 -0.1051  0.3132
18275TIP3    H176316   3.933   3.260  16.405  0.7975  0.3985 -1.4483
18275TIP3    H276317   3.975   3.129  16.340 -0.1040 -1.4519  1.4767
18276TIP3   OH276318   3.203   4.755  13.244 -0.1317 -0.1541 -0.3951
18276TIP3    H176319   3.143   4.766  13.170 -0.8636 -1.6189 -0.0577
18276TIP3    H276320   3.257   4.680  13.219  0.3966  0.0766  0.0510
18277TIP3   OH276321   0.791   3.345   0.957 -0.3328 -0.3550 -0.3467
18277TIP3    H176322   0.774   3.397   0.878 -2.0965 -0.6045 -0.1861
18277TIP3    H276323   0.865   3.389   0.999 -1.7525  2.1081 -0.2112
18278TIP3   OH276324   1.069   5.099  15.722 -0.1477 -0.3331 -0.1196
18278TIP3    H176325   1.157   5.133  15.709 -0.1522  0.4521  1.6803
18278TIP3    H276326   1.072   5.053  15.806 -1.3230 -0.7415 -0.2778
18279TIP3   OH276327   5.028   3.219   1.676  0.0379  0.1935 -0.4074
18279TIP3    H176328   4.963   3.262   1.732 -0.5022  0.6958 -1.3899
18279TIP3    H276329   4.976   3.166   1.615  0.5442  0.5927 -1.2010
18280TIP3   OH276330   0.682   4.764  12.827 -0.1141  0.5157  0.2450
18280TIP3    H176331   0.694   4.786  12.734  1.1764  0.9152  0.4778
18280TIP3    H276332   0.717   4.840  12.874  1.0040 -0.4529  1.0598
18281TIP3   OH276333   0.216   2.566  15.524  0.0747  0.3018 -0.0754
18281TIP3    H176334   0.123   2.550  15.508 -0.2713 -0.3275  2.1908
18281TIP3    H276335   0.237   2.642  15.470 -2.5884  2.5009  1.6921
18282TIP3   OH276336   3.767   3.159  15.062 -0.2618 -0.5108  0.5431
18282TIP3    H176337   3.708   3.101  15.015  1.4740 -1.2914 -0.8012
18282TIP3    H276338   3.855   3.132  15.034  0.6745  1.9590  0.8204
18283TIP3   OH276339   5.639   3.252  14.797 -0.0865 -0.0522  0.8426
18283TIP3    H176340   5.730   3.231  14.819  0.5628  1.1682 -0.5124
18283TIP3    H276341   5.624   3.337  14.838  0.5241  1.3529 -1.6721
18284TIP3   OH276342   2.919   1.067   3.960  0.3582 -0.3668 -0.1965
18284TIP3    H176343   2.902   1.134   4.027 -0.7959 -0.4812 -0.3489
18284TIP3    H276344   2.987   1.105   3.905 -0.4884  0.8210 -0.4650
18285TIP3   OH276345   6.776   3.074   5.619 -0.2953 -0.1885 -0.1785
18285TIP3    H176346   6.796   3.152   5.567  1.1113  0.3003  1.0433
18285TIP3    H276347   6.760   3.005   5.553  0.2893  0.6729 -1.2577
18286TIP3   OH276348   4.560   2.182   2.473 -0.2736  0.0285  0.6340
18286TIP3    H176349   4.544   2.130   2.552 -0.5944 -2.1040 -0.7690
18286TIP3    H276350   4.502   2.258   2.484 -3.4042 -2.1516  0.7291
18287TIP3   OH276351   6.360   4.249   4.537  0.4114  0.3697  0.3190
18287TIP3    H176352   6.424   4.218   4.602 -0.3048 -0.8727  0.4738
18287TIP3    H276353   6.403   4.323   4.494  1.3677  0.4760  1.4067
18288TIP3   OH276354   3.573   0.164   4.367 -0.0352  0.0162  0.4388
18288TIP3    H176355   3.595   0.074   4.390  1.2104  0.4497  1.0742
18288TIP3    H276356   3.498   0.185   4.424 -0.7530 -0.8067 -0.1820
18289TIP3   OH276357   0.315   5.737  11.055 -0.2964 -0.1915 -0.2449
18289TIP3    H176358   0.221   5.718  11.052  0.1391 -2.4662 -0.8705
18289TIP3    H276359   0.331   5.762  11.146 -1.2134 -1.5669  0.3315
18290TIP3   OH276360   5.550   3.163  15.197  0.1416  0.1080 -0.0111
18290TIP3    H176361   5.548   3.067  15.197  0.9668  0.0089  2.8988
18290TIP3    H276362   5.461   3.188  15.170 -1.1488 -1.5757  2.2695
18291TIP3   OH276363   3.203   2.026   0.222 -1.1203  0.2190 -0.0406
18291TIP3    H176364   3.151   2.106   0.224 -0.7136  0.4775  0.4571
18291TIP3    H276365   3.294   2.056   0.215 -0.8821 -0.1485  1.2613
18292TIP3   OH276366   3.828   5.559   4.616 -0.1076  1.1167 -0.0060
18292TIP3    H176367   3.774   5.576   4.694  0.4382  0.9897  0.4036
18292TIP3    H276368   3.900   5.621   4.623 -1.2865  2.7957 -1.6657
18293TIP3   OH276369   0.746   3.618   3.892  0.8299 -0.0142  0.2969
18293TIP3    H176370   0.734   3.686   3.825 -1.4300  1.2389  1.8195
18293TIP3    H276371   0.716   3.537   3.850  0.8291  0.4594 -0.6460
18294TIP3   OH276372   0.181   5.307  11.322  0.0377 -0.0008 -0.0042
18294TIP3    H176373   0.268   5.274  11.344  0.2407  1.2234  1.1339
18294TIP3    H276374   0.122   5.255  11.376  0.1571 -0.0107  0.1164
18295TIP3   OH276375   4.342   3.191   4.474  0.4439  0.2586  0.2412
18295TIP3    H176376   4.329   3.190   4.569  0.0161  0.5959  0.1930
18295TIP3    H276377   4.319   3.280   4.448 -1.4353 -0.3853 -0.4411
18296TIP3   OH276378   1.196   4.545  11.490 -0.0305  0.9430  0.0435
18296TIP3    H176379   1.186   4.563  11.397 -0.3051  1.6381  0.1957
18296TIP3    H276380   1.226   4.455  11.495 -1.7845  0.2888 -0.6416
18297TIP3   OH276381   2.019   2.015  17.184 -0.0141  0.9650 -0.0776
18297TIP3    H176382   2.114   2.012  17.196 -0.0927 -0.5622  0.3777
18297TIP3    H276383   2.004   1.981  17.096 -0.1764  0.2953  0.1981
18298TIP3   OH276384   6.457   3.488   5.342 -0.5117 -0.1441 -0.2800
18298TIP3    H176385   6.550   3.510   5.335 -0.6863  0.5165 -0.5957
18298TIP3    H276386   6.454   3.394   5.325  0.1976 -0.3587  0.6438
18299TIP3   OH276387   2.778   4.447  10.915 -0.1144  0.0468 -0.2011
18299TIP3    H176388   2.804   4.533  10.881  0.1595 -0.4710 -1.3450
18299TIP3    H276389   2.850   4.422  10.972 -0.9134  1.2480  1.4071
18300TIP3   OH276390   3.149   5.511  12.531  0.2233  0.5774 -0.5919
18300TIP3    H176391   3.073   5.551  12.488  0.5405  1.5184 -0.2832
18300TIP3    H276392   3.209   5.491  12.459 -0.2654 -0.0761 -0.8274
18301TIP3   OH276393   5.464   5.685  14.660  0.6643 -1.1159 -0.0621
18301TIP3    H176394   5.435   5.741  14.732 -0.8263 -0.6922 -0.9501
18301TIP3    H276395   5.522   5.741  14.608  0.7641 -1.0382  0.1317
18302TIP3   OH276396   3.864   1.558  13.717 -0.2203 -0.1966 -0.0295
18302TIP3    H176397   3.871   1.640  13.767 -0.5184  0.6067 -1.2682
18302TIP3    H276398   3.874   1.490  13.783  1.1949  0.8277  0.8878
18303TIP3   OH276399   1.816   3.857   2.214 -0.0706  0.2570  0.1715
18303TIP3    H176400   1.724   3.832   2.224  0.6131 -1.9496  2.2217
18303TIP3    H276401   1.853   3.789   2.159  0.5625  0.4223  0.3866
18304TIP3   OH276402   0.014   4.538  14.259  0.5205 -0.5828  0.6754
18304TIP3    H176403   0.087   4.477  14.272  1.8030  0.8179  0.2945
18304TIP3    H276404   0.045   4.599  14.193 -2.0085 -1.4477 -1.4660
18305TIP3   OH276405   4.259   5.298  15.246 -0.5919  0.0310  0.2619
18305TIP3    H176406   4.277   5.300  15.340 -0.6960 -1.5275  0.3507
18305TIP3    H276407   4.345   5.282  15.206 -0.1037  3.0358 -0.1520
18306TIP3   OH276408   0.807   4.286  14.026 -0.1978  0.7219  0.1477
18306TIP3    H176409   0.724   4.282  14.075  0.0287  0.7784  0.5361
18306TIP3    H276410   0.874   4.300  14.093  0.1017  0.9294 -0.1940
18307TIP3   OH276411   3.489   0.687  13.989  0.2329  0.7256 -0.5326
18307TIP3    H176412   3.547   0.755  14.022 -0.2314  0.6156  0.5453
18307TIP3    H276413   3.547   0.614  13.967  0.5604  0.7953  0.0726
18308TIP3   OH276414   4.318   0.694   3.944 -0.7781  0.1569  0.1355
18308TIP3    H176415   4.306   0.610   3.900  0.4278 -0.6557  1.2842
18308TIP3    H276416   4.315   0.759   3.874 -2.3411 -0.7698 -0.7065
18309TIP3   OH276417   6.162   0.709   2.228  0.6048 -0.0327  0.7614
18309TIP3    H176418   6.222   0.635   2.227  0.1482 -0.4248  1.8646
18309TIP3    H276419   6.081   0.675   2.189  0.0255 -0.4626  2.2671
18310TIP3   OH276420   3.004   0.349   4.512  0.6524 -0.3118 -0.1899
18310TIP3    H176421   3.082   0.384   4.468 -0.0528  0.0606 -1.1843
18310TIP3    H276422   2.952   0.427   4.532  0.5573 -0.5561  0.5289
18311TIP3   OH276423   6.365   1.753  12.545 -0.2625 -0.6407  0.5442
18311TIP3    H176424   6.332   1.695  12.613  0.1607 -2.2374 -0.5379
18311TIP3    H276425   6.289   1.803  12.516 -1.0960 -2.0551  0.2056
18312TIP3   OH276426   2.651   3.836   5.217 -0.4363 -0.2026  0.3748
18312TIP3    H176427   2.574   3.790   5.184  0.3034 -1.4458  0.3066
18312TIP3    H276428   2.699   3.769   5.266  0.0650  0.8188  1.3376
18313TIP3   OH276429   3.364   1.085  14.979  0.2620 -0.1018  0.1523
18313TIP3    H176430   3.425   1.011  14.975  0.7722  0.3588 -2.4548
18313TIP3    H276431   3.420   1.161  14.995 -0.0513 -0.0376  1.0015
18314TIP3   OH276432   0.184   4.463   4.969  0.1583  0.1251 -0.0782
18314TIP3    H176433   0.237   4.527   4.923 -0.6743 -0.4976 -2.0121
18314TIP3    H276434   0.235   4.382   4.965 -0.2844 -0.1262 -0.6329
18315TIP3   OH276435   3.638   4.800  13.456 -0.0557  0.4482  0.6453
18315TIP3    H176436   3.552   4.826  13.487  0.4728  0.1318  2.4635
18315TIP3    H276437   3.678   4.755  13.530  1.6678  0.5612 -0.1705
18316TIP3   OH276438   2.274   1.880   5.100  0.1529  0.1653 -0.0269
18316TIP3    H176439   2.307   1.963   5.136 -1.7253  0.4121  1.2720
18316TIP3    H276440   2.199   1.859   5.154 -0.3225 -1.6408 -1.3021
18317TIP3   OH276441   4.793   3.651  17.193  0.5570  0.0337  0.2972
18317TIP3    H176442   4.786   3.712  17.267  0.2308  1.1214 -0.5972
18317TIP3    H276443   4.866   3.595  17.215  0.6989  0.5746  1.2836
18318TIP3   OH276444   4.128   3.305   6.479  0.7138 -0.1483 -0.1149
18318TIP3    H176445   4.073   3.383   6.484 -0.1748 -0.5600 -2.4360
18318TIP3    H276446   4.102   3.253   6.555 -0.6238  0.5886 -0.0421
18319TIP3   OH276447   4.585   1.686  10.733  0.3350 -0.4895  0.3326
18319TIP3    H176448   4.610   1.676  10.641  1.1848 -0.0155  0.5000
18319TIP3    H276449   4.629   1.614  10.778 -0.7442 -1.2132  0.2652
18320TIP3   OH276450   3.948   1.550  13.292 -0.4030  0.6396 -0.7181
18320TIP3    H176451   3.856   1.524  13.300 -0.0634 -0.0677  1.7331
18320TIP3    H276452   3.993   1.470  13.263 -0.2336  0.1210  0.8257
18321TIP3   OH276453   2.124   4.088  14.142 -0.5984 -0.0345 -0.4558
18321TIP3    H176454   2.122   4.027  14.069  0.8962 -0.2480 -0.3383
18321TIP3    H276455   2.173   4.164  14.111  1.0827 -0.6136  0.6491
18322TIP3   OH276456   6.443   1.741  16.139 -0.3081  0.2595 -0.1678
18322TIP3    H176457   6.389   1.715  16.213 -0.0211  0.7021  0.2031
18322TIP3    H276458   6.486   1.660  16.111  1.0326  0.3794  1.3407
18323TIP3   OH276459   4.474   1.060  15.145  0.1705  0.3169 -0.6214
18323TIP3    H176460   4.537   1.049  15.215  0.6320  1.1226 -0.8958
18323TIP3    H276461   4.471   1.154  15.130 -0.2026  0.1866 -1.4243
18324TIP3   OH276462   2.098   1.413   3.017 -0.3032 -0.4661  0.4054
18324TIP3    H176463   2.134   1.470   2.949 -0.6621 -1.0345 -0.2667
18324TIP3    H276464   2.080   1.472   3.090  0.4047  0.0976  0.1387
18325TIP3   OH276465   3.969   5.513   5.247  0.0096  0.4041 -0.2438
18325TIP3    H176466   3.877   5.486   5.251  0.1805 -0.0696  2.1088
18325TIP3    H276467   3.966   5.609   5.257 -0.2066  0.3382  0.3362
18326TIP3   OH276468   2.302   5.023  14.370 -0.7508  0.9233 -0.6715
18326TIP3    H176469   2.306   4.993  14.461 -1.4906  3.0760  0.1337
18326TIP3    H276470   2.329   4.947  14.318  1.3575  0.1319  1.4238
18327TIP3   OH276471   0.482   5.610   2.285 -0.2784 -0.2012 -0.5100
18327TIP3    H176472   0.398   5.568   2.267 -0.6329 -0.2964  1.1594
18327TIP3    H276473   0.459   5.701   2.305  0.1818  0.1155 -1.3865
18328TIP3   OH276474   1.622   0.974   3.527 -0.3252  0.0670 -0.8694
18328TIP3    H176475   1.572   0.968   3.608 -1.4569 -0.5214 -1.5791
18328TIP3    H276476   1.614   1.066   3.500 -0.3825  0.1466 -0.5783
18329TIP3   OH276477   2.725   1.354  15.315 -0.0529 -0.1268 -0.4308
18329TIP3    H176478   2.685   1.384  15.397 -0.2107 -1.5413  0.0374
18329TIP3    H276479   2.780   1.280  15.340  2.8080  1.6209 -1.0837
18330TIP3   OH276480   3.280   0.827  11.111  0.0422  0.2139 -0.4150
18330TIP3    H176481   3.240   0.758  11.057 -0.7093  0.3605 -0.0578
18330TIP3    H276482   3.292   0.785  11.196 -1.8230  0.9466  0.2570
18331TIP3   OH276483   1.333   3.957   2.904  0.1103 -0.3355 -0.6469
18331TIP3    H176484   1.349   3.992   2.992 -3.8327 -1.7092  0.8457
18331TIP3    H276485   1.297   4.030   2.855  1.5253  0.2151 -0.9128
18332TIP3   OH276486   1.352   1.422  16.158 -0.2747  0.3801  0.5865
18332TIP3    H176487   1.319   1.399  16.071  2.6099 -0.0207 -0.5048
18332TIP3    H276488   1.375   1.514  16.152 -1.2196  0.6914  1.3750
18333TIP3   OH276489   4.702   3.021   4.074  0.8898 -0.9596 -0.0153
18333TIP3    H176490   4.781   3.074   4.060  1.9988 -2.5894 -0.2742
18333TIP3    H276491   4.677   2.993   3.986 -1.4999  1.4914 -0.2490
18334TIP3   OH276492   2.690   0.882  13.115 -0.6932  0.3547 -0.1709
18334TIP3    H176493   2.666   0.905  13.205 -0.2734  2.0403 -0.4411
18334TIP3    H276494   2.702   0.787  13.116 -0.8508  0.3249  1.5080
18335TIP3   OH276495   1.052   3.192   0.941 -0.4153  0.6092 -0.3078
18335TIP3    H176496   1.132   3.151   0.909 -0.5460  1.2429 -1.4949
18335TIP3    H276497   1.054   3.281   0.904 -0.4668  1.4714  1.6280
18336TIP3   OH276498   4.362   2.225  10.679 -0.4104  0.0084  0.2772
18336TIP3    H176499   4.421   2.266  10.615 -3.7196  1.3024 -2.2085
18336TIP3    H276500   4.358   2.288  10.751  0.1398  0.5847 -0.1796
18337TIP3   OH276501   6.372   5.924   4.243  0.3336 -0.1263  0.2357
18337TIP3    H176502   6.305   5.968   4.192 -0.3543 -0.3914  0.9036
18337TIP3    H276503   6.339   5.835   4.257  0.1165  0.1645  1.8244
18338TIP3   OH276504   5.767   0.175   2.484  0.0271 -0.3034  0.0348
18338TIP3    H176505   5.844   0.131   2.520  1.0205  1.1892 -0.1663
18338TIP3    H276506   5.693   0.121   2.513  1.0579 -1.1769  1.1645
18339TIP3   OH276507   4.281   5.338  16.497  0.1054  0.0082  0.3581
18339TIP3    H176508   4.190   5.311  16.484  0.5219 -1.0400 -0.4976
18339TIP3    H276509   4.298   5.402  16.428 -1.0135  3.0223  2.6381
18340TIP3   OH276510   5.149   6.646  15.812 -0.0002 -0.3973  0.5442
18340TIP3    H176511   5.095   6.694  15.875  1.1299  2.3300 -0.4011
18340TIP3    H276512   5.135   6.693  15.729  2.2790 -0.8237 -0.1245
18341TIP3   OH276513   1.733   1.894   1.207 -0.2252  0.2879 -0.0247
18341TIP3    H176514   1.706   1.909   1.297 -1.7389 -2.5505  0.1043
18341TIP3    H276515   1.756   1.801   1.204 -1.0243  0.0935 -2.7297
18342TIP3   OH276516   1.441   2.636  15.364  0.1146 -0.1179 -0.2688
18342TIP3    H176517   1.354   2.596  15.358 -1.0388  2.1475  0.1727
18342TIP3    H276518   1.464   2.657  15.273  0.5834 -1.4041 -0.4682
18343TIP3   OH276519   0.479   3.097   0.884  0.2672  0.0996 -0.1967
18343TIP3    H176520   0.425   3.154   0.829 -1.2507 -1.4620 -0.3878
18343TIP3    H276521   0.561   3.087   0.835  0.1395  1.2271 -0.6649
18344TIP3   OH276522   1.423   1.223   0.346 -0.2620  0.2444 -0.3041
18344TIP3    H176523   1.510   1.260   0.353 -0.4683  1.3372 -2.5457
18344TIP3    H276524   1.365   1.288   0.387 -0.1968  0.3358 -0.3574
18345TIP3   OH276525   4.952   4.220   3.328 -0.4130 -0.2430 -0.3621
18345TIP3    H176526   4.864   4.194   3.354 -0.6285  2.4573  2.1014
18345TIP3    H276527   4.970   4.170   3.248 -3.5095 -2.0496 -0.0519
18346TIP3   OH276528   1.051   1.559   1.156 -0.1638 -0.0472  0.8062
18346TIP3    H176529   1.048   1.565   1.061  1.0525  1.0042  0.8015
18346TIP3    H276530   0.974   1.508   1.180 -0.1414 -0.8768 -0.7783
18347TIP3   OH276531   1.431   5.057   0.225 -0.1203  0.0535  0.0511
18347TIP3    H176532   1.351   5.020   0.262  0.0543 -0.9528 -0.5267
18347TIP3    H276533   1.451   5.000   0.151  0.7072  0.7565 -0.2821
18348TIP3   OH276534   6.397   0.775   1.994 -0.1566 -0.0777 -0.1155
18348TIP3    H176535   6.370   0.866   2.007 -1.1154 -0.3660 -0.0064
18348TIP3    H276536   6.391   0.736   2.081 -2.1809 -0.8536 -0.5362
18349TIP3   OH276537   4.065   0.401  16.081 -0.6268 -0.0538 -0.5166
18349TIP3    H176538   4.132   0.372  16.019  0.2139 -0.3827  0.5136
18349TIP3    H276539   4.111   0.408  16.165 -2.0004 -0.8360  0.3400
18350TIP3   OH276540   2.404   6.684  11.394  0.3080  0.2097 -0.4387
18350TIP3    H176541   2.477   6.663  11.336 -0.0283  0.9326 -1.1348
18350TIP3    H276542   2.327   6.680  11.338 -0.3945 -1.8480  0.5598
18351TIP3   OH276543   1.833   2.181  15.359 -0.1361  0.3758 -0.2122
18351TIP3    H176544   1.912   2.142  15.397  0.1588  1.8570  0.7951
18351TIP3    H276545   1.761   2.143  15.407  0.0449 -0.0495 -0.2758
18352TIP3   OH276546   5.743   5.796  15.940  0.2591 -0.0679 -0.1616
18352TIP3    H176547   5.809   5.768  15.876 -1.4696  0.7486 -2.4273
18352TIP3    H276548   5.764   5.888  15.957 -0.5560  0.3458 -1.2949
18353TIP3   OH276549   5.155   4.725   4.669 -0.4625 -0.1135 -0.2225
18353TIP3    H176550   5.065   4.702   4.649 -0.6957 -1.2150  1.8587
18353TIP3    H276551   5.207   4.651   4.639 -0.3352  0.1236 -0.5989
18354TIP3   OH276552   0.639   5.065  17.250  0.3748 -0.3992 -0.5233
18354TIP3    H176553   0.703   5.060  17.179  0.6548  1.2589 -0.4335
18354TIP3    H276554   0.659   5.148  17.294 -1.5988 -0.0320 -0.2499
18355TIP3   OH276555   3.790   0.847  13.821  0.0226 -0.4586 -0.4611
18355TIP3    H176556   3.781   0.877  13.911 -0.4084  0.6629 -0.8575
18355TIP3    H276557   3.845   0.913  13.779 -0.9922 -0.1642 -1.3771
18356TIP3   OH276558   3.343   5.673   3.099  0.4349  0.3189 -0.0888
18356TIP3    H176559   3.288   5.736   3.145  1.6997  0.8555  0.7390
18356TIP3    H276560   3.420   5.663   3.155  1.6513  0.3681 -1.6914
18357TIP3   OH276561   0.001   4.496  13.322 -0.6390  0.0387  0.2006
18357TIP3    H176562   0.080   4.466  13.367 -1.5214 -0.6510  1.3536
18357TIP3    H276563   0.011   4.591  13.317 -0.9945  0.3116  2.9311
18358TIP3   OH276564   0.747   3.529   0.255 -0.0630  0.2649  0.1423
18358TIP3    H176565   0.767   3.623   0.258  2.6892 -0.2519  2.4328
18358TIP3    H276566   0.813   3.493   0.195 -0.7445 -0.2767 -0.2869
18359TIP3   OH276567   4.086   3.684  12.500  0.3132 -0.3533 -0.2077
18359TIP3    H176568   4.160   3.734  12.465  1.8345 -0.9747  1.9388
18359TIP3    H276569   4.088   3.601  12.451  1.5108 -0.6549  0.3227
18360TIP3   OH276570   1.887   1.810  11.193 -0.0970  0.0717  0.1041
18360TIP3    H176571   1.847   1.817  11.280 -0.0151 -0.4031  0.1823
18360TIP3    H276572   1.967   1.862  11.200  0.5671 -0.9893  0.7178
18361TIP3   OH276573   0.431   6.177  11.442 -0.5296 -0.6171 -0.9968
18361TIP3    H176574   0.423   6.203  11.350  1.6692 -0.7376 -1.2788
18361TIP3    H276575   0.467   6.254  11.486 -0.6130 -0.8890 -0.4371
18362TIP3   OH276576   4.645   3.740  11.303  0.0673  0.3080  0.3047
18362TIP3    H176577   4.604   3.654  11.288 -1.5451  1.1566 -0.3299
18362TIP3    H276578   4.579   3.790  11.351  0.9530  1.2462  0.5847
18363TIP3   OH276579   3.633   6.498   5.982  0.1336  0.1611 -0.3940
18363TIP3    H176580   3.707   6.547   6.018  0.8223 -1.1274 -0.0090
18363TIP3    H276581   3.655   6.406   5.996 -1.7343 -0.2605  0.1010
18364TIP3   OH276582   2.347   6.484  15.151  0.2558 -0.0943 -0.3572
18364TIP3    H176583   2.275   6.544  15.132  0.4197  0.7935  1.5867
18364TIP3    H276584   2.316   6.433  15.226  1.3593 -0.2131  0.0290
18365TIP3   OH276585   1.998   0.468   0.630 -0.7991 -0.4970  0.5143
18365TIP3    H176586   2.086   0.468   0.594 -0.5960 -0.9252  0.9935
18365TIP3    H276587   2.005   0.517   0.712 -0.8125 -1.2592  0.9822
18366TIP3   OH276588   0.008   3.202  13.881 -0.0084 -0.5919 -0.7857
18366TIP3    H176589   0.100   3.177  13.889 -0.0870 -1.1519 -1.5924
18366TIP3    H276590  -0.026   3.149  13.810 -1.3831 -1.5773  0.5475
18367TIP3   OH276591   5.566   3.606  15.483 -0.3045 -0.0293  0.3988
18367TIP3    H176592   5.493   3.653  15.445  0.4245 -0.3020 -1.4287
18367TIP3    H276593   5.630   3.674  15.504 -1.4157  0.3249  2.9538
18368TIP3   OH276594   4.052   0.444   3.162  0.4211 -0.7700 -0.1513
18368TIP3    H176595   4.124   0.471   3.106  1.3185  0.1135  1.3540
18368TIP3    H276596   4.057   0.503   3.238 -3.0707  0.6183 -0.8341
18369TIP3   OH276597   2.989   4.482  16.456  0.0389 -0.1355 -0.4799
18369TIP3    H176598   2.939   4.548  16.408  2.2723  0.4087 -2.1836
18369TIP3    H276599   2.946   4.400  16.434 -1.3673  0.4756 -0.1818
18370TIP3   OH276600   3.876   5.584   5.811  0.5583  0.1771 -0.3222
18370TIP3    H176601   3.859   5.639   5.735 -1.0694 -2.1264 -1.7423
18370TIP3    H276602   3.805   5.605   5.872  0.6229  0.4964 -0.3561
18371TIP3   OH276603   0.113   3.072  11.561  0.0318  0.1076  0.1203
18371TIP3    H176604   0.113   3.039  11.651  0.0656  0.6191  0.3107
18371TIP3    H276605   0.132   3.165  11.570 -1.0421  0.3808 -0.3394
18372TIP3   OH276606   2.028   5.666   1.155 -0.1393 -0.1644 -0.0425
18372TIP3    H176607   2.016   5.686   1.062 -2.1062 -0.2845  0.1467
18372TIP3    H276608   1.978   5.733   1.201  1.0469  0.0648  0.9722
18373TIP3   OH276609   6.646   2.110  13.803 -0.0600  0.2990  0.9432
18373TIP3    H176610   6.720   2.056  13.774 -2.4404 -1.1695 -3.4303
18373TIP3    H276611   6.670   2.199  13.779  0.4122 -0.1390 -0.2897
18374TIP3   OH276612   2.930   1.919   1.014  0.2321 -0.7870 -0.2433
18374TIP3    H176613   2.847   1.965   1.026  0.4290 -0.5404  0.2105
18374TIP3    H276614   2.930   1.850   1.081  1.1269  0.2860  0.9117
18375TIP3   OH276615   2.143   0.838   1.363  0.0293 -0.0071 -0.0867
18375TIP3    H176616   2.109   0.799   1.444  1.1812 -1.2116 -0.1422
18375TIP3    H276617   2.205   0.773   1.329  1.3121  1.4649 -0.7227
18376TIP3   OH276618   5.162   6.707  14.482 -0.9290  0.3423 -0.0330
18376TIP3    H176619   5.235   6.739  14.535 -0.7584 -0.1674  0.0431
18376TIP3    H276620   5.203   6.673  14.403 -0.6209 -3.6145  1.6365
18377TIP3   OH276621   6.352   4.998  12.359 -0.1608 -0.0650 -0.0609
18377TIP3    H176622   6.262   4.971  12.342 -0.3729  0.8169 -0.4006
18377TIP3    H276623   6.356   5.012  12.453  0.1039 -1.7444  0.2129
18378TIP3   OH276624   6.348   2.803  11.395  0.0092 -0.2861 -0.1302
18378TIP3    H176625   6.390   2.751  11.463 -1.6536  0.1086  1.2496
18378TIP3    H276626   6.397   2.885  11.394  0.5007 -0.5728  0.0622
18379TIP3   OH276627   3.865   1.317   4.580 -0.5066  0.1078  0.5204
18379TIP3    H176628   3.949   1.360   4.566 -1.5719  1.8226 -0.9932
18379TIP3    H276629   3.851   1.264   4.502 -0.8743 -0.0761  0.7064
18380TIP3   OH276630   0.918   0.872  12.595 -0.4511  0.2766 -0.0055
18380TIP3    H176631   0.844   0.864  12.535 -1.4618 -0.4360  1.2629
18380TIP3    H276632   0.915   0.790  12.646  1.8947 -0.2752 -0.6557
18381TIP3   OH276633   4.505   2.714  14.337 -0.1694  0.5892  0.5162
18381TIP3    H176634   4.540   2.800  14.312 -0.6491  0.2420 -1.4808
18381TIP3    H276635   4.421   2.707  14.293 -0.0099 -1.0374  0.3893
18382TIP3   OH276636   5.336   2.113  13.759 -0.0143 -0.0500  0.0202
18382TIP3    H176637   5.393   2.039  13.738 -0.4010 -0.7767  1.4554
18382TIP3    H276638   5.367   2.145  13.843 -0.1377  1.1712 -0.3700
18383TIP3   OH276639   1.105   1.267  11.519  0.3800  0.6742  0.7557
18383TIP3    H176640   1.172   1.292  11.456  1.4587 -0.7931  1.2563
18383TIP3    H276641   1.151   1.265  11.603 -0.7533  1.4441  1.4171
18384TIP3   OH276642   1.705   3.903  12.573 -0.0833  0.2457 -0.2687
18384TIP3    H176643   1.787   3.862  12.601 -0.6171 -1.3169 -0.8959
18384TIP3    H276644   1.698   3.981  12.628  1.0889 -0.3684  0.8191
18385TIP3   OH276645   4.291   2.641   0.464  0.1358  0.7627 -0.1934
18385TIP3    H176646   4.203   2.603   0.466  0.8254 -0.8963  1.9306
18385TIP3    H276647   4.278   2.728   0.425 -2.6275  1.0601  1.1157
18386TIP3   OH276648   5.692   3.013  11.474 -0.7722  0.0854  0.5711
18386TIP3    H176649   5.758   2.984  11.411  1.0110  2.7918  1.0010
18386TIP3    H276650   5.634   3.070  11.424  1.3707  3.2566  1.3802
18387TIP3   OH276651   2.585   0.459   3.818 -0.5296  0.7114  0.1105
18387TIP3    H176652   2.512   0.426   3.765  0.0948  0.3786 -0.5588
18387TIP3    H276653   2.663   0.428   3.773  0.0283 -0.3942  1.7581
18388TIP3   OH276654   2.164   3.786   1.972 -0.5491  0.0610 -0.0924
18388TIP3    H176655   2.192   3.700   2.003 -0.9922 -0.3653 -0.8468
18388TIP3    H276656   2.204   3.848   2.033  1.6272 -0.5323 -0.8541
18389TIP3   OH276657   2.318   0.774  16.485  0.3211 -0.1553 -0.4572
18389TIP3    H176658   2.279   0.779  16.397  0.3990 -1.1392 -0.5602
18389TIP3    H276659   2.251   0.810  16.543  0.1076  0.1352 -0.8781
18390TIP3   OH276660   3.777   2.124   3.135 -0.4896  0.2408 -0.1091
18390TIP3    H176661   3.722   2.075   3.074 -1.0903  0.2316  0.4251
18390TIP3    H276662   3.866   2.113   3.102 -0.6918 -0.6559 -0.3776
18391TIP3   OH276663   4.844   6.105   4.687 -0.5612 -0.3245 -0.0271
18391TIP3    H176664   4.867   6.182   4.635  0.1655 -0.2224  0.4286
18391TIP3    H276665   4.749   6.111   4.699 -0.5040  0.5203  0.0382
18392TIP3   OH276666   0.940   6.447  14.744  0.0277  0.1858  0.4205
18392TIP3    H176667   0.969   6.401  14.665  0.1157  0.3117  0.3793
18392TIP3    H276668   0.953   6.384  14.814 -0.8087 -0.2148  0.2253
18393TIP3   OH276669   2.790   2.372   5.542 -0.1532 -0.0265 -0.0697
18393TIP3    H176670   2.878   2.336   5.526  0.4296  0.9831  0.7174
18393TIP3    H276671   2.742   2.299   5.583  0.7449 -0.1945  0.7308
18394TIP3   OH276672   2.102   5.403   3.465 -0.5507  0.5250  0.1495
18394TIP3    H176673   2.111   5.490   3.426  0.9107 -0.0541 -0.8852
18394TIP3    H276674   2.126   5.343   3.395  0.5132 -0.6207  1.4466
18395TIP3   OH276675   2.002   4.029   2.326 -0.6485  0.3132  0.1538
18395TIP3    H176676   2.011   4.122   2.302 -1.1885  0.7255  1.4498
18395TIP3    H276677   1.943   3.993   2.260 -2.2989  1.4678  0.9193
18396TIP3   OH276678   5.573   6.209   5.459 -0.0979 -0.3767 -0.5334
18396TIP3    H176679   5.562   6.302   5.439 -1.7628 -0.1420  1.1626
18396TIP3    H276680   5.529   6.163   5.388  0.1048  0.1403 -1.0003
18397TIP3   OH276681   0.592   3.997  15.929 -0.1547 -0.3714  0.0120
18397TIP3    H176682   0.520   3.937  15.947 -1.9602  1.4204 -0.8978
18397TIP3    H276683   0.552   4.070  15.882  2.3656  0.4122 -1.1199
18398TIP3   OH276684   5.801   5.032  15.025 -0.5682 -0.7167  0.2127
18398TIP3    H176685   5.790   5.127  15.020  0.7856 -0.6115 -1.4730
18398TIP3    H276686   5.882   5.019  15.074 -0.2161 -0.9693 -0.4330
18399TIP3   OH276687   3.360   2.355   4.425 -0.1243  0.0108  0.2410
18399TIP3    H176688   3.265   2.354   4.441 -0.1255  1.5481  0.5467
18399TIP3    H276689   3.389   2.266   4.443 -1.6496 -0.7156 -0.7377
18400TIP3   OH276690   5.009   1.823  16.141  0.4003 -0.1135  0.1776
18400TIP3    H176691   5.102   1.798  16.132  0.3824  0.4231 -1.9514
18400TIP3    H276692   5.010   1.896  16.203  1.2910 -0.6287  0.8032
18401TIP3   OH276693   2.636   3.255   0.126 -0.0603 -0.0402  0.2371
18401TIP3    H176694   2.712   3.287   0.077  0.3178 -1.9532 -0.5388
18401TIP3    H276695   2.640   3.299   0.210  0.7692  1.3829 -0.5170
18402TIP3   OH276696   2.131   3.447   0.143  0.2858  0.1608  0.3511
18402TIP3    H176697   2.174   3.381   0.197 -0.9983 -0.1692  0.9960
18402TIP3    H276698   2.051   3.469   0.190 -2.1101 -1.8398 -2.4252
18403TIP3   OH276699   1.787   0.614  15.974 -0.4706  0.0611  0.2019
18403TIP3    H176700   1.743   0.529  15.980 -1.1915  0.5219  2.9031
18403TIP3    H276701   1.736   0.662  15.908 -2.2189 -0.4635  1.0932
18404TIP3   OH276702   5.832   0.165  12.243 -0.6736 -0.2508 -0.0469
18404TIP3    H176703   5.800   0.254  12.228 -1.0545 -0.0671  1.6149
18404TIP3    H276704   5.752   0.112  12.248 -0.5032 -0.4899  0.1120
18405TIP3   OH276705   4.955   1.131   2.435 -0.1021  0.3726  0.4399
18405TIP3    H176706   4.885   1.148   2.499 -0.5536 -1.3182  0.4463
18405TIP3    H276707   4.985   1.042   2.455  0.2896  0.0994 -1.2034
18406TIP3   OH276708   5.218   1.079  13.618 -0.4614  0.1791  0.3192
18406TIP3    H176709   5.293   1.074  13.676  0.2256 -0.8259 -0.6190
18406TIP3    H276710   5.233   1.157  13.565  1.4091 -1.4528 -1.7596
18407TIP3   OH276711   6.332   5.026  14.429 -0.5149 -1.0215 -0.2603
18407TIP3    H176712   6.350   4.998  14.339  1.5420 -0.5355 -0.0383
18407TIP3    H276713   6.374   4.960  14.484 -0.3970 -0.4607  0.3311
18408TIP3   OH276714   2.196   6.590  13.298 -0.6673 -0.0857 -0.3079
18408TIP3    H176715   2.101   6.591  13.283 -0.9435 -2.5155  0.8716
18408TIP3    H276716   2.233   6.602  13.210 -2.0560  0.0000 -0.9186
18409TIP3   OH276717   6.586   3.316  13.978  0.5234  0.1529 -0.2675
18409TIP3    H176718   6.675   3.281  13.968  0.2214 -0.5451 -0.5612
18409TIP3    H276719   6.570   3.316  14.072  1.8616  2.9117  0.0619
18410TIP3   OH276720   6.205   4.616  11.579 -0.1111  0.4032 -0.2895
18410TIP3    H176721   6.217   4.525  11.551  0.7475  0.9572 -1.8615
18410TIP3    H276722   6.121   4.616  11.625 -0.0872 -1.1911 -0.1839
18411TIP3   OH276723   1.987   1.592  11.356 -0.2532 -0.0033  0.0533
18411TIP3    H176724   2.081   1.591  11.369 -0.3297 -0.5117  0.5536
18411TIP3    H276725   1.971   1.674  11.309  0.5969 -0.5628 -1.2697
18412TIP3   OH276726   4.773   6.243  16.905 -0.5518  0.1324 -0.5471
18412TIP3    H176727   4.684   6.212  16.890 -0.0284 -1.0457 -1.3127
18412TIP3    H276728   4.823   6.165  16.927  0.2957  0.7878 -0.0634
18413TIP3   OH276729   1.357   6.399   6.256  0.0897  0.2121 -0.1691
18413TIP3    H176730   1.325   6.359   6.337  0.4219 -1.3641 -0.7630
18413TIP3    H276731   1.321   6.343   6.187  2.8663 -0.8084 -0.9294
18414TIP3   OH276732   6.774   1.417   2.907  0.2420  0.5931 -0.0475
18414TIP3    H176733   6.705   1.482   2.919  1.6388  2.6648 -2.3051
18414TIP3    H276734   6.840   1.439   2.973  0.5823  1.3471 -0.6207
18415TIP3   OH276735   4.229   1.363  15.377 -0.4593  0.2520 -0.4881
18415TIP3    H176736   4.267   1.370  15.290  2.9746  0.2274  0.8487
18415TIP3    H276737   4.282   1.297  15.421 -1.9972  0.3589  1.6794
18416TIP3   OH276738   2.138   5.171   5.311  0.3000  0.4939  0.0144
18416TIP3    H176739   2.112   5.229   5.382  0.0357  3.6419 -2.4401
18416TIP3    H276740   2.058   5.156   5.261  0.6882 -0.7835 -0.2813
18417TIP3   OH276741   3.105   3.133   2.611 -0.2675 -0.3579 -0.1239
18417TIP3    H176742   3.125   3.081   2.533  1.5106  0.4195 -0.2141
18417TIP3    H276743   3.121   3.073   2.685  1.3152 -0.1205 -0.2465
18418TIP3   OH276744   0.187   0.340  15.290 -0.0064  0.3065 -0.1866
18418TIP3    H176745   0.103   0.320  15.330  0.7738 -1.0753  0.8452
18418TIP3    H276746   0.211   0.261  15.242  0.8177  0.5916 -0.2704
18419TIP3   OH276747   6.338   1.307  12.203 -0.2722  0.0112  0.7056
18419TIP3    H176748   6.371   1.250  12.272  1.4082 -0.7744 -0.6621
18419TIP3    H276749   6.416   1.337  12.157 -1.2780 -2.1140 -2.8440
18420TIP3   OH276750   4.805   6.469  12.135  0.0042  0.3639  0.2536
18420TIP3    H176751   4.714   6.440  12.130  0.0783  0.2758 -1.1000
18420TIP3    H276752   4.851   6.398  12.179 -0.4059 -0.0662 -0.0052
18421TIP3   OH276753   2.607   4.992  14.218 -0.5856  0.3993 -0.1307
18421TIP3    H176754   2.618   4.897  14.224  0.4932  0.5568  0.7057
18421TIP3    H276755   2.604   5.021  14.309 -0.7125  1.1825 -0.3849
18422TIP3   OH276756   0.553   5.257  13.153  0.2606  0.4983  0.8037
18422TIP3    H176757   0.505   5.265  13.070  2.8743  0.3423 -0.8558
18422TIP3    H276758   0.557   5.163  13.169  2.6005  0.2356 -0.8193
18423TIP3   OH276759   3.377   3.022   3.400  0.2104 -0.2211 -0.0742
18423TIP3    H176760   3.303   3.026   3.461 -2.6909  1.4651 -3.3030
18423TIP3    H276761   3.444   3.077   3.439 -0.7465 -0.6628  2.3672
18424TIP3   OH276762   0.316   2.485  13.432  1.0871 -0.7100  0.5246
18424TIP3    H176763   0.402   2.506  13.395  0.7797 -1.1049 -0.4522
18424TIP3    H276764   0.334   2.419  13.499  1.5549 -0.7317  0.3780
18425TIP3   OH276765   4.433   2.983  12.799  0.0480 -0.6087  0.1963
18425TIP3    H176766   4.466   2.911  12.853  0.4624 -0.3201  0.3297
18425TIP3    H276767   4.510   3.016  12.753 -0.3641 -1.1151 -0.8939
18426TIP3   OH276768   6.423   3.455   4.993 -0.0307 -0.4119 -0.1291
18426TIP3    H176769   6.366   3.523   5.027 -0.6734 -1.1897  0.3958
18426TIP3    H276770   6.412   3.382   5.054  1.5718 -0.5747  0.0124
18427TIP3   OH276771   6.302   1.672  12.013  0.2842 -0.1179 -0.3399
18427TIP3    H176772   6.397   1.682  12.009  0.0746  2.3281 -0.1977
18427TIP3    H276773   6.288   1.607  12.082  1.8280 -0.0304  0.0891
18428TIP3   OH276774   0.029   5.850   1.815 -0.6751  0.1396 -0.1090
18428TIP3    H176775   0.020   5.943   1.794  0.9918  0.2861 -0.3297
18428TIP3    H276776   0.004   5.844   1.907  0.8082  1.1427  0.4034
18429TIP3   OH276777   2.684   6.548   3.228  0.4356 -0.0433 -0.5528
18429TIP3    H176778   2.746   6.555   3.300 -1.7981  2.2139  1.3274
18429TIP3    H276779   2.700   6.627   3.176 -1.7776  1.4538  0.8744
18430TIP3   OH276780   2.557   3.584  16.834  0.5635  0.8136  0.8620
18430TIP3    H176781   2.596   3.518  16.891  3.3207  3.1999  2.0077
18430TIP3    H276782   2.491   3.628  16.888 -1.9369 -1.3815 -0.1819
18431TIP3   OH276783   2.021   2.889   1.648 -0.1029 -0.1161  0.6230
18431TIP3    H176784   1.958   2.952   1.613  1.6100  1.8163  0.8187
18431TIP3    H276785   2.017   2.814   1.588 -1.4098  0.6219 -0.2629
18432TIP3   OH276786   2.084   0.619  15.685 -0.0691 -0.2002  0.2902
18432TIP3    H176787   2.084   0.556  15.613 -1.0991  0.4009 -0.2588
18432TIP3    H276788   2.171   0.610  15.725 -0.2346 -2.0631  0.3217
18433TIP3   OH276789   2.864   3.516  17.177 -0.7813 -1.1549 -0.1546
18433TIP3    H176790   2.867   3.462  17.097 -0.5430 -0.6662 -0.4814
18433TIP3    H276791   2.841   3.603  17.146  3.8553  0.2579 -0.3878
18434TIP3   OH276792   0.246   2.693   2.039  0.1277  0.1670  0.6544
18434TIP3    H176793   0.340   2.712   2.044  0.1659 -0.1960  1.4518
18434TIP3    H276794   0.238   2.631   1.967  0.1199  2.3718 -1.3846
18435TIP3   OH276795   4.376   2.236  12.567 -0.2387  0.2600 -0.5897
18435TIP3    H176796   4.417   2.284  12.639  0.2397 -0.1877 -0.5600
18435TIP3    H276797   4.406   2.282  12.488  1.0724 -0.6071 -0.6179
18436TIP3   OH276798   1.707   4.611   0.794  0.4267 -0.1069  0.1138
18436TIP3    H176799   1.667   4.674   0.854 -1.8701 -0.5219 -0.8416
18436TIP3    H276800   1.669   4.527   0.820 -0.3388 -0.3379 -1.6407
18437TIP3   OH276801   6.215   0.644   1.834  0.7767  0.2080  0.5601
18437TIP3    H176802   6.274   0.660   1.761 -0.8140  2.3443 -0.3857
18437TIP3    H276803   6.254   0.691   1.908  1.4898 -0.4694  0.6219
18438TIP3   OH276804   0.209   5.421   0.815 -0.2767  0.2006 -0.9478
18438TIP3    H176805   0.173   5.350   0.762  0.4576  0.1181 -1.3584
18438TIP3    H276806   0.210   5.496   0.756 -0.5117  0.4042 -0.6936
18439TIP3   OH276807   4.370   1.489  16.600  0.2737  0.1639 -0.1828
18439TIP3    H176808   4.409   1.576  16.596  1.9246 -0.3923  1.9768
18439TIP3    H276809   4.410   1.442  16.527  2.8501 -0.0182  1.2292
18440TIP3   OH276810   4.735   4.240  14.077 -0.5338 -0.0945  0.0241
18440TIP3    H176811   4.814   4.189  14.057 -0.5103 -0.7911  1.6868
18440TIP3    H276812   4.669   4.207  14.016 -0.3544 -1.7614  0.6658
18441TIP3   OH276813   3.889   1.667  16.724  0.2719  0.1169 -0.1261
18441TIP3    H176814   3.857   1.634  16.808  0.8567  1.6550  0.7449
18441TIP3    H276815   3.917   1.589  16.677 -2.2261 -1.0424  0.1342
18442TIP3   OH276816   0.719   2.837   4.550 -0.0811  0.4833  0.2311
18442TIP3    H176817   0.688   2.758   4.595 -0.1997 -0.9355 -2.1556
18442TIP3    H276818   0.783   2.875   4.610 -0.6762 -0.9139  1.8473
18443TIP3   OH276819   5.724   6.738  11.130  0.1200  0.0680  0.7160
18443TIP3    H176820   5.754   6.648  11.116 -1.8967 -0.5926  0.3719
18443TIP3    H276821   5.733   6.780  11.044 -1.7379 -0.7247  0.0838
18444TIP3   OH276822   1.293   3.307   5.486  0.6287 -0.1701  0.2385
18444TIP3    H176823   1.383   3.338   5.476 -0.0609  1.5123 -1.2432
18444TIP3    H276824   1.298   3.212   5.471  1.9588  0.0943 -1.1955
18445TIP3   OH276825   4.517   4.864   1.698 -0.0607 -0.0845  0.0433
18445TIP3    H176826   4.578   4.828   1.634  0.8178  0.2456  0.6636
18445TIP3    H276827   4.473   4.935   1.652  0.1502 -0.2160 -0.3668
18446TIP3   OH276828   1.346   4.537  16.271 -0.3154 -0.0677 -0.4398
18446TIP3    H176829   1.251   4.528  16.272 -0.3678  0.4798 -0.3185
18446TIP3    H276830   1.364   4.597  16.199  0.1122 -1.9272 -1.9770
18447TIP3   OH276831   6.671   2.151  14.393 -0.1211 -0.3026 -0.5507
18447TIP3    H176832   6.612   2.217  14.357  1.9787  1.0321 -1.7677
18447TIP3    H276833   6.653   2.072  14.343 -0.8601  0.0710 -0.8848
18448TIP3   OH276834   6.132   6.543  14.460 -0.2134  0.0691  0.5526
18448TIP3    H176835   6.201   6.586  14.512 -1.4207  2.2901  0.4464
18448TIP3    H276836   6.052   6.557  14.511 -0.7695 -1.4985  0.1439
18449TIP3   OH276837   3.629   5.067   4.965 -0.5809  0.5551 -0.4354
18449TIP3    H176838   3.668   5.112   5.040  0.4034  1.8644 -1.6776
18449TIP3    H276839   3.604   5.137   4.905 -4.1290 -0.2550 -0.1268
18450TIP3   OH276840   4.191   0.861   3.338  0.0453 -0.2412  0.1175
18450TIP3    H176841   4.117   0.843   3.281 -0.4945 -1.3788  1.1398
18450TIP3    H276842   4.236   0.935   3.296 -0.6096 -0.7137 -1.4880
18451TIP3   OH276843   3.393   2.491  15.047 -0.5418  0.6566 -0.3332
18451TIP3    H176844   3.350   2.526  15.125  2.8226 -1.6460  2.9056
18451TIP3    H276845   3.339   2.416  15.022 -0.9310  0.5746  0.7009
18452TIP3   OH276846   2.009   2.188   4.123 -0.1517 -0.0556 -0.3110
18452TIP3    H176847   2.093   2.223   4.094  0.0464 -0.1693  0.1176
18452TIP3    H276848   1.995   2.110   4.070  0.3448 -0.4266  0.0997
18453TIP3   OH276849   4.657   0.890   5.158 -0.1377  0.0701  0.1109
18453TIP3    H176850   4.657   0.924   5.069  1.1068  1.1935  0.5023
18453TIP3    H276851   4.658   0.968   5.213  0.4199 -0.6076  1.0949
18454TIP3   OH276852   5.949   6.322   3.499  0.3062  0.3605  0.1791
18454TIP3    H176853   5.988   6.307   3.413  1.0857  0.3345  0.5304
18454TIP3    H276854   5.905   6.406   3.491  0.8869  0.6419 -0.0642
18455TIP3   OH276855   3.360   1.759   3.611  0.2778  0.3073  0.4536
18455TIP3    H176856   3.377   1.741   3.518 -0.9817 -0.0955  0.2768
18455TIP3    H276857   3.364   1.854   3.618  0.8460  0.3142  0.0854
18456TIP3   OH276858   5.427   2.803   4.142 -0.2243 -0.3175 -0.4662
18456TIP3    H176859   5.397   2.736   4.081 -2.9034 -0.5298  0.9257
18456TIP3    H276860   5.356   2.866   4.146  1.4172  1.6328 -0.2577
18457TIP3   OH276861   4.467   2.163  12.866  0.3324 -0.1433 -0.0896
18457TIP3    H176862   4.392   2.218  12.885 -0.2345 -0.9315 -0.0011
18457TIP3    H276863   4.430   2.078  12.842  1.2247 -1.1200  1.7943
18458TIP3   OH276864   2.539   5.583   4.996  0.0681  0.2916  0.5169
18458TIP3    H176865   2.512   5.556   5.084  1.0573  0.5660  0.9203
18458TIP3    H276866   2.628   5.614   5.008  0.2778  0.1477 -0.6308
18459TIP3   OH276867   5.885   3.609   2.268 -0.0767  0.0878 -0.1213
18459TIP3    H176868   5.803   3.563   2.285 -0.2376  0.2295 -0.5093
18459TIP3    H276869   5.948   3.539   2.250 -0.4800  0.0275 -1.3995
18460TIP3   OH276870   0.630   5.804  14.017  0.5538  0.5230 -0.1734
18460TIP3    H176871   0.708   5.844  13.977  0.2359  2.9615  1.4585
18460TIP3    H276872   0.616   5.854  14.097 -2.3237 -0.2912 -0.0742
18461TIP3   OH276873   1.702   2.244  13.286  0.1497  0.5930 -0.5707
18461TIP3    H176874   1.701   2.307  13.358 -0.9691  0.1960 -0.2133
18461TIP3    H276875   1.622   2.263  13.237 -0.0717 -0.3763 -0.6024
18462TIP3   OH276876   0.902   2.824   5.646 -0.5680  0.2028  0.2485
18462TIP3    H176877   0.884   2.772   5.568 -0.5982  1.9542 -0.9458
18462TIP3    H276878   0.996   2.814   5.661 -0.6596 -0.5923  0.3534
18463TIP3   OH276879   5.360   1.652   2.278 -0.1491 -0.1835  0.0045
18463TIP3    H176880   5.298   1.715   2.315 -1.3090 -1.9301  1.2291
18463TIP3    H276881   5.408   1.619   2.354 -0.6882 -1.9055 -0.3584
18464TIP3   OH276882   2.045   5.378  17.318  0.2203 -0.2900  0.1500
18464TIP3    H176883   1.983   5.425  17.374  0.8741  0.8151 -0.0290
18464TIP3    H276884   1.998   5.299  17.291 -1.5462  1.0176 -0.8526
18465TIP3   OH276885   2.713   6.028   3.689 -0.2308 -0.4256 -0.4060
18465TIP3    H176886   2.629   5.998   3.725 -0.2402 -0.9218 -0.8324
18465TIP3    H276887   2.697   6.120   3.666 -1.0804 -0.8966 -1.7611
18466TIP3   OH276888   0.895   3.782  16.928  0.2236  0.1465  0.3053
18466TIP3    H176889   0.884   3.765  17.021  0.0935  1.9302  0.6567
18466TIP3    H276890   0.845   3.714  16.884 -2.1135  0.9098  1.6092
18467TIP3   OH276891   3.850   6.350   5.407 -0.5710  0.2724  0.3464
18467TIP3    H176892   3.779   6.407   5.377  0.3407  1.8237  1.0135
18467TIP3    H276893   3.820   6.316   5.491 -0.9923 -0.0095  0.0881
18468TIP3   OH276894   2.597   4.518  11.714 -0.1824  0.0086 -0.6870
18468TIP3    H176895   2.535   4.549  11.649  0.5123  0.5273 -1.1166
18468TIP3    H276896   2.553   4.533  11.798 -0.9416 -0.3542 -1.0068
18469TIP3   OH276897   3.780   2.733  12.034  0.3422 -0.1227 -0.4183
18469TIP3    H176898   3.731   2.726  12.116  0.7612 -0.1435 -0.1673
18469TIP3    H276899   3.755   2.655  11.985  0.2704 -0.2323 -0.2095
18470TIP3   OH276900   4.602   2.442  16.309  0.3719  0.0082  0.6016
18470TIP3    H176901   4.665   2.474  16.245 -0.8139 -0.2027 -0.7266
18470TIP3    H276902   4.517   2.468  16.274 -0.3091  0.4293  2.4129
18471TIP3   OH276903   4.951   2.668   4.426 -0.2567  0.1682  0.2687
18471TIP3    H176904   4.930   2.574   4.427  2.3170 -0.5046  2.0837
18471TIP3    H276905   4.980   2.685   4.337 -0.9148 -0.7134 -0.1302
18472TIP3   OH276906   4.769   6.536   2.241 -0.6124  0.1042 -0.2046
18472TIP3    H176907   4.849   6.487   2.260 -1.3074 -1.2443 -0.6651
18472TIP3    H276908   4.719   6.479   2.183 -2.0971  0.7582  0.3990
18473TIP3   OH276909   6.408   4.354   3.965 -0.0196  0.2923  0.2885
18473TIP3    H176910   6.390   4.448   3.967  1.8847  0.6863  0.9889
18473TIP3    H276911   6.341   4.315   4.022 -0.5828  1.2604  0.3003
18474TIP3   OH276912   0.078   3.587   0.924 -0.2942  0.3432 -0.7836
18474TIP3    H176913   0.036   3.630   0.999  1.9127  0.4429  0.4553
18474TIP3    H276914   0.073   3.652   0.854  1.3235  1.9679  0.5166
18475TIP3   OH276915   3.894   1.019  13.575 -0.0892  0.2748  0.0824
18475TIP3    H176916   3.820   1.080  13.586 -1.2065 -1.0238  0.0619
18475TIP3    H276917   3.883   0.986  13.486 -0.9286 -1.7254  0.8803
18476TIP3   OH276918   5.186   6.177  12.588 -0.4378  0.4192 -0.5897
18476TIP3    H176919   5.117   6.223  12.540 -2.1029  0.6451  1.7944
18476TIP3    H276920   5.177   6.209  12.678  1.8527 -0.6868  0.1130
18477TIP3   OH276921   6.077   3.080   1.971 -0.3632  0.0570  0.1864
18477TIP3    H176922   6.046   2.990   1.982  0.6973 -0.4396 -0.7567
18477TIP3    H276923   6.111   3.083   1.882  0.7926  1.0423  0.6398
18478TIP3   OH276924   0.861   1.142   0.140 -0.1453  0.0500  0.4677
18478TIP3    H176925   0.814   1.140   0.057  0.0909  1.7249  0.2574
18478TIP3    H276926   0.946   1.104   0.121 -1.2428 -2.8659  0.8122
18479TIP3   OH276927   4.302   4.641   6.062  0.2610  0.1776  0.2751
18479TIP3    H176928   4.263   4.582   5.998 -0.4636  0.6185  0.2932
18479TIP3    H276929   4.280   4.602   6.147 -0.6174  0.6838  0.3024
18480TIP3   OH276930   4.178   3.000  16.095  0.1182  0.2469  0.1725
18480TIP3    H176931   4.179   2.959  16.008 -0.5984  3.7605 -1.7005
18480TIP3    H276932   4.091   2.981  16.130  0.2043 -0.7201 -0.1160
18481TIP3   OH276933   5.336   5.094   2.193  0.2762 -0.6421 -0.2509
18481TIP3    H176934   5.329   5.154   2.119  0.6263 -1.5606 -1.0556
18481TIP3    H276935   5.247   5.091   2.230  0.3336  0.6105  0.0103
18482TIP3   OH276936   0.245   4.728  17.047 -0.3028  0.0079  0.7647
18482TIP3    H176937   0.337   4.740  17.023  0.0863 -0.7912  1.7788
18482TIP3    H276938   0.233   4.634  17.051 -1.8039  0.0216 -1.5711
18483TIP3   OH276939   4.981   6.050  14.941  0.2838 -0.4353  0.3089
18483TIP3    H176940   5.076   6.065  14.942  0.5800 -2.0523  1.3750
18483TIP3    H276941   4.969   5.977  14.880 -0.5272  0.8684 -1.1677
18484TIP3   OH276942   0.668   2.428   3.366 -0.1679 -0.0361 -0.1116
18484TIP3    H176943   0.594   2.452   3.309  0.0844  0.7274 -0.1262
18484TIP3    H276944   0.630   2.370   3.431 -1.0438  1.2999  0.5995
18485TIP3   OH276945   2.947   2.509   4.342 -0.7615  0.2516  0.0856
18485TIP3    H176946   2.963   2.602   4.358 -1.4023  0.0495  2.2622
18485TIP3    H276947   2.860   2.507   4.301 -0.8612  0.6143  0.2711
18486TIP3   OH276948   2.970   2.630   5.871 -0.4985  0.0162  0.4774
18486TIP3    H176949   2.901   2.573   5.837 -0.5893 -0.6454  1.6789
18486TIP3    H276950   2.929   2.676   5.944  0.4277 -0.7255  1.5045
18487TIP3   OH276951   2.062   5.418   3.801 -0.1751 -0.0835  0.0728
18487TIP3    H176952   2.078   5.477   3.875  0.4374 -0.4575  0.2527
18487TIP3    H276953   2.133   5.438   3.740 -1.9148  1.7919 -1.4589
18488TIP3   OH276954   5.432   0.728   1.693  0.0215  0.0233 -0.0483
18488TIP3    H176955   5.340   0.732   1.666 -0.0772 -1.3824 -0.0061
18488TIP3    H276956   5.429   0.689   1.781  0.6004  0.9042  0.3709
18489TIP3   OH276957   3.171   2.850  17.390 -0.2462  0.4515 -0.1942
18489TIP3    H176958   3.177   2.911  17.316  3.0897  1.2926  0.6144
18489TIP3    H276959   3.126   2.899  17.459 -0.3593  0.8510 -0.5506
18490TIP3   OH276960   0.577   2.338  13.497 -0.4243 -0.2679  0.1982
18490TIP3    H176961   0.655   2.299  13.538 -0.2216  0.0668  0.1341
18490TIP3    H276962   0.541   2.269  13.443  0.3712 -0.1323 -0.5219
18491TIP3   OH276963   1.651   6.037   6.638  0.5268 -0.2324 -0.7826
18491TIP3    H176964   1.581   5.978   6.610 -0.2521  0.6949 -0.8327
18491TIP3    H276965   1.655   6.104   6.569  0.6201  0.4025 -0.1688
18492TIP3   OH276966   1.509   4.978  11.512  0.1811 -0.1805 -0.1586
18492TIP3    H176967   1.487   4.948  11.424  0.0700 -0.8654  0.0954
18492TIP3    H276968   1.500   4.900  11.567 -1.3869  0.5848  0.7448
18493TIP3   OH276969   3.102   2.290   4.398 -0.0303 -0.3527 -0.0942
18493TIP3    H176970   3.062   2.253   4.477 -0.4490 -0.5303 -0.3881
18493TIP3    H276971   3.061   2.376   4.388 -0.4140 -0.5758 -0.4515
18494TIP3   OH276972   4.543   3.000  11.090  0.1683 -0.0948  0.3137
18494TIP3    H176973   4.509   3.031  11.174 -0.9184 -0.9567  0.2049
18494TIP3    H276974   4.629   2.964  11.112 -0.0400 -0.1753  1.0332
18495TIP3   OH276975   6.105   0.483   1.552 -0.1535  0.3051  1.1501
18495TIP3    H176976   6.018   0.480   1.591 -1.4668 -1.1570 -1.5280
18495TIP3    H276977   6.147   0.403   1.583 -1.0792 -0.7040 -0.0543
18496TIP3   OH276978   6.056   2.559   0.452  0.6510 -1.0252 -0.5608
18496TIP3    H176979   6.119   2.546   0.523 -1.0511  0.8161  1.4273
18496TIP3    H276980   6.001   2.480   0.454  0.6190 -0.9912  0.2115
18497TIP3   OH276981   0.188   2.722   3.257 -0.3885 -0.4666  0.6184
18497TIP3    H176982   0.188   2.727   3.353  0.8931  1.7558  0.5525
18497TIP3    H276983   0.242   2.645   3.238  0.5331 -0.1109  1.6741
18498TIP3   OH276984   4.619   3.870  12.703  0.0855 -0.4349  0.0285
18498TIP3    H176985   4.624   3.811  12.627  1.0429 -1.6093  0.9508
18498TIP3    H276986   4.525   3.881  12.718 -0.1269  0.0887 -1.5086
18499TIP3   OH276987   0.199   3.800  12.279  0.6709  0.2451  0.2889
18499TIP3    H176988   0.262   3.784  12.349  1.0708  1.9825  0.3738
18499TIP3    H276989   0.168   3.889  12.294 -1.3681 -0.3514 -0.1201
18500TIP3   OH276990   1.021   3.946  12.715  0.1867 -0.3456 -0.0374
18500TIP3    H176991   1.003   4.029  12.758 -1.0519 -0.9913  0.7605
18500TIP3    H276992   1.104   3.917  12.752  0.5767  0.4809 -0.2551
18501TIP3   OH276993   5.250   3.699   5.578  0.8183  0.2775  0.6472
18501TIP3    H176994   5.279   3.610   5.601 -2.3808 -0.8412  0.8897
18501TIP3    H276995   5.310   3.756   5.624  2.1321 -1.7913  1.6651
18502TIP3   OH276996   5.667   0.304  16.279  0.1605  0.7635 -0.3404
18502TIP3    H176997   5.694   0.283  16.190 -0.1920 -0.7961 -0.1085
18502TIP3    H276998   5.572   0.309  16.275  0.1593  0.9304 -0.1092
18503TIP3   OH276999   5.225   5.791  12.275 -0.0537 -0.0159  0.1801
18503TIP3    H177000   5.256   5.788  12.184 -2.1675  0.4753 -0.6174
18503TIP3    H277001   5.283   5.852  12.319  0.1911  0.7766 -1.2034
18504TIP3   OH277002   2.323   4.955  14.635 -0.0674  0.7550 -0.3385
18504TIP3    H177003   2.360   4.867  14.645 -0.5686  0.6326  0.5042
18504TIP3    H277004   2.281   4.973  14.719  1.5602  2.5303  0.1553
18505TIP3   OH277005   2.224   5.963  13.845  0.3866  0.2773 -0.2076
18505TIP3    H177006   2.226   5.980  13.939  1.2574 -0.2328 -0.1202
18505TIP3    H277007   2.150   6.014  13.813  1.6176  2.6163  0.3537
18506TIP3   OH277008   6.598   2.010   4.996  0.6401  0.8007  0.3930
18506TIP3    H177009   6.629   1.921   5.013  0.8964  1.0099  1.0353
18506TIP3    H277010   6.657   2.066   5.046  0.2751  1.3160  0.2523
18507TIP3   OH277011   1.235   1.827   3.249 -0.0803  0.5470  0.2468
18507TIP3    H177012   1.294   1.847   3.323 -0.3076 -0.2739  0.6633
18507TIP3    H277013   1.155   1.797   3.290  0.0072 -0.5231 -0.3395
18508TIP3   OH277014   5.587   2.604   0.338 -0.1948  0.1303  0.2711
18508TIP3    H177015   5.559   2.556   0.416 -1.9333  0.4027 -0.1466
18508TIP3    H277016   5.547   2.691   0.347  1.3775  0.9243  0.1049
18509TIP3   OH277017   5.453   1.990   4.420 -0.0092  0.1441 -0.6093
18509TIP3    H177018   5.418   1.973   4.508  0.5920  1.1459 -0.1691
18509TIP3    H277019   5.533   1.938   4.416  0.2669  0.5499 -0.3548
18510TIP3   OH277020   3.865   5.539   3.174 -0.4671 -0.0816 -0.0235
18510TIP3    H177021   3.884   5.633   3.173  1.4243 -0.4190  0.8290
18510TIP3    H277022   3.803   5.527   3.102  0.9242  1.4972 -1.5744
18511TIP3   OH277023   0.926   1.748   3.354  0.3528 -0.1336 -0.4050
18511TIP3    H177024   0.938   1.683   3.424 -1.0488 -0.3595 -0.3501
18511TIP3    H277025   0.901   1.828   3.400  1.4711  0.2952 -0.5198
18512TIP3   OH277026   3.421   6.610   1.183 -0.1753  0.3908 -0.5751
18512TIP3    H177027   3.489   6.600   1.249 -1.6486 -2.2133  0.7217
18512TIP3    H277028   3.405   6.521   1.152 -1.3180  1.2434 -2.6230
18513TIP3   OH277029   1.548   4.696  17.348  0.2413  0.0165 -0.0584
18513TIP3    H177030   1.591   4.635  17.289  1.0668  1.4644 -1.0202
18513TIP3    H277031   1.483   4.643  17.395 -1.3068 -0.9989 -3.0836
18514TIP3   OH277032   1.832   4.171   2.684  0.0121  0.2228 -0.0810
18514TIP3    H177033   1.764   4.145   2.622 -1.3368 -2.3735  2.2371
18514TIP3    H277034   1.856   4.089   2.729  2.7688  1.5199  1.0594
18515TIP3   OH277035   5.837   5.037  16.018 -0.3701 -0.0234  0.2028
18515TIP3    H177036   5.772   5.106  16.029 -0.2184  0.3730 -1.1594
18515TIP3    H277037   5.917   5.073  16.056 -1.2057 -1.0645  3.2057
18516TIP3   OH277038   0.441   1.544   1.938 -0.0945  0.3750  0.3454
18516TIP3    H177039   0.425   1.473   2.000 -0.7330  2.7566  3.1937
18516TIP3    H277040   0.527   1.525   1.901 -0.7753 -2.4596 -0.0142
18517TIP3   OH277041   4.562   6.325  13.566  0.3274 -0.1756  0.1104
18517TIP3    H177042   4.576   6.376  13.487  0.9957 -3.3102 -1.9886
18517TIP3    H277043   4.643   6.334  13.615  2.2458 -2.4431 -2.3431
18518TIP3   OH277044   0.106   5.654  14.133 -0.2708  0.0168  0.9702
18518TIP3    H177045   0.065   5.626  14.051  0.3795  0.7837  0.3674
18518TIP3    H277046   0.082   5.586  14.196  0.9613 -1.7386 -0.3497
18519TIP3   OH277047   1.769   0.226   3.605 -0.1294  0.8907  0.2476
18519TIP3    H177048   1.770   0.244   3.699 -0.3058  3.3056 -0.1468
18519TIP3    H277049   1.846   0.271   3.571  0.1919 -0.3430 -0.7415
18520TIP3   OH277050   3.891   0.054  11.627  0.1434  0.2751 -0.6683
18520TIP3    H177051   3.848   0.106  11.558  0.8483 -0.1946 -1.4774
18520TIP3    H277052   3.895   0.113  11.702  0.0191  1.0570 -1.2605
18521TIP3   OH277053   3.775   6.692   4.917 -0.2465 -0.1531  0.4037
18521TIP3    H177054   3.769   6.771   4.864  1.4667  0.1536  0.6135
18521TIP3    H277055   3.792   6.622   4.854 -1.2308 -0.2820  0.2709
18522TIP3   OH277056   2.507   3.064  11.840 -0.0027  0.1045  0.6228
18522TIP3    H177057   2.537   3.148  11.805  2.6654 -1.4450 -1.1677
18522TIP3    H277058   2.537   3.065  11.931  0.4754  0.8948  0.4663
18523TIP3   OH277059   6.189   0.573   0.194 -0.2251 -0.1835  0.2389
18523TIP3    H177060   6.118   0.628   0.162 -0.5598 -0.9924 -0.4519
18523TIP3    H277061   6.234   0.544   0.114  0.2606 -0.4883  0.6200
18524TIP3   OH277062   6.664   4.329   4.062  0.1715  0.5996  0.6414
18524TIP3    H177063   6.592   4.312   4.003  1.5838 -1.4281 -0.6346
18524TIP3    H277064   6.738   4.352   4.005  1.4214 -0.8321  1.5915
18525TIP3   OH277065   5.526   1.933  13.692 -0.3645 -0.4624 -0.1406
18525TIP3    H177066   5.516   1.888  13.608  0.2067 -0.0613 -0.4271
18525TIP3    H277067   5.513   1.864  13.758  1.1224 -1.2009 -0.5839
18526TIP3   OH277068   4.843   2.991  15.903 -0.3509 -0.4206  0.7681
18526TIP3    H177069   4.902   2.957  15.970  0.4283  0.6085  0.6103
18526TIP3    H277070   4.756   2.961  15.931  0.0509 -0.6244  1.8356
18527TIP3   OH277071   0.675   6.031   4.124  0.0653  0.0699  0.8597
18527TIP3    H177072   0.747   5.968   4.131 -1.5538 -1.7075  2.8998
18527TIP3    H277073   0.603   5.979   4.089 -1.0098  1.0880  1.5179
18528TIP3   OH277074   4.078   6.405  11.676  0.1210  0.0155  0.0803
18528TIP3    H177075   3.986   6.415  11.650  0.1240 -1.6844 -0.6780
18528TIP3    H277076   4.110   6.495  11.685 -2.0231  0.6805  1.9714
18529TIP3   OH277077   2.743   2.894   2.622  0.3238  0.0614  0.3388
18529TIP3    H177078   2.657   2.855   2.605  0.3203  0.5303 -0.8903
18529TIP3    H277079   2.743   2.975   2.569  0.8731  0.9660  1.6683
18530TIP3   OH277080   0.151   2.172  12.477  0.6192  0.0049  0.7835
18530TIP3    H177081   0.060   2.195  12.496 -0.5712 -1.3440 -2.5053
18530TIP3    H277082   0.166   2.090  12.524  0.5263  0.7498  2.1587
18531TIP3   OH277083   2.381   4.343  12.706 -0.1992 -0.0113  0.4221
18531TIP3    H177084   2.294   4.317  12.738  0.2615  0.0844  1.8356
18531TIP3    H277085   2.441   4.318  12.777  0.9412 -0.1103 -0.5448
18532TIP3   OH277086   1.011   3.070  10.970 -0.0327  0.4592 -0.2334
18532TIP3    H177087   0.925   3.112  10.966 -0.2327  0.0180 -0.6285
18532TIP3    H277088   1.016   3.032  11.058 -0.4829 -0.0234 -0.4159
18533TIP3   OH277089   3.913   1.633  14.586 -0.3924 -0.4918 -0.2660
18533TIP3    H177090   3.836   1.685  14.609 -0.1726 -0.0375 -0.5410
18533TIP3    H277091   3.879   1.558  14.538 -0.7133 -0.6068  0.1382
18534TIP3   OH277092   5.837   1.521   2.883 -0.8987  0.0661 -0.5979
18534TIP3    H177093   5.805   1.532   2.972 -0.0067  1.2930 -0.4009
18534TIP3    H277094   5.794   1.442   2.851 -0.6567 -0.8071  1.1593
18535TIP3   OH277095   1.021   1.052  17.186 -1.0741  0.0851 -0.5279
18535TIP3    H177096   0.927   1.068  17.195 -0.6572  1.4287  2.3434
18535TIP3    H277097   1.059   1.138  17.168 -0.2169 -0.1335  0.1716
18536TIP3   OH277098   3.043   4.187  17.016 -0.1693 -0.0392 -0.8028
18536TIP3    H177099   3.114   4.139  17.059  0.7083  1.5464 -0.4180
18536TIP3    H277100   2.968   4.128  17.022  0.0981 -0.2554  2.2346
18537TIP3   OH277101   4.288   3.160   0.540  0.0808 -0.0375  0.1980
18537TIP3    H177102   4.234   3.191   0.467  0.4125 -0.5269 -0.2572
18537TIP3    H277103   4.240   3.188   0.618 -0.2491  0.5419 -0.1998
18538TIP3   OH277104   2.599   0.773   4.253  0.2519  0.1832 -0.6782
18538TIP3    H177105   2.526   0.833   4.271 -0.4203 -0.4147 -1.2944
18538TIP3    H277106   2.630   0.799   4.166 -0.0244 -0.3201 -0.9362
18539TIP3   OH277107   5.671   2.878  11.120 -0.0537  0.4517 -0.0924
18539TIP3    H177108   5.707   2.947  11.064  0.6547 -0.0962 -0.3248
18539TIP3    H277109   5.733   2.873  11.193 -1.3180  1.6288  1.1354
18540TIP3   OH277110   5.185   1.988  14.092  0.2985 -0.5189 -0.2229
18540TIP3    H177111   5.222   1.927  14.156  2.0087  0.2505 -0.4139
18540TIP3    H277112   5.168   2.068  14.143  0.7624 -0.2242 -0.5210
18541TIP3   OH277113   0.136   2.302   4.139  0.0093 -0.0066 -0.4926
18541TIP3    H177114   0.067   2.326   4.077 -0.5441  0.4292  0.2643
18541TIP3    H277115   0.207   2.364   4.121 -0.6110  0.9060  0.0731
18542TIP3   OH277116   4.803   0.124  11.837 -0.1497  0.3586 -0.3602
18542TIP3    H177117   4.814   0.035  11.872  1.4482  1.4565  2.2187
18542TIP3    H277118   4.716   0.150  11.866 -0.8287 -0.4767 -1.5444
18543TIP3   OH277119   4.754   5.180   6.080  0.0427 -0.7907  0.1103
18543TIP3    H177120   4.740   5.160   6.173 -0.7391  1.8621  0.6565
18543TIP3    H277121   4.838   5.139   6.059 -0.1111 -2.0714  1.7771
18544TIP3   OH277122   4.341   1.046   5.179 -0.1771  0.1323  0.0325
18544TIP3    H177123   4.320   1.137   5.198  0.8051  0.0887  1.4227
18544TIP3    H277124   4.266   1.015   5.127 -2.2259  0.7685  2.3811
18545TIP3   OH277125   2.657   2.991  12.523 -0.0874  0.0459 -0.1436
18545TIP3    H177126   2.600   2.996  12.446 -0.2048  0.0705 -0.0546
18545TIP3    H277127   2.672   2.897  12.535 -0.6175  0.0026  0.2077
18546TIP3   OH277128   4.353   5.356   6.109 -0.1741 -0.0315  0.1033
18546TIP3    H177129   4.306   5.279   6.076 -0.2196 -0.2694  0.7151
18546TIP3    H277130   4.424   5.320   6.161 -0.3072  0.3383  0.5496
18547TIP3   OH277131   6.763   5.393  14.611 -0.2207 -0.0727  0.3428
18547TIP3    H177132   6.767   5.361  14.701 -0.3950 -1.5301 -0.1443
18547TIP3    H277133   6.734   5.318  14.559 -2.5720  1.3491 -0.6152
18548TIP3   OH277134   5.328   5.572   5.696  0.5216 -0.3893  0.1014
18548TIP3    H177135   5.316   5.530   5.781  0.9107 -1.0262 -0.1514
18548TIP3    H277136   5.240   5.597   5.669  0.3555 -0.4941  0.5307
18549TIP3   OH277137   5.722   1.751  11.253  0.0126  0.2614  0.1351
18549TIP3    H177138   5.676   1.814  11.308 -2.1716 -0.7223 -0.4236
18549TIP3    H277139   5.656   1.725  11.188  0.9764 -2.2004  0.0593
18550TIP3   OH277140   4.046   3.015  17.346 -0.1601 -0.6668  0.1731
18550TIP3    H177141   3.985   2.944  17.324  0.1234 -0.5936 -0.9054
18550TIP3    H277142   4.077   2.993  17.433 -1.1821 -1.0915  0.4503
18551TIP3   OH277143   4.306   1.798   5.407 -0.0247 -0.0651 -0.2316
18551TIP3    H177144   4.370   1.848   5.357  0.1916 -0.1249 -0.0147
18551TIP3    H277145   4.248   1.865   5.446  0.0802  0.0008 -0.1894
18552TIP3   OH277146   6.215   4.371   1.403 -0.3515  0.6050 -0.4151
18552TIP3    H177147   6.187   4.411   1.321  1.1270  0.7812 -0.8613
18552TIP3    H277148   6.235   4.445   1.460 -3.0093  0.5200  0.7586
18553TIP3   OH277149   3.184   5.888   4.552  0.0185  0.0667  0.3659
18553TIP3    H177150   3.205   5.809   4.502 -1.3964  0.2894 -0.6420
18553TIP3    H277151   3.091   5.879   4.572 -0.1255  1.4203  0.3471
18554TIP3   OH277152   2.464   5.991  15.808 -0.8947 -0.3032 -0.6200
18554TIP3    H177153   2.434   5.952  15.891 -0.0556 -0.2471 -0.2809
18554TIP3    H277154   2.513   6.069  15.834 -2.4044  0.9283 -1.2890
18555TIP3   OH277155   3.497   3.687  10.891  0.5922 -0.3128 -0.3024
18555TIP3    H177156   3.414   3.643  10.908  0.2904  0.1483 -0.5734
18555TIP3    H277157   3.545   3.627  10.834  0.2285 -0.3406 -0.5797
18556TIP3   OH277158   3.960   6.714   0.378 -0.1909 -0.4748  0.2339
18556TIP3    H177159   3.880   6.668   0.406 -0.7447  0.1775 -0.2607
18556TIP3    H277160   3.960   6.705   0.283  0.8240 -1.2632  0.2872
18557TIP3   OH277161   6.774   3.645  16.470 -0.1600 -0.5848  0.0999
18557TIP3    H177162   6.803   3.641  16.562 -0.5171  0.5288  0.2733
18557TIP3    H277163   6.753   3.554  16.448  0.8810 -1.0170  0.8031
18558TIP3   OH277164   6.335   0.310  15.703  0.0419 -0.3960  0.3553
18558TIP3    H177165   6.354   0.372  15.632 -0.3864  0.6325  1.1223
18558TIP3    H277166   6.258   0.262  15.672 -0.2711  0.1939  0.2107
18559TIP3   OH277167   2.841   5.886  16.753 -0.2243 -0.1894 -0.5754
18559TIP3    H177168   2.747   5.881  16.773 -0.1091 -1.9444 -0.3312
18559TIP3    H277169   2.859   5.980  16.746 -1.8846  0.1969 -0.1023
18560TIP3   OH277170   6.623   2.437   5.834 -0.0385 -0.2818 -0.2086
18560TIP3    H177171   6.698   2.399   5.788 -0.3275  1.0170 -1.8386
18560TIP3    H277172   6.638   2.415   5.926  1.6999 -1.1023 -0.6453
18561TIP3   OH277173   5.230   3.925  10.945 -0.2564 -0.0498 -0.4605
18561TIP3    H177174   5.194   3.838  10.961  2.7321 -0.9691  2.2093
18561TIP3    H277175   5.258   3.922  10.853 -0.6577 -1.7198 -0.5715
18562TIP3   OH277176   4.674   5.867   1.390 -0.7868  0.6273 -1.0285
18562TIP3    H177177   4.637   5.814   1.460 -1.8124  0.3411 -1.7752
18562TIP3    H277178   4.608   5.934   1.373 -0.0894  1.3355 -1.0186
18563TIP3   OH277179   1.497   0.984   1.380  0.0057  0.0676  0.0130
18563TIP3    H177180   1.480   0.897   1.417  0.8299  0.9304  2.7063
18563TIP3    H277181   1.561   0.969   1.311  1.4111 -1.3604  1.5364
18564TIP3   OH277182   3.654   4.230  14.477 -0.0272 -0.0894  0.3744
18564TIP3    H177183   3.577   4.235  14.420 -0.5334 -0.1130  1.0398
18564TIP3    H277184   3.703   4.309  14.458 -0.9505  0.6517  0.9442
18565TIP3   OH277185   1.852   1.834  17.317 -0.2580  0.2402 -0.0168
18565TIP3    H177186   1.871   1.871  17.403 -1.8449 -0.5657  0.7433
18565TIP3    H277187   1.872   1.904  17.255 -0.0191  1.1774  1.0857
18566TIP3   OH277188   3.403   5.263  13.288 -0.1858 -0.2749  0.2799
18566TIP3    H177189   3.377   5.193  13.229 -0.3808  1.5173 -1.9079
18566TIP3    H277190   3.329   5.323  13.289  0.2780  0.3172  1.4458
18567TIP3   OH277191   5.857   0.627  11.278 -0.2655  0.0695 -0.3579
18567TIP3    H177192   5.766   0.603  11.296  0.2968 -0.3806  2.4716
18567TIP3    H277193   5.897   0.547  11.244 -0.8539  0.2093 -1.4116
18568TIP3   OH277194   4.181   4.000  14.556 -0.1836  0.2324 -0.2723
18568TIP3    H177195   4.152   3.919  14.599  0.0781  0.3715  0.1802
18568TIP3    H277196   4.105   4.058  14.563 -0.5628 -0.1575 -1.0940
18569TIP3   OH277197   6.175   0.764  12.201  0.4706 -0.1965 -0.4836
18569TIP3    H177198   6.205   0.730  12.116  2.3985 -0.0808  0.1033
18569TIP3    H277199   6.217   0.849  12.208  1.4997 -0.7967  1.1805
18570TIP3   OH277200   2.187   1.122  13.479 -0.2195 -0.1339  0.1518
18570TIP3    H177201   2.142   1.172  13.411 -0.1527 -0.6845 -0.2963
18570TIP3    H277202   2.170   1.030  13.458  0.0968 -0.3206  0.6747
18571TIP3   OH277203   3.994   4.373  10.917  0.4058  0.2233 -0.0825
18571TIP3    H177204   3.980   4.373  10.823  1.3530  1.3749 -0.2435
18571TIP3    H277205   3.988   4.466  10.942 -3.3594 -0.2500  1.5720
18572TIP3   OH277206   3.787   5.440   1.828 -0.5341  0.4803 -0.0266
18572TIP3    H177207   3.736   5.521   1.819 -0.5323  0.4261 -0.5851
18572TIP3    H277208   3.769   5.410   1.917 -0.9586  0.8170  0.0056
18573TIP3   OH277209   4.204   5.278   1.640 -0.2203  0.2166 -0.0761
18573TIP3    H177210   4.116   5.259   1.607 -0.3605  0.6727  0.0361
18573TIP3    H277211   4.207   5.373   1.648 -0.2808  0.1182  1.4556
18574TIP3   OH277212   1.024   1.107   6.177 -0.2247 -0.1468 -0.0472
18574TIP3    H177213   0.964   1.058   6.122 -0.3701  2.0474 -2.0258
18574TIP3    H277214   1.110   1.072   6.156 -0.4532 -0.6673 -0.1376
18575TIP3   OH277215   0.489   2.110   3.762 -0.2082  0.0156 -0.4688
18575TIP3    H177216   0.420   2.086   3.825  0.1985  1.2795  0.4905
18575TIP3    H277217   0.441   2.132   3.682 -0.7884 -0.8975 -0.3918
18576TIP3   OH277218   0.425   4.584   5.489 -0.2588 -0.6395 -0.1492
18576TIP3    H177219   0.334   4.612   5.479  0.3457  1.3599 -0.5131
18576TIP3    H277220   0.462   4.593   5.402  0.2561 -1.6191 -0.0406
18577TIP3   OH277221   1.319   1.464  11.910  0.3895  0.0906  0.6392
18577TIP3    H177222   1.274   1.398  11.857  0.0243  0.1025  0.9348
18577TIP3    H277223   1.410   1.460  11.880  0.0317  0.7004 -0.6136
18578TIP3   OH277224   1.293   4.805  13.903  0.2713 -0.4733  0.2890
18578TIP3    H177225   1.301   4.895  13.870  1.1726 -0.5509  0.2728
18578TIP3    H277226   1.229   4.765  13.845  1.9470 -0.6569 -1.5829
18579TIP3   OH277227   0.246   5.300   6.899  1.0223  0.2804 -0.1671
18579TIP3    H177228   0.308   5.318   6.970  0.2612  0.2866  0.5149
18579TIP3    H277229   0.186   5.374   6.900  0.0348 -0.4944  0.2666
18580TIP3   OH277230   3.557   2.229   5.221 -0.5521  0.3883  0.1219
18580TIP3    H177231   3.648   2.225   5.251 -0.4508  0.1384 -0.2198
18580TIP3    H277232   3.553   2.310   5.170  0.5858 -1.5884 -3.4314
18581TIP3   OH277233   1.069   6.672   1.425  0.4651 -0.3972  0.1282
18581TIP3    H177234   1.137   6.607   1.445  0.3242 -0.4440  0.4573
18581TIP3    H277235   0.996   6.620   1.391  0.4224 -0.3910  0.2116
18582TIP3   OH277236   2.471   1.905  12.516 -0.4065  0.2386  0.5815
18582TIP3    H177237   2.382   1.898  12.482 -0.4309  2.0382  0.2103
18582TIP3    H277238   2.474   1.989  12.561  0.8544 -0.1961  1.3729
18583TIP3   OH277239   5.623   1.416   4.874 -0.0773 -0.2058  0.0377
18583TIP3    H177240   5.706   1.441   4.835  0.1215 -0.7222  0.1214
18583TIP3    H277241   5.639   1.329   4.911 -0.7782 -0.5159 -0.3570
18584TIP3   OH277242   0.613   3.352   3.118 -0.1782  0.5262 -0.1789
18584TIP3    H177243   0.640   3.260   3.114  0.7697  0.7855 -0.0602
18584TIP3    H277244   0.519   3.349   3.136 -0.1761 -0.4184 -0.2806
18585TIP3   OH277245   4.308   5.555  14.353 -0.7575 -0.2515  0.7991
18585TIP3    H177246   4.356   5.634  14.329  1.0420 -1.3680  0.6099
18585TIP3    H277247   4.226   5.561  14.303  0.4804  0.2192 -1.2511
18586TIP3   OH277248   1.601   3.021  11.013 -0.5456 -0.1979  0.1430
18586TIP3    H177249   1.589   2.935  10.973 -1.6577  1.1529 -2.6899
18586TIP3    H277250   1.690   3.045  10.991 -1.2138  0.6279 -1.9362
18587TIP3   OH277251   2.809   5.154  15.315  0.0990  0.0090  0.0009
18587TIP3    H177252   2.857   5.072  15.328 -0.7214 -0.7382 -1.4673
18587TIP3    H277253   2.782   5.181  15.403  0.4894 -1.2377  0.5115
18588TIP3   OH277254   6.025   1.858   1.927  0.1140 -0.0187  0.2360
18588TIP3    H177255   5.983   1.927   1.875 -1.0207 -0.3645  0.6732
18588TIP3    H277256   6.003   1.777   1.882 -0.0760 -0.2413  0.7252
18589TIP3   OH277257   1.263   6.464   1.473 -0.2070  0.0653 -0.0740
18589TIP3    H177258   1.323   6.391   1.458  0.4795  0.7763 -0.8868
18589TIP3    H277259   1.320   6.541   1.481 -0.7859  0.3327  2.4096
18590TIP3   OH277260   3.801   3.626   6.338  0.4664  0.3227 -0.3046
18590TIP3    H177261   3.877   3.606   6.392  0.2501 -2.0200 -0.7581
18590TIP3    H277262   3.732   3.568   6.372 -0.3019  0.3876 -1.6896
18591TIP3   OH277263   3.195   4.472  14.025 -0.4910 -0.4921  0.1228
18591TIP3    H177264   3.223   4.390  14.067 -0.7998 -1.4896 -1.5268
18591TIP3    H277265   3.104   4.483  14.053  0.0254  0.2008  1.6574
18592TIP3   OH277266   5.429   6.046   3.737  0.3227 -0.6840  0.2687
18592TIP3    H177267   5.452   6.126   3.784  0.5504  0.2805 -1.4031
18592TIP3    H277268   5.374   5.997   3.798  0.7521  0.4103  1.5855
18593TIP3   OH277269   6.451   0.360  14.369  0.5077  0.1959  0.1978
18593TIP3    H177270   6.546   0.350  14.366  0.3820 -1.9427  1.4262
18593TIP3    H277271   6.427   0.386  14.280  2.1760  0.2554 -0.2727
18594TIP3   OH277272   1.365   0.258  16.086  0.0056  0.2584 -0.5756
18594TIP3    H177273   1.454   0.251  16.052 -0.2613 -0.4335 -1.1636
18594TIP3    H277274   1.375   0.295  16.174  0.9099 -0.2886 -0.4384
18595TIP3   OH277275   4.297   2.231   5.556 -0.2787 -0.0847 -0.1245
18595TIP3    H177276   4.284   2.231   5.651 -0.7779  0.6234 -0.1842
18595TIP3    H277277   4.229   2.289   5.523  0.6521  0.6404 -0.8051
18596TIP3   OH277278   2.625   4.319   2.158  0.0853  0.2659  0.3169
18596TIP3    H177279   2.650   4.256   2.091  1.9480 -0.3544  1.4885
18596TIP3    H277280   2.530   4.316   2.161  0.0454 -0.8088 -1.2152
18597TIP3   OH277281   3.127   4.510  13.570 -0.2638  0.0051 -0.3346
18597TIP3    H177282   3.077   4.429  13.575  0.4827 -0.3811  1.7365
18597TIP3    H277283   3.211   4.489  13.611  0.5560  1.4007 -1.2106
18598TIP3   OH277284   0.604   1.350  15.915 -0.6300 -0.1184 -0.3094
18598TIP3    H177285   0.662   1.298  15.859 -1.2360  0.4359 -1.4918
18598TIP3    H277286   0.594   1.298  15.995  0.1688 -0.9848 -0.7595
18599TIP3   OH277287   4.615   3.518  12.008 -0.3098  0.2086 -0.4753
18599TIP3    H177288   4.677   3.591  12.016 -0.7509  0.7256 -1.6695
18599TIP3    H277289   4.668   3.445  11.976 -0.1390  0.3944 -0.6177
18600TIP3   OH277290   3.700   6.271   0.306  0.2785  0.0911  0.1413
18600TIP3    H177291   3.684   6.242   0.395 -0.9621  0.3731  0.0215
18600TIP3    H277292   3.758   6.346   0.315 -1.0611  1.0650  0.8187
18601TIP3   OH277293   4.211   4.797  13.023  0.1993  0.3850  0.5164
18601TIP3    H177294   4.220   4.817  13.116 -0.0927  3.7264 -0.0774
18601TIP3    H277295   4.275   4.853  12.979  1.4210 -2.1881 -1.2989
18602TIP3   OH277296   0.693   2.281   5.344  0.4336  0.1003 -0.0131
18602TIP3    H177297   0.736   2.263   5.260 -0.2106 -0.1202 -0.3058
18602TIP3    H277298   0.758   2.258   5.410  0.4584 -1.1018 -0.4273
18603TIP3   OH277299   2.965   6.177  12.143  0.0832 -0.2467  0.0805
18603TIP3    H177300   3.007   6.092  12.129  1.3686  0.0753  1.6862
18603TIP3    H277301   2.886   6.157  12.193 -0.3046 -0.5999 -0.6568
18604TIP3   OH277302   0.989   2.653   0.955  0.1382 -0.4635  0.4668
18604TIP3    H177303   1.053   2.720   0.980 -0.2638 -0.5397  1.7792
18604TIP3    H277304   1.041   2.584   0.914  0.7314  0.0298  0.3772
18605TIP3   OH277305   3.297   0.061   2.121  0.2738 -0.3313  0.1654
18605TIP3    H177306   3.383   0.070   2.080  0.9940  4.1830  2.0328
18605TIP3    H277307   3.313   0.076   2.214 -2.6113  2.9348  0.3515
18606TIP3   OH277308   2.555   6.748  16.078  0.1275  0.3738  0.2199
18606TIP3    H177309   2.593   6.687  16.015  0.2262 -0.1647  0.7914
18606TIP3    H277310   2.584   6.835  16.048  0.0104  0.1422 -0.5790
18607TIP3   OH277311   4.545   3.055   4.941  0.2718  0.4604 -0.5527
18607TIP3    H177312   4.609   2.985   4.930  1.2784  1.2232  0.2163
18607TIP3    H277313   4.516   3.076   4.852  0.6479 -0.3013 -0.8571
18608TIP3   OH277314   0.306   0.745  13.624 -0.5994 -0.9802 -0.0712
18608TIP3    H177315   0.314   0.838  13.648 -2.0152 -0.2195 -2.2068
18608TIP3    H277316   0.225   0.716  13.666  0.2765 -1.5432  1.2957
18609TIP3   OH277317   2.670   6.295  13.284 -0.2300  0.2853  0.5492
18609TIP3    H177318   2.577   6.278  13.293 -1.1028  3.5630 -1.0757
18609TIP3    H277319   2.690   6.358  13.353  0.7325 -0.1076  0.6537
18610TIP3   OH277320   1.542   2.763  10.939  0.1888 -0.3453 -0.1503
18610TIP3    H177321   1.528   2.700  10.868 -0.6061 -1.5535  1.0275
18610TIP3    H277322   1.553   2.709  11.017  1.3344  0.9437  0.6166
18611TIP3   OH277323   5.077   1.656  16.540 -0.1466  0.3803 -0.0755
18611TIP3    H177324   5.032   1.585  16.587 -0.7150  0.2989 -0.7349
18611TIP3    H277325   5.157   1.616  16.507  0.0438  0.3236  0.4326
18612TIP3   OH277326   4.743   1.754  16.711  0.1309  0.0141 -0.0722
18612TIP3    H177327   4.738   1.849  16.703 -2.7639 -0.0556 -0.3267
18612TIP3    H277328   4.751   1.723  16.621 -2.4455  0.0082 -0.3768
18613TIP3   OH277329   5.617   1.845   3.260  0.2368 -0.0809 -0.1904
18613TIP3    H177330   5.547   1.906   3.238  0.8416  0.5816 -0.3158
18613TIP3    H277331   5.572   1.771   3.301 -0.4659  0.6577  0.4164
18614TIP3   OH277332   4.256   2.603   3.238  0.1601 -0.3280  0.2894
18614TIP3    H177333   4.300   2.687   3.250 -1.1434  0.3181  0.6548
18614TIP3    H277334   4.242   2.597   3.143  1.0687 -0.5701  0.1625
18615TIP3   OH277335   3.830   5.198  10.846 -0.8595  0.3858 -0.1713
18615TIP3    H177336   3.883   5.159  10.776 -0.4682 -0.3410  0.5230
18615TIP3    H277337   3.888   5.262  10.887  1.1312 -3.1516  3.2521
18616TIP3   OH277338   0.687   4.932  12.418  0.1129 -0.0063  0.1744
18616TIP3    H177339   0.617   4.923  12.353 -1.1447  2.6744  0.9742
18616TIP3    H277340   0.672   4.861  12.480 -0.8441 -0.4968 -0.5943
18617TIP3   OH277341   3.814   2.913   0.909  0.4166 -0.0652  0.2121
18617TIP3    H177342   3.746   2.971   0.874  0.7635 -0.4387 -1.1656
18617TIP3    H277343   3.781   2.884   0.994 -0.8644  0.2347 -0.1684
18618TIP3   OH277344   1.270   0.674  10.580 -0.1551  0.2315  0.0568
18618TIP3    H177345   1.194   0.663  10.522 -0.6436  1.9841  0.3056
18618TIP3    H277346   1.326   0.600  10.560 -1.0998 -0.1243 -1.4472
18619TIP3   OH277347   2.265   4.758   6.164  0.0601 -0.2116  0.2211
18619TIP3    H177348   2.349   4.797   6.190 -1.0221  0.9766  2.1816
18619TIP3    H277349   2.200   4.824   6.187 -1.6949 -2.3008  1.6407
18620TIP3   OH277350   4.744   0.327   3.595  0.2302 -0.0421 -0.0590
18620TIP3    H177351   4.662   0.342   3.547  0.9163  0.2314 -1.1735
18620TIP3    H277352   4.727   0.248   3.646 -1.2036  0.7836  0.8279
18621TIP3   OH277353   4.179   2.932  13.463  0.2927  0.4140 -0.0197
18621TIP3    H177354   4.244   2.974  13.407 -0.0355 -0.3431 -1.0063
18621TIP3    H277355   4.095   2.956  13.424 -0.0997  2.1139  1.7526
18622TIP3   OH277356   6.320   4.531  12.508  0.7953 -0.6419  0.2611
18622TIP3    H177357   6.255   4.591  12.473  1.1493 -0.4935 -0.1484
18622TIP3    H277358   6.270   4.455  12.536  0.5181 -0.8010 -0.6439
18623TIP3   OH277359   3.237   5.251   2.926  0.0216 -0.7901  0.4581
18623TIP3    H177360   3.282   5.297   2.997 -0.5051 -1.4947  1.2601
18623TIP3    H277361   3.144   5.259   2.947 -0.2523  0.4404 -1.0575
18624TIP3   OH277362   5.833   4.334  13.051  0.1393 -0.1801  0.5484
18624TIP3    H177363   5.847   4.362  12.961  3.1012 -1.1206  0.6185
18624TIP3    H277364   5.794   4.411  13.094  0.5678  0.9899 -1.0587
18625TIP3   OH277365   2.770   5.310  10.681  0.0875 -0.1810  0.3546
18625TIP3    H177366   2.707   5.377  10.708  0.4426  0.0504  0.6218
18625TIP3    H277367   2.744   5.287  10.592  1.1263  1.7600 -0.5286
18626TIP3   OH277368   6.736   2.501  14.933 -0.0074  0.0633 -0.3083
18626TIP3    H177369   6.786   2.559  14.990 -0.8651 -0.4265  0.9906
18626TIP3    H277370   6.732   2.418  14.980 -0.0664 -0.6015 -1.4518
18627TIP3   OH277371   0.895   4.189  12.798  0.6662  0.0270  0.4373
18627TIP3    H177372   0.849   4.242  12.863  1.0138 -0.3668  1.0052
18627TIP3    H277373   0.825   4.142  12.752  0.4803 -0.5029  1.2420
18628TIP3   OH277374   5.044   0.676   3.384  0.1350  0.1867  0.0725
18628TIP3    H177375   4.990   0.677   3.463  0.4624 -0.3529  0.3086
18628TIP3    H277376   5.047   0.584   3.357 -0.9373  0.5019 -1.2497
18629TIP3   OH277377   0.056   5.245  13.905  1.0722  0.3125 -0.2096
18629TIP3    H177378  -0.034   5.260  13.935  1.7711  2.0999  1.1595
18629TIP3    H277379   0.046   5.203  13.820 -1.0690  0.8575 -0.2829
18630TIP3   OH277380   4.481   1.522  17.236  0.2141 -0.7715 -0.1680
18630TIP3    H177381   4.575   1.517  17.224  0.4158 -1.3549  1.4397
18630TIP3    H277382   4.467   1.508  17.329 -1.4226  0.0331 -0.2451
18631TIP3   OH277383   5.884   3.713  11.799  0.7264  0.1949  0.3147
18631TIP3    H177384   5.829   3.661  11.858  1.3104 -0.5013  0.2666
18631TIP3    H277385   5.953   3.652  11.772  1.1491  0.8657 -0.1313
18632TIP3   OH277386   1.296   2.544   4.535  0.0469  0.3723  0.3316
18632TIP3    H177387   1.315   2.478   4.602  1.6473  1.2786  0.8253
18632TIP3    H277388   1.226   2.597   4.572  0.8147  0.7695  1.2623
18633TIP3   OH277389   3.960   0.582  10.811 -0.0071  0.5761  0.1827
18633TIP3    H177390   3.988   0.502  10.766 -1.0587  0.2637  0.0566
18633TIP3    H277391   4.019   0.589  10.886  0.7800  0.2692 -0.3950
18634TIP3   OH277392   4.517   2.935  13.317  0.1522  0.1046 -0.3213
18634TIP3    H177393   4.514   3.008  13.380 -2.3243 -0.3518  0.1897
18634TIP3    H277394   4.547   2.860  13.368  1.3424  0.4236 -0.5178
18635TIP3   OH277395   2.490   2.184  13.168 -0.0995 -0.1266 -0.7708
18635TIP3    H177396   2.484   2.104  13.220  2.3425  0.7031  0.9898
18635TIP3    H277397   2.435   2.247  13.214  1.5321  0.4126  0.5604
18636TIP3   OH277398   2.047   4.333   3.650 -0.1315  0.4222 -0.1660
18636TIP3    H177399   2.046   4.292   3.564 -0.8913  0.4015 -0.1487
18636TIP3    H277400   1.984   4.404   3.644  1.9326  2.3559 -0.5478
18637TIP3   OH277401   2.418   2.656   6.481  0.0040 -0.2712  0.0450
18637TIP3    H177402   2.328   2.689   6.489 -1.1622 -3.0584 -0.1078
18637TIP3    H277403   2.469   2.731   6.451 -2.1997  1.5071  0.4378
18638TIP3   OH277404   2.026   0.245  12.269  0.2919 -0.1452  0.0895
18638TIP3    H177405   1.991   0.329  12.300 -0.2362  0.4318 -1.9248
18638TIP3    H277406   2.085   0.269  12.197 -1.4944 -1.5853 -1.9705
18639TIP3   OH277407   6.314   2.715   5.803 -0.0847  0.7739  0.1586
18639TIP3    H177408   6.252   2.788   5.805 -0.9754  0.0308  2.4071
18639TIP3    H277409   6.400   2.755   5.817 -0.5727  1.4037  1.4996
18640TIP3   OH277410   5.398   3.567   1.521 -0.5223  0.3180  0.9027
18640TIP3    H177411   5.332   3.501   1.544  0.1232 -0.9791 -0.7567
18640TIP3    H277412   5.390   3.577   1.426  0.8785  1.0131  0.8286
18641TIP3   OH277413   3.532   3.431  12.829 -0.2241  0.0085  0.3997
18641TIP3    H177414   3.457   3.380  12.801 -0.6172 -0.7239  2.5557
18641TIP3    H277415   3.506   3.467  12.914  2.0530 -0.7834  1.5021
18642TIP3   OH277416   2.410   1.442  16.739  0.4943  0.2382 -0.2573
18642TIP3    H177417   2.479   1.508  16.743  1.3026 -0.6611  2.1174
18642TIP3    H277418   2.330   1.491  16.759  0.9852  0.6333  0.7913
18643TIP3   OH277419   4.421   6.750   0.507  0.3681  0.3128  0.7179
18643TIP3    H177420   4.339   6.739   0.556 -0.9703 -2.0142 -1.7302
18643TIP3    H277421   4.393   6.785   0.422  1.6912 -1.5161 -0.5487
18644TIP3   OH277422   4.327   2.312   1.631 -0.2479 -0.5978 -0.1504
18644TIP3    H177423   4.358   2.402   1.645  0.2536 -0.5422 -1.5363
18644TIP3    H277424   4.242   2.310   1.674  0.2796  0.1670  0.9901
18645TIP3   OH277425   1.547   6.424  11.131  0.1089  0.2797 -0.1039
18645TIP3    H177426   1.484   6.494  11.145 -0.3427 -0.1785  0.1575
18645TIP3    H277427   1.604   6.457  11.061  0.9580  1.6322  1.1543
18646TIP3   OH277428   5.848   2.176   2.931 -0.0445  0.3186  0.0899
18646TIP3    H177429   5.939   2.149   2.932 -0.2044 -0.2962 -0.5398
18646TIP3    H277430   5.833   2.207   2.841 -0.6798 -0.4585 -0.0890
18647TIP3   OH277431   3.589   1.599   0.919  0.3574 -0.1814 -0.2592
18647TIP3    H177432   3.670   1.548   0.922  0.7403  0.4276 -0.2327
18647TIP3    H277433   3.519   1.533   0.922  0.8391 -0.6761  0.5282
18648TIP3   OH277434   5.977   2.660   1.126  0.0827 -0.1810 -0.3945
18648TIP3    H177435   5.897   2.712   1.114 -1.3848 -2.1626  0.2822
18648TIP3    H277436   5.983   2.607   1.047  0.1876 -0.7097 -0.0370
18649TIP3   OH277437   1.378   6.607   0.420  0.3409  0.4807 -0.1321
18649TIP3    H177438   1.322   6.664   0.473 -0.5880 -0.1568 -0.4047
18649TIP3    H277439   1.385   6.652   0.336 -0.2898  0.2695 -0.3067
18650TIP3   OH277440   4.602   5.954   3.724  0.0768 -0.0723  0.3772
18650TIP3    H177441   4.692   5.964   3.757  0.0918 -1.2216  0.7590
18650TIP3    H277442   4.606   5.875   3.669 -0.4544  0.5347 -0.5678
18651TIP3   OH277443   1.120   5.674   4.046 -0.4922 -0.3301  0.4309
18651TIP3    H177444   1.172   5.693   4.124 -0.0741  0.1288  0.0552
18651TIP3    H277445   1.184   5.639   3.983 -0.9477 -1.3703  0.5255
18652TIP3   OH277446   3.755   3.913  11.686 -0.1877 -0.1332  0.5199
18652TIP3    H177447   3.665   3.896  11.712 -0.6256  0.7334 -0.3618
18652TIP3    H277448   3.771   4.003  11.713 -0.4098  0.5358 -1.4560
18653TIP3   OH277449   0.190   5.418   1.966 -0.1097  0.6904  0.3818
18653TIP3    H177450   0.118   5.421   1.903  0.7723  1.3350 -0.6338
18653TIP3    H277451   0.193   5.506   2.003 -0.5088  0.3638  1.2176
18654TIP3   OH277452   0.417   6.259  11.962 -0.1715  0.0333  0.3537
18654TIP3    H177453   0.351   6.290  11.901 -1.7808 -1.5897  1.1674
18654TIP3    H277454   0.393   6.167  11.979  2.0153 -0.4689  1.0596
18655TIP3   OH277455   0.452   1.317   0.613 -0.2382  0.2047 -0.1854
18655TIP3    H177456   0.500   1.322   0.530  0.8229 -3.0395  0.0824
18655TIP3    H277457   0.385   1.250   0.597  0.1554 -0.6642  1.6169
18656TIP3   OH277458   1.611   2.653  17.321 -0.3343  0.0745  0.5238
18656TIP3    H177459   1.521   2.637  17.295  0.3806 -0.1784 -2.0952
18656TIP3    H277460   1.661   2.651  17.239  2.0400  0.3589  1.8505
18657TIP3   OH277461   4.905   2.303   0.203  0.4575  0.0544  0.1170
18657TIP3    H177462   4.832   2.357   0.173 -1.3343 -1.2374  1.8901
18657TIP3    H277463   4.978   2.364   0.215  0.7692  0.9843 -4.6398
18658TIP3   OH277464   5.234   2.112   5.416  0.1482 -0.2013  0.1591
18658TIP3    H177465   5.313   2.109   5.361  0.8426  0.3255  1.0872
18658TIP3    H277466   5.161   2.115   5.354  0.9618  2.8044 -0.8148
18659TIP3   OH277467   1.705   2.818   0.489  0.4549 -0.1833 -0.1936
18659TIP3    H177468   1.670   2.907   0.483 -0.7659 -0.6666 -0.4212
18659TIP3    H277469   1.729   2.808   0.581 -0.8615 -0.1413  0.1679
18660TIP3   OH277470   4.667   2.928  14.223 -0.4589  0.0069 -0.4702
18660TIP3    H177471   4.675   2.860  14.156 -0.8539  0.2327 -0.7554
18660TIP3    H277472   4.718   3.001  14.189  3.0285 -1.3010  1.4683
18661TIP3   OH277473   6.684   5.678  13.135 -0.0385  0.3992  0.2906
18661TIP3    H177474   6.745   5.619  13.091  0.5665  0.3220  1.2072
18661TIP3    H277475   6.690   5.760  13.086 -0.2160 -0.0133 -0.4400
18662TIP3   OH277476   6.631   1.096  13.927 -0.0671 -0.6153  0.0290
18662TIP3    H177477   6.540   1.116  13.947 -0.0533 -0.7266  0.1989
18662TIP3    H277478   6.641   1.120  13.834 -0.3278 -0.8189 -0.0495
18663TIP3   OH277479   2.702   5.551  13.774  0.9666  0.3953 -0.1733
18663TIP3    H177480   2.764   5.508  13.833 -0.1655 -0.2633  0.5888
18663TIP3    H277481   2.622   5.559  13.826 -0.7467 -2.0451 -2.1845
18664TIP3   OH277482   0.723   5.266   3.656  0.2640 -0.0058 -0.1293
18664TIP3    H177483   0.668   5.214   3.598 -1.2135  0.0121  1.1733
18664TIP3    H277484   0.666   5.338   3.684  1.6372  1.1939 -0.3468
18665TIP3   OH277485   3.986   0.486  12.612  0.1336 -0.0914 -0.4923
18665TIP3    H177486   4.061   0.427  12.619 -0.3422 -0.6271  0.2588
18665TIP3    H277487   3.919   0.434  12.569 -0.1556  0.0286 -0.1905
18666TIP3   OH277488   5.456   4.792   1.384 -0.2273  0.1120  0.1250
18666TIP3    H177489   5.432   4.855   1.316  0.4105  1.0422  0.7439
18666TIP3    H277490   5.430   4.835   1.466  0.8930 -0.0968  0.6087
18667TIP3   OH277491   5.722   6.214   2.617 -0.5091  0.0668  0.6368
18667TIP3    H177492   5.789   6.217   2.550 -0.1871 -0.8968  0.8989
18667TIP3    H277493   5.664   6.142   2.590 -0.2020 -0.5360  1.5316
18668TIP3   OH277494   2.653   5.445  14.569 -0.0640 -0.0908 -0.1700
18668TIP3    H177495   2.667   5.350  14.565  0.5457 -0.2002  2.4810
18668TIP3    H277496   2.696   5.472  14.650 -3.4386  1.7987  1.2291
18669TIP3   OH277497   3.154   0.855   5.638 -0.1201 -0.2711 -0.3431
18669TIP3    H177498   3.240   0.833   5.602  0.0199 -0.8570  0.3185
18669TIP3    H277499   3.094   0.795   5.594 -0.7199  2.0985 -3.0693
18670TIP3   OH277500   2.557   4.519   4.092  0.2032  0.0120  0.5108
18670TIP3    H177501   2.603   4.438   4.113  3.4628  1.6994  0.5580
18670TIP3    H277502   2.515   4.501   4.008  2.6734 -1.1499 -0.5826
18671TIP3   OH277503   3.611   3.577  11.878 -0.2922  0.0964  0.1998
18671TIP3    H177504   3.694   3.608  11.842 -1.3258 -1.7997 -4.5463
18671TIP3    H277505   3.619   3.481  11.878 -1.9172 -0.0811  1.2035
18672TIP3   OH277506   5.585   2.997  12.828 -0.6586 -0.0309 -0.0223
18672TIP3    H177507   5.659   3.007  12.768 -0.1247  0.9901  0.7705
18672TIP3    H277508   5.508   2.996  12.772 -0.0377 -1.6186 -0.9115
18673TIP3   OH277509   0.736   3.871  13.107 -0.3386  0.2334 -0.3674
18673TIP3    H177510   0.743   3.841  13.198 -1.6419 -1.2630 -0.7045
18673TIP3    H277511   0.817   3.919  13.091  0.8250 -1.1537  0.9981
18674TIP3   OH277512   1.567   2.809   2.817  0.2082 -0.0886  0.4575
18674TIP3    H177513   1.629   2.790   2.887 -0.0475 -0.7494  0.5103
18674TIP3    H277514   1.524   2.725   2.799 -1.3920  0.5622  1.1061
18675TIP3   OH277515   3.521   6.687   5.106  0.4203  0.5819  0.1647
18675TIP3    H177516   3.547   6.710   5.017  0.3628 -1.1696 -0.3517
18675TIP3    H277517   3.598   6.704   5.160  2.1643 -2.6302 -1.0050
18676TIP3   OH277518   3.064   6.130   0.500 -0.6372 -0.0950 -0.4243
18676TIP3    H177519   3.091   6.039   0.487  2.6848  0.0649  3.4733
18676TIP3    H277520   3.086   6.173   0.417 -0.2882 -2.3772 -1.6152
18677TIP3   OH277521   2.700   0.843   3.529  0.0668 -0.2193 -0.4813
18677TIP3    H177522   2.666   0.819   3.615 -0.2101  1.6640 -0.0271
18677TIP3    H277523   2.708   0.760   3.482 -0.6571 -1.1795  1.0369
18678TIP3   OH277524   3.129   1.547   6.396 -0.0578  0.1140  0.0963
18678TIP3    H177525   3.210   1.506   6.366 -1.2986 -1.3946 -1.4222
18678TIP3    H277526   3.123   1.524   6.489  1.2703  0.3128  0.2443
18679TIP3   OH277527   1.134   1.803  16.838  0.5302  0.3453  0.5741
18679TIP3    H177528   1.101   1.743  16.770  0.3682  1.4018 -0.3047
18679TIP3    H277529   1.058   1.856  16.861  0.4492 -0.3357  1.9912
18680TIP3   OH277530   5.157   6.441   4.823 -0.1494  0.0010  0.7039
18680TIP3    H177531   5.213   6.432   4.746  0.1126  0.7178  0.8087
18680TIP3    H277532   5.145   6.351   4.853 -2.8979 -0.7064 -2.0141
18681TIP3   OH277533   2.530   4.611  16.876 -0.1205 -0.8255 -0.2178
18681TIP3    H177534   2.508   4.526  16.837  1.2343 -0.6512 -1.4651
18681TIP3    H277535   2.556   4.590  16.966  0.0763 -1.7302 -0.4729
18682TIP3   OH277536   4.591   6.453  10.576 -0.0617 -0.3719 -0.3825
18682TIP3    H177537   4.681   6.485  10.569  0.1222 -1.0621 -1.1965
18682TIP3    H277538   4.538   6.524  10.540  0.2332 -0.3571 -0.7978
18683TIP3   OH277539   3.505   1.383  16.939  0.0535  0.2908  0.5108
18683TIP3    H177540   3.504   1.290  16.962 -0.3706  0.5229  1.4920
18683TIP3    H277541   3.579   1.420  16.988 -1.9570  1.1483  3.1305
18684TIP3   OH277542   2.516   1.362  12.978  0.5853 -0.5761  0.0406
18684TIP3    H177543   2.530   1.343  12.885 -1.3927  0.8406 -0.6003
18684TIP3    H277544   2.549   1.451  12.990  0.6161 -0.6628  0.6516
18685TIP3   OH277545   3.765   6.215   4.142 -0.4572  0.0865 -0.2661
18685TIP3    H177546   3.809   6.263   4.073  0.8024  1.0553  1.1569
18685TIP3    H277547   3.672   6.235   4.130 -0.0648  2.0375 -0.3813
18686TIP3   OH277548   2.073   6.566   5.518 -0.0361 -0.4294 -0.1453
18686TIP3    H177549   2.016   6.498   5.481 -3.3990  2.3759 -0.6599
18686TIP3    H277550   2.070   6.637   5.454  1.3949  1.1330  1.4227
18687TIP3   OH277551   0.562   6.155  14.430  0.6724  0.5169  0.0698
18687TIP3    H177552   0.515   6.216  14.486  0.4451  0.3323  0.0814
18687TIP3    H277553   0.646   6.198  14.413  0.3162  1.0563 -0.3401
18688TIP3   OH277554   5.816   6.003  15.266 -0.1049  0.5839 -0.0139
18688TIP3    H177555   5.810   5.910  15.287  1.9494 -0.1947 -2.3246
18688TIP3    H277556   5.888   6.036  15.320  0.0133  0.5031 -0.1208
18689TIP3   OH277557   1.787   0.244   1.371  0.2207 -0.0166 -0.2932
18689TIP3    H177558   1.881   0.253   1.385  0.1433 -0.4369  0.5986
18689TIP3    H277559   1.776   0.243   1.276  1.2906 -1.6836 -0.4356
18690TIP3   OH277560   3.269   5.682  11.690  0.6290  0.2367  0.1241
18690TIP3    H177561   3.235   5.701  11.603  0.8966  0.2645  0.0249
18690TIP3    H277562   3.363   5.695  11.682  0.5778  0.9641  0.6096
18691TIP3   OH277563   5.528   0.448  15.493 -0.4734  0.1371 -0.3469
18691TIP3    H177564   5.573   0.365  15.478 -0.2939  0.4848 -1.9279
18691TIP3    H277565   5.440   0.423  15.520 -0.1899 -0.5536 -0.0339
18692TIP3   OH277566   0.561   5.500   3.551  0.0337 -0.3182  0.3834
18692TIP3    H177567   0.501   5.557   3.601  2.7148  0.7421  2.6535
18692TIP3    H277568   0.621   5.561   3.508  1.1090 -1.3747  0.3510
18693TIP3   OH277569   0.254   0.555   4.337  0.0493  0.0563 -0.6144
18693TIP3    H177570   0.303   0.523   4.260 -0.2375 -1.2749 -0.2743
18693TIP3    H277571   0.320   0.560   4.406 -0.1334 -1.0402 -0.3446
18694TIP3   OH277572   1.833   0.981  17.305 -0.0370  0.2654  0.0338
18694TIP3    H177573   1.818   0.895  17.345  0.0278  0.1711 -0.1433
18694TIP3    H277574   1.795   0.974  17.218  1.8789 -0.3201 -0.8150
18695TIP3   OH277575   4.181   4.627   0.345  0.4489 -0.5010  0.4086
18695TIP3    H177576   4.091   4.629   0.378  0.1075 -1.1137 -0.4411
18695TIP3    H277577   4.175   4.578   0.263  1.5839 -0.6661  0.4111
18696TIP3   OH277578   5.051   4.833   1.255 -0.1017  0.0808 -0.1714
18696TIP3    H177579   5.099   4.915   1.246  1.6017 -0.6993  1.2027
18696TIP3    H277580   4.974   4.844   1.199  0.2035  2.4954 -0.2414
18697TIP3   OH277581   4.590   4.272  15.349 -0.1980 -0.3285  0.0224
18697TIP3    H177582   4.647   4.333  15.303 -0.3358  0.0565  0.3613
18697TIP3    H277583   4.566   4.207  15.282  0.7399 -0.5781 -0.0871
18698TIP3   OH277584   1.844   1.378   2.835 -0.0583 -0.1362  0.1021
18698TIP3    H177585   1.845   1.282   2.832 -1.5453 -0.1437 -0.9035
18698TIP3    H277586   1.937   1.402   2.831  0.3895 -1.5289  1.0805
18699TIP3   OH277587   5.797   3.161   0.163  0.2343 -0.0993 -0.3608
18699TIP3    H177588   5.862   3.231   0.161 -1.1492  1.2167 -0.6109
18699TIP3    H277589   5.821   3.105   0.089  1.6161 -0.1678  0.0988
18700TIP3   OH277590   0.356   1.850   1.179  0.2867  0.6462  0.2785
18700TIP3    H177591   0.426   1.883   1.235  0.2451 -0.4507  1.0257
18700TIP3    H277592   0.399   1.782   1.125  0.4299  1.9884 -1.3850
18701TIP3   OH277593   1.031   5.837  11.616  0.1101  0.3147  0.2673
18701TIP3    H177594   0.955   5.877  11.573 -1.4335 -2.4892  0.1697
18701TIP3    H277595   1.060   5.769  11.556  2.2900  0.8319  0.6562
18702TIP3   OH277596   5.528   1.471   5.287 -0.3965 -0.0798 -0.3993
18702TIP3    H177597   5.579   1.392   5.303  0.6578  0.6302 -0.1323
18702TIP3    H277598   5.583   1.524   5.229 -1.6849 -0.1200 -1.7145
18703TIP3   OH277599   1.028   3.774   4.570 -0.4483 -0.1537 -0.2945
18703TIP3    H177600   0.939   3.740   4.579 -0.8502  0.2119 -2.3552
18703TIP3    H277601   1.053   3.752   4.480  1.0960  0.8162 -0.1400
18704TIP3   OH277602   2.682   3.062   4.696 -0.1130  0.1728 -0.9089
18704TIP3    H177603   2.672   3.158   4.697  0.9376  0.3074  0.9898
18704TIP3    H277604   2.776   3.048   4.689 -0.1727 -0.6909 -0.1998
18705TIP3   OH277605   0.567   5.936   0.602 -0.5639  0.1952 -0.4671
18705TIP3    H177606   0.484   5.939   0.554 -1.0672 -1.4554  0.1845
18705TIP3    H277607   0.572   5.845   0.633  0.1513  0.9278  1.7929
18706TIP3   OH277608   5.059   5.074  17.338  0.4714 -0.6320  0.2581
18706TIP3    H177609   5.077   5.125  17.259 -0.0108 -0.0881  0.4952
18706TIP3    H277610   5.134   5.090  17.395 -0.6369  1.5259  1.1958
18707TIP3   OH277611   1.463   2.943   4.589  0.1492 -0.2496  0.2167
18707TIP3    H177612   1.523   2.869   4.586 -1.1210 -1.3015  0.1310
18707TIP3    H277613   1.519   3.020   4.575  1.3149 -1.2809 -1.0921
18708TIP3   OH277614   2.737   2.458   5.799 -0.0495  0.1953  0.3040
18708TIP3    H177615   2.698   2.392   5.857 -1.4617 -0.4188 -1.2803
18708TIP3    H277616   2.788   2.408   5.736  1.8439  0.8921  1.1925
18709TIP3   OH277617   3.825   4.167  15.314  0.4898 -0.2832 -0.2954
18709TIP3    H177618   3.871   4.094  15.272 -0.8449 -0.2523 -1.8974
18709TIP3    H277619   3.857   4.166  15.405  1.0559 -2.3774 -0.4622
18710TIP3   OH277620   1.960   0.451  17.206 -0.4943 -0.3909  0.5083
18710TIP3    H177621   2.027   0.473  17.141 -0.8530  0.5167  0.4239
18710TIP3    H277622   1.990   0.369  17.245  1.2416  0.5616  1.2703
18711TIP3   OH277623   2.902   3.177  12.969  0.5304 -0.8031  0.1345
18711TIP3    H177624   2.911   3.183  13.064 -2.2950  1.1379  0.4152
18711TIP3    H277625   2.848   3.099  12.955  0.4007 -0.7236  0.1894
18712TIP3   OH277626   2.720   1.941   0.140  0.1311 -0.4755 -0.1259
18712TIP3    H177627   2.802   1.906   0.104  1.2744  0.9111  1.0015
18712TIP3    H277628   2.668   1.864   0.160  1.4919 -1.4450 -0.1578
18713TIP3   OH277629   0.349   5.678  11.886 -0.3244  0.8155  0.6381
18713TIP3    H177630   0.393   5.690  11.802 -0.7975  4.1165  0.7247
18713TIP3    H277631   0.417   5.645  11.945  1.0026  1.9408 -0.1991
18714TIP3   OH277632   5.975   1.543   2.129 -0.6721 -0.4213 -0.2015
18714TIP3    H177633   6.026   1.486   2.187 -1.5422 -0.6033  0.4068
18714TIP3    H277634   5.896   1.563   2.179 -0.5779  0.9902 -0.5717
18715TIP3   OH277635   0.833   6.151   1.275 -0.4019  0.0175  0.4134
18715TIP3    H177636   0.746   6.113   1.288 -0.4034 -0.3883 -0.6868
18715TIP3    H277637   0.853   6.135   1.183 -0.4867  2.8880 -0.1891
18716TIP3   OH277638   4.485   3.240  14.399  1.0143  0.0858 -0.4093
18716TIP3    H177639   4.466   3.183  14.474  1.2970 -0.4311 -0.7296
18716TIP3    H277640   4.471   3.328  14.433 -0.5890 -0.2036 -0.2274
18717TIP3   OH277641   1.163   5.097   0.006  0.0007 -0.1888 -0.0659
18717TIP3    H177642   1.151   5.190   0.025  2.8065  0.1917  0.2428
18717TIP3    H277643   1.213   5.095  -0.075  1.8705 -1.2936  1.0371
18718TIP3   OH277644   4.682   5.823  14.296 -0.2149  0.4854 -0.4217
18718TIP3    H177645   4.675   5.768  14.218  1.6437 -0.8233  0.2753
18718TIP3    H277646   4.756   5.881  14.277 -0.2760  0.7152  0.0388
18719TIP3   OH277647   4.066   5.171  13.437  0.5260  0.0938  0.2675
18719TIP3    H177648   4.159   5.191  13.426  0.5481 -0.4055 -0.4836
18719TIP3    H277649   4.051   5.180  13.531  0.7877  2.5330  0.1523
18720TIP3   OH277650   6.087   1.036  11.482  0.0937  0.0142  0.5121
18720TIP3    H177651   6.029   0.964  11.460 -1.0631  1.1641 -0.4035
18720TIP3    H277652   6.046   1.077  11.558  1.5323 -1.1213  1.9499
18721TIP3   OH277653   6.557   1.669  12.941 -0.0530  0.2604  0.0645
18721TIP3    H177654   6.503   1.709  13.009 -0.8523 -0.5924 -0.0481
18721TIP3    H277655   6.619   1.614  12.989 -0.9231 -0.7118  0.1008
18722TIP3   OH277656   1.123   4.025  14.617 -0.6151  0.1889  0.0410
18722TIP3    H177657   1.050   4.035  14.556  1.0208 -1.7573 -2.4238
18722TIP3    H277658   1.200   4.048  14.566  0.7060  0.2363  1.9572
18723TIP3   OH277659   0.367   6.020  15.299  0.0001  0.4758  0.0908
18723TIP3    H177660   0.462   6.018  15.284 -0.2872  0.4766 -1.9469
18723TIP3    H277661   0.330   6.049  15.216 -1.8215  0.2652  0.7875
18724TIP3   OH277662   1.922   4.833  15.291 -0.1684  0.1995  0.3288
18724TIP3    H177663   1.952   4.828  15.200 -0.4231  0.5816  0.2240
18724TIP3    H277664   1.871   4.753  15.303  2.7960 -1.7088  1.2214
18725TIP3   OH277665   5.139   2.951   4.215 -0.5465 -0.3765 -0.1574
18725TIP3    H177666   5.185   2.980   4.295 -0.3214 -0.9118 -0.0903
18725TIP3    H277667   5.121   3.032   4.168  0.2656 -0.1375 -0.0728
18726TIP3   OH277668   2.907   4.022  13.815  0.3463 -0.2674  0.5340
18726TIP3    H177669   2.908   4.089  13.883 -0.4039 -0.6359  0.9226
18726TIP3    H277670   2.825   4.037  13.767 -0.2565 -1.3997  1.1530
18727TIP3   OH277671   1.457   0.541  13.159  0.5911  0.2119 -0.1276
18727TIP3    H177672   1.406   0.532  13.078  0.4117  1.4444 -0.1726
18727TIP3    H277673   1.536   0.489  13.143 -1.9262 -4.5337  1.1846
18728TIP3   OH277674   3.656   2.832  15.955  0.2247  0.0632  0.8944
18728TIP3    H177675   3.688   2.898  15.894  0.2767 -0.4185  0.3952
18728TIP3    H277676   3.610   2.882  16.022 -2.8820  0.4579 -1.2947
18729TIP3   OH277677   6.752   3.718   3.849  0.2229 -1.0591 -0.6438
18729TIP3    H177678   6.744   3.742   3.756  1.7378  0.0688 -0.5281
18729TIP3    H277679   6.697   3.782   3.894  1.1007 -0.2909 -0.6345
18730TIP3   OH277680   4.283   1.749   0.361  0.6071  0.4406 -0.3497
18730TIP3    H177681   4.248   1.820   0.415  0.3620  0.4794 -0.5551
18730TIP3    H277682   4.378   1.761   0.364  0.5737  0.7054 -0.2842
18731TIP3   OH277683   1.628   5.378  15.738 -0.8637  0.1353 -0.0004
18731TIP3    H177684   1.665   5.375  15.650  0.9112  2.3447  0.5960
18731TIP3    H277685   1.648   5.292  15.775 -0.5471 -0.3838 -1.3038
18732TIP3   OH277686   0.264   0.727  13.359 -0.0056  0.0035  0.2669
18732TIP3    H177687   0.183   0.677  13.367 -0.3102  0.3340 -0.6526
18732TIP3    H277688   0.306   0.718  13.445 -0.0376 -1.8299  0.1376
18733TIP3   OH277689   3.958   2.181   6.140  0.7990  0.0507  0.0856
18733TIP3    H177690   3.897   2.228   6.197 -1.1919 -0.0375 -1.7883
18733TIP3    H277691   4.043   2.221   6.157  0.0955  0.7534  2.2536
18734TIP3   OH277692   5.453   4.827  12.949  0.4264  0.3733 -0.0374
18734TIP3    H177693   5.480   4.736  12.942 -1.7445 -0.3728  0.6335
18734TIP3    H277694   5.484   4.854  13.036  0.4067  0.0326  0.0773
18735TIP3   OH277695   6.346   3.206   5.146 -0.2115 -0.5528  0.3921
18735TIP3    H177696   6.270   3.205   5.204  0.3665  1.5574  1.2658
18735TIP3    H277697   6.418   3.173   5.199 -0.1734 -0.9785  0.0821
18736TIP3   OH277698   4.887   0.349  16.831 -1.2470 -0.3596 -0.3846
18736TIP3    H177699   4.903   0.279  16.894  0.1671  1.6437  1.6520
18736TIP3    H277700   4.961   0.344  16.770  0.2935  0.8353  1.2759
18737TIP3   OH277701   5.649   2.224  15.749  0.2123 -0.2796  0.5148
18737TIP3    H177702   5.598   2.285  15.802  1.0810 -0.3916  1.5136
18737TIP3    H277703   5.739   2.232  15.781  0.4608 -1.6154  0.2532
18738TIP3   OH277704   6.712   4.888   0.092 -0.0938 -0.3008  0.3602
18738TIP3    H177705   6.771   4.956   0.060 -2.1986  2.1031  1.2511
18738TIP3    H277706   6.744   4.807   0.052  3.1126  1.0130  0.0126
18739TIP3   OH277707   5.386   5.164   1.878 -0.3517  0.0416  0.0347
18739TIP3    H177708   5.405   5.253   1.850  0.8992 -0.2978 -0.2564
18739TIP3    H277709   5.309   5.172   1.935 -0.7295  1.1927 -0.6196
18740TIP3   OH277710   0.716   0.450  17.210  0.4261 -0.2791  0.1408
18740TIP3    H177711   0.733   0.428  17.301  1.0024 -0.5441 -0.0300
18740TIP3    H277712   0.783   0.403  17.160  1.3125  1.3459 -0.2750
18741TIP3   OH277713   0.651   0.428   3.659  0.1299  0.1384 -0.3176
18741TIP3    H177714   0.653   0.334   3.671  0.4543  0.0940 -0.7044
18741TIP3    H277715   0.571   0.457   3.704 -0.3158 -0.3986 -0.7542
18742TIP3   OH277716   1.804   1.357  12.963 -0.2474 -0.0305  0.0476
18742TIP3    H177717   1.738   1.326  13.025  0.1537 -4.0999 -1.2700
18742TIP3    H277718   1.879   1.381  13.018  0.0746 -3.4263  1.3422
18743TIP3   OH277719   2.503   1.865  15.812 -0.0788 -0.1219 -0.4316
18743TIP3    H177720   2.481   1.898  15.725  0.6657  0.6696 -0.3359
18743TIP3    H277721   2.445   1.914  15.871 -0.7538 -0.8347 -0.5004
18744TIP3   OH277722   2.716   1.745  13.166 -0.6850 -0.3126 -0.2633
18744TIP3    H177723   2.712   1.775  13.257  1.6744 -0.7716  0.0768
18744TIP3    H277724   2.725   1.826  13.115  1.3921 -0.1369  0.2763
18745TIP3   OH277725   6.417   6.529   3.444  0.4784 -0.1668 -0.2458
18745TIP3    H177726   6.390   6.471   3.515  0.6904  0.0846  0.0399
18745TIP3    H277727   6.407   6.476   3.365 -1.0100 -0.0443 -0.1783
18746TIP3   OH277728   0.828   0.658   2.565  0.4266 -0.3598  0.3719
18746TIP3    H177729   0.790   0.648   2.653  0.8054 -0.7187  0.4942
18746TIP3    H277730   0.862   0.572   2.543  1.7501  0.0942  0.5378
18747TIP3   OH277731   0.557   4.330  12.654  0.6561 -0.9776  0.4608
18747TIP3    H177732   0.482   4.313  12.597  0.1111  1.4427  0.3665
18747TIP3    H277733   0.624   4.367  12.597  1.5406 -2.0861  0.7473
18748TIP3   OH277734   5.520   2.267   1.851 -0.1751  0.1809 -0.2603
18748TIP3    H177735   5.553   2.266   1.941 -0.2267 -0.5187 -0.2460
18748TIP3    H277736   5.571   2.200   1.806 -0.8489 -0.1785 -0.5005
18749TIP3   OH277737   1.682   5.230  16.290 -0.6518 -0.4517  0.2496
18749TIP3    H177738   1.684   5.136  16.272 -0.2469 -0.6531  1.2633
18749TIP3    H277739   1.674   5.236  16.385  0.9380  0.5164  0.3620
18750TIP3   OH277740   1.185   1.602  16.280 -0.2424  0.0193  0.5760
18750TIP3    H177741   1.155   1.635  16.196  1.0397  1.7482  0.7483
18750TIP3    H277742   1.262   1.549  16.258 -0.2954 -0.0643  0.5941
18751TIP3   OH277743   0.103   2.759   5.827  0.2760 -0.8174 -0.3552
18751TIP3    H177744   0.020   2.760   5.780 -1.0145  0.3452  1.7852
18751TIP3    H277745   0.155   2.828   5.786 -0.3870 -0.5631 -0.7832
18752TIP3   OH277746   6.193   5.310   6.821 -0.0551  0.0292  0.2686
18752TIP3    H177747   6.178   5.215   6.817  1.0256 -0.1687  0.6706
18752TIP3    H277748   6.229   5.325   6.908 -2.3190  1.1494  1.0783
18753TIP3   OH277749   4.958   0.012   2.849 -0.3616  0.5844 -0.1372
18753TIP3    H177750   4.934   0.015   2.756  1.3443 -3.3316 -0.9070
18753TIP3    H277751   4.886  -0.036   2.890 -0.0773  0.3496  0.0917
18754TIP3   OH277752   5.046   3.068  11.971 -0.5829  0.4202  0.9569
18754TIP3    H177753   4.958   3.103  11.959 -0.2388  0.9023 -0.3351
18754TIP3    H277754   5.099   3.145  11.994 -0.2801  0.3441  0.5269
18755TIP3   OH277755   0.996   1.522   3.502  0.3383  0.5637  0.8795
18755TIP3    H177756   0.995   1.429   3.527  0.1276  0.3766  0.1875
18755TIP3    H277757   1.055   1.563   3.566 -0.1427  0.0877  1.6483
18756TIP3   OH277758   6.716   4.540   5.688  0.1148  0.4673  0.3140
18756TIP3    H177759   6.640   4.589   5.721  1.7138  1.9539  2.0556
18756TIP3    H277760   6.753   4.596   5.620 -1.5136 -1.2837 -2.1812
18757TIP3   OH277761   6.669   1.449  14.020  0.2876  0.2105 -0.4754
18757TIP3    H177762   6.652   1.432  13.928  0.6435  0.9946 -0.7004
18757TIP3    H277763   6.745   1.508  14.020 -0.3450  1.0694  0.2592
18758TIP3   OH277764   5.370   3.422  10.927  0.0147  0.1808 -0.5459
18758TIP3    H177765   5.420   3.340  10.930  0.8350  0.6957  0.2529
18758TIP3    H277766   5.402   3.467  10.849 -1.1873 -0.6978 -1.5918
18759TIP3   OH277767   3.053   1.217   3.161 -0.3304  0.1090 -0.0666
18759TIP3    H177768   2.980   1.261   3.118  0.9692  0.1028 -2.4247
18759TIP3    H277769   3.125   1.279   3.158  0.0693 -0.2329  1.3886
18760TIP3   OH277770   6.536   0.154  17.250 -0.8496  0.2418 -0.3629
18760TIP3    H177771   6.538   0.061  17.269  0.2141  0.1616 -0.8159
18760TIP3    H277772   6.512   0.195  17.333  2.8578 -0.1474  1.0881
18761TIP3   OH277773   3.575   3.948  15.779  0.3642 -0.2007  0.7668
18761TIP3    H177774   3.537   4.027  15.817  0.4026 -0.3774  1.1786
18761TIP3    H277775   3.504   3.883  15.781  0.3744 -0.2211  0.5593
18762TIP3   OH277776   5.231   4.923  11.333  0.1102  0.1466  0.2852
18762TIP3    H177777   5.316   4.967  11.324  0.2762 -0.2010  0.1283
18762TIP3    H277778   5.212   4.890  11.245 -1.8039  3.1067 -0.5796
18763TIP3   OH277779   2.221   1.282   6.499 -0.3836  0.5131 -1.0645
18763TIP3    H177780   2.229   1.195   6.538 -1.8513  0.4388 -0.8572
18763TIP3    H277781   2.285   1.335   6.547  1.1899 -0.6223 -1.8247
18764TIP3   OH277782   0.186   4.221   1.880 -0.4610 -0.1363 -0.1650
18764TIP3    H177783   0.208   4.252   1.792  0.6378  0.7759  0.3956
18764TIP3    H277784   0.194   4.126   1.875 -3.5790 -0.4051 -1.8476
18765TIP3   OH277785   0.379   0.071   0.772  0.2658 -0.1982  0.1558
18765TIP3    H177786   0.338   0.062   0.858  0.3609 -2.1788  0.0328
18765TIP3    H277787   0.325   0.016   0.714  1.4131 -0.5593 -0.5979
18766TIP3   OH277788   2.496   4.852  16.707 -0.1238  0.4586 -0.2950
18766TIP3    H177789   2.432   4.897  16.652 -1.6333 -0.0946  0.9456
18766TIP3    H277790   2.456   4.768  16.728 -0.4612  1.2717  2.9936
18767TIP3   OH277791   4.680   0.234  11.210  0.0817 -0.7663 -0.1240
18767TIP3    H177792   4.709   0.325  11.211 -1.3371 -0.3024 -0.0537
18767TIP3    H277793   4.620   0.227  11.285 -2.3673 -0.8716 -1.9799
18768TIP3   OH277794   1.653   4.063   0.096 -0.5112 -0.7226 -0.1226
18768TIP3    H177795   1.681   4.125   0.029 -0.4529 -1.4491 -0.7968
18768TIP3    H277796   1.724   4.062   0.160 -0.6686  0.1459  0.0800
18769TIP3   OH277797   1.212   6.409  15.077 -0.0624 -0.0440 -0.1647
18769TIP3    H177798   1.156   6.485  15.091 -1.8283 -1.0697 -1.2714
18769TIP3    H277799   1.241   6.416  14.986 -1.3880 -1.3429 -0.7343
18770TIP3   OH277800   1.519   1.141   4.532  0.1116 -0.0866  0.0011
18770TIP3    H177801   1.461   1.172   4.601  0.7917 -2.3474  1.7311
18770TIP3    H277802   1.472   1.158   4.450 -2.4301 -0.6954  1.2440
18771TIP3   OH277803   6.198   0.340  11.989  0.3053 -0.2210 -0.2436
18771TIP3    H177804   6.156   0.334  12.075  0.7525 -1.2987 -0.0782
18771TIP3    H277805   6.281   0.385  12.006  0.1865 -0.0191 -0.1940
18772TIP3   OH277806   0.915   3.076   6.514  0.3541 -0.4065  0.6635
18772TIP3    H177807   0.873   3.161   6.529  0.0260 -0.4703  0.1172
18772TIP3    H277808   0.842   3.015   6.507  0.5198 -0.4937 -0.4781
18773TIP3   OH277809   5.315   3.346   4.792  0.1800  0.4852 -0.3808
18773TIP3    H177810   5.245   3.410   4.802 -1.0565 -0.9885  1.0066
18773TIP3    H277811   5.382   3.372   4.856 -0.3342  0.3889  0.2028
18774TIP3   OH277812   2.282   5.189  12.464 -0.7360  0.3570 -0.3778
18774TIP3    H177813   2.288   5.254  12.535  1.7156 -2.0167  1.8333
18774TIP3    H277814   2.189   5.188  12.440 -1.7351  1.2419  2.9113
18775TIP3   OH277815   4.069   1.456  11.383  0.5452 -0.1012  0.6522
18775TIP3    H177816   4.054   1.428  11.293 -1.1785  0.5904  0.6941
18775TIP3    H277817   4.093   1.375  11.429  0.0752 -0.7074 -0.1353
18776TIP3   OH277818   3.608   0.703   5.269  0.1460  0.4716 -0.0701
18776TIP3    H177819   3.609   0.770   5.201  1.2168  0.4392 -0.1039
18776TIP3    H277820   3.691   0.657   5.258  0.8433  1.1466  1.9319
18777TIP3   OH277821   2.353   1.168   4.698  0.5633  0.3493  0.3523
18777TIP3    H177822   2.437   1.130   4.675  0.0316 -0.2636 -0.6535
18777TIP3    H277823   2.356   1.257   4.661  0.8302  0.3848  0.4592
18778TIP3   OH277824   0.008   0.700   5.176  0.4522 -0.2122  0.6716
18778TIP3    H177825   0.060   0.662   5.105  1.6879  0.2393  1.2960
18778TIP3    H277826   0.060   0.775   5.205 -0.6137  0.3131  1.2642
18779TIP3   OH277827   5.145   3.965   0.557  0.1451 -0.5240 -0.3894
18779TIP3    H177828   5.211   3.973   0.626  0.1759  0.0876 -0.4887
18779TIP3    H277829   5.159   3.877   0.521  0.8015 -0.4613 -0.3036
18780TIP3   OH277830   0.565   3.349   3.402 -0.0378  0.2777 -0.4682
18780TIP3    H177831   0.517   3.405   3.342  0.5609  0.7561 -0.5131
18780TIP3    H277832   0.508   3.340   3.478 -0.2333  0.7632 -0.5565
18781TIP3   OH277833   1.734   3.602   4.152 -0.2599  0.0420 -0.0099
18781TIP3    H177834   1.765   3.532   4.095  2.1055  1.6728 -0.8847
18781TIP3    H277835   1.773   3.582   4.238  1.0614  0.6162 -0.4427
18782TIP3   OH277836   2.947   1.567   1.435  0.2898  0.1201 -0.9149
18782TIP3    H177837   2.982   1.649   1.469 -0.9773  0.7502 -1.0994
18782TIP3    H277838   2.936   1.581   1.341  0.2256 -0.3291 -0.9802
18783TIP3   OH277839   0.746   5.992   2.026 -0.4024 -0.4420  0.3128
18783TIP3    H177840   0.685   5.923   2.052 -0.8280 -0.0541  0.3741
18783TIP3    H277841   0.734   6.000   1.931 -1.2861  0.3950  0.4723
18784TIP3   OH277842   4.702   0.593   1.803 -0.3227 -0.5666  0.0275
18784TIP3    H177843   4.746   0.652   1.742 -0.7346 -0.9843 -0.6900
18784TIP3    H277844   4.733   0.620   1.889 -0.1363  0.3831 -0.3225
18785TIP3   OH277845   0.450   1.006   2.822  0.5388 -0.4460  0.8127
18785TIP3    H177846   0.400   0.986   2.742  2.9662 -2.3539 -0.3578
18785TIP3    H277847   0.391   0.981   2.893 -0.8603 -0.8964 -0.4466
18786TIP3   OH277848   5.630   1.900   4.059  0.1394  0.0814  0.0077
18786TIP3    H177849   5.635   1.960   4.133  0.7122 -1.3293  1.1706
18786TIP3    H277850   5.544   1.917   4.019 -0.3529  0.5753  1.2505
18787TIP3   OH277851   4.943   3.097  15.381  0.1174 -0.3749 -0.0016
18787TIP3    H177852   4.993   3.159  15.434 -0.0012  0.1951 -0.5479
18787TIP3    H277853   4.875   3.065  15.440 -0.6206  0.9896 -0.0790
18788TIP3   OH277854   2.987   2.606   1.460  0.3133 -0.5595  0.3668
18788TIP3    H177855   3.077   2.594   1.431  0.6745  0.7673  0.8895
18788TIP3    H277856   2.993   2.616   1.555 -0.3024  0.1758  0.3418
18789TIP3   OH277857   6.512   4.045   5.680 -0.4606 -0.0090  0.0060
18789TIP3    H177858   6.525   3.961   5.724  1.1695  0.0315 -0.3104
18789TIP3    H277859   6.427   4.076   5.710 -1.1905 -1.8830 -0.0583
18790TIP3   OH277860   4.359   5.947  10.696  0.2452 -0.6763 -0.2152
18790TIP3    H177861   4.378   5.875  10.636  2.5618 -2.4522  2.3522
18790TIP3    H277862   4.322   5.903  10.774 -1.4071  1.3504  0.2385
18791TIP3   OH277863   1.071   1.715   4.794  0.0699  0.4231 -0.0354
18791TIP3    H177864   0.999   1.686   4.739  0.4009 -0.8283  0.1622
18791TIP3    H277865   1.088   1.805   4.765 -0.1039 -0.0223 -1.6246
18792TIP3   OH277866   0.433   4.580  15.045 -0.2752  0.5531 -0.4845
18792TIP3    H177867   0.406   4.645  15.110 -1.2975 -0.5784  0.2587
18792TIP3    H277868   0.473   4.510  15.096 -0.4303 -0.0245 -1.1427
18793TIP3   OH277869   3.410   2.812   4.711  0.0990  0.1055 -0.1796
18793TIP3    H177870   3.447   2.777   4.791  0.3500  0.8487  0.0380
18793TIP3    H277871   3.455   2.764   4.641 -1.5424 -1.9933  0.0980
18794TIP3   OH277872   3.449   4.314  13.346  0.6402 -0.4921 -0.0797
18794TIP3    H177873   3.483   4.287  13.260  1.8947  0.1510  0.1903
18794TIP3    H277874   3.397   4.240  13.375  0.9255 -1.0840 -1.0103
18795TIP3   OH277875   3.496   1.007   2.240  0.2467 -0.1933  0.4994
18795TIP3    H177876   3.577   1.015   2.291 -0.7403  2.2161  1.8214
18795TIP3    H277877   3.497   1.082   2.182 -0.6876 -0.5965 -0.0513
18796TIP3   OH277878   5.075   6.368  11.978 -0.0976  0.3216  0.4260
18796TIP3    H177879   4.991   6.346  12.017 -0.5768  0.8740 -0.2683
18796TIP3    H277880   5.057   6.443  11.921  0.9284  0.6757  0.5305
18797TIP3   OH277881   5.464   1.699  10.764  0.4612 -0.8126  0.4991
18797TIP3    H177882   5.424   1.619  10.800  0.1586 -1.3458 -0.9441
18797TIP3    H277883   5.390   1.747  10.726  0.8482 -0.5569  0.0669
18798TIP3   OH277884   0.993   5.461   4.217  0.1498 -0.4312  0.3705
18798TIP3    H177885   1.039   5.409   4.283  0.4722 -0.3798  0.1898
18798TIP3    H277886   1.055   5.531   4.194 -0.2225 -0.0481  0.5092
18799TIP3   OH277887   5.677   6.204  17.231 -0.2348  0.0057 -0.5704
18799TIP3    H177888   5.735   6.128  17.222 -0.4936 -0.2685  0.0208
18799TIP3    H277889   5.659   6.209  17.325  0.0423  1.0015 -0.5657
18800TIP3   OH277890   3.395   5.916  11.537  0.4327  0.6301  0.4254
18800TIP3    H177891   3.429   5.874  11.458  0.0354 -0.9877  1.0764
18800TIP3    H277892   3.412   6.009  11.524 -0.7273  0.5732 -2.1313
18801TIP3   OH277893   5.595   1.219   4.213  0.1670  0.4337 -0.2578
18801TIP3    H177894   5.566   1.217   4.122  0.2308 -0.3453 -0.2711
18801TIP3    H277895   5.684   1.255   4.209  0.0062  0.8151 -0.4529
18802TIP3   OH277896   4.549   6.524  11.494  0.2785 -0.3780 -0.3822
18802TIP3    H177897   4.613   6.453  11.491  0.2080 -0.4428 -0.3397
18802TIP3    H277898   4.572   6.574  11.573  0.9041  0.1861 -0.9038
18803TIP3   OH277899   2.660   3.363   5.536 -0.8240 -0.1090  0.1521
18803TIP3    H177900   2.727   3.401   5.480  0.9277 -1.6829  1.0887
18803TIP3    H277901   2.627   3.288   5.486 -2.5986  1.1567 -0.6857
18804TIP3   OH277902   2.990   3.203   3.285  0.1269 -0.3490  0.1078
18804TIP3    H177903   3.070   3.248   3.257 -1.0550  0.8728 -1.4846
18804TIP3    H277904   2.946   3.179   3.203 -0.3563 -2.5385  0.9321
18805TIP3   OH277905   0.782   3.160   5.444 -0.2795  0.3463  0.0917
18805TIP3    H177906   0.867   3.197   5.468  0.5417 -0.4359 -1.4502
18805TIP3    H277907   0.751   3.214   5.371 -0.1114 -0.5963 -0.7083
18806TIP3   OH277908   4.771   5.151   1.771  0.6500  0.1586  0.1088
18806TIP3    H177909   4.807   5.083   1.713  2.0239 -0.2223  1.3378
18806TIP3    H277910   4.765   5.108   1.856  0.9038  1.3840  0.7630
18807TIP3   OH277911   4.056   1.359   5.319  0.3079  0.5367  0.4320
18807TIP3    H177912   4.069   1.333   5.227 -0.8952 -1.4404  0.7698
18807TIP3    H277913   4.137   1.333   5.363  0.4321  0.4309  0.1472
18808TIP3   OH277914   3.873   5.749  15.704  0.0832  0.0418  0.6073
18808TIP3    H177915   3.961   5.741  15.740  0.5781  0.8333 -0.3860
18808TIP3    H277916   3.824   5.676  15.743  1.6640 -1.5851 -0.3221
18809TIP3   OH277917   0.874   5.030   6.030  0.2092 -0.4715  0.5439
18809TIP3    H177918   0.844   5.001   5.944  1.9236 -2.3581  0.5068
18809TIP3    H277919   0.889   5.124   6.021  0.6344 -0.6903 -1.2892
18810TIP3   OH277920   3.934   1.870   6.316 -0.0441 -0.4259 -0.2968
18810TIP3    H177921   3.898   1.783   6.336 -0.9756  0.2791  1.2936
18810TIP3    H277922   3.858   1.921   6.288  0.3005  0.1927 -0.1158
18811TIP3   OH277923   0.310   1.794  14.362 -0.0756  0.4457 -0.1235
18811TIP3    H177924   0.391   1.743  14.365 -0.4220 -0.2779 -2.1911
18811TIP3    H277925   0.250   1.747  14.420  0.9604  1.0740  1.5593
18812TIP3   OH277926   2.352   0.236   3.734  0.4403  0.6449  0.2692
18812TIP3    H177927   2.269   0.197   3.761  0.6556 -0.3826 -0.4756
18812TIP3    H277928   2.418   0.175   3.765  0.6370 -1.9641 -4.3564
18813TIP3   OH277929   2.234   4.483  11.780 -0.0031 -0.1144  0.2094
18813TIP3    H177930   2.174   4.519  11.714 -0.7656 -1.0002  0.3866
18813TIP3    H277931   2.265   4.401  11.741  1.1407  0.3601  0.1082
18814TIP3   OH277932   2.940   5.223   2.149 -0.0543 -0.0272  1.0407
18814TIP3    H177933   2.977   5.164   2.083 -0.4901 -0.1906  0.9453
18814TIP3    H277934   2.990   5.304   2.137 -0.4888  0.1263  0.1440
18815TIP3   OH277935   3.278   2.070  13.806  0.1209 -0.0588  0.4615
18815TIP3    H177936   3.227   2.146  13.836 -1.8879 -1.1012 -0.1716
18815TIP3    H277937   3.333   2.105  13.736  0.1662  1.0596  1.0217
18816TIP3   OH277938   5.680   5.317  13.448  0.0445 -1.1659 -0.3933
18816TIP3    H177939   5.732   5.329  13.528 -0.7804 -1.2514  0.1768
18816TIP3    H277940   5.660   5.405  13.419 -0.8369 -1.1190  0.3083
18817TIP3   OH277941   4.938   2.669   0.486  0.4076 -0.2452  0.3922
18817TIP3    H177942   4.936   2.688   0.392  1.3289 -0.9817  0.1968
18817TIP3    H277943   4.949   2.574   0.490 -1.6313 -0.4698  1.2869
18818TIP3   OH277944   6.302   2.225  17.195  0.0995  0.5003 -0.5298
18818TIP3    H177945   6.232   2.181  17.242 -0.6308 -0.0417 -2.0740
18818TIP3    H277946   6.372   2.234  17.260 -0.7653 -0.4489  0.5772
18819TIP3   OH277947   4.848   4.254  13.677  0.1063  0.2506  0.3223
18819TIP3    H177948   4.899   4.190  13.626 -0.9755 -0.8647  0.6081
18819TIP3    H277949   4.796   4.300  13.611 -0.6810 -0.6275  0.3152
18820TIP3   OH277950   6.549   0.148   5.726 -0.0138 -0.1733 -0.2990
18820TIP3    H177951   6.561   0.118   5.816  0.4520  0.1318 -0.2579
18820TIP3    H277952   6.580   0.239   5.726  1.2161 -0.5631 -1.0504
18821TIP3   OH277953   1.517   2.036  15.224  0.0557  0.1426  0.1489
18821TIP3    H177954   1.446   2.055  15.163  0.2320  1.3888  0.2980
18821TIP3    H277955   1.579   1.983  15.174 -0.7477 -0.5525 -0.1275
18822TIP3   OH277956   3.824   4.981  13.767 -0.2483 -0.3599  0.4737
18822TIP3    H177957   3.778   5.015  13.690  3.0476  1.1005 -1.0825
18822TIP3    H277958   3.825   5.054  13.829  0.3584 -0.1857  0.2703
18823TIP3   OH277959   6.745   6.610   3.691 -0.0605  0.8200  0.1386
18823TIP3    H177960   6.837   6.615   3.665 -0.6121  0.4477 -2.0712
18823TIP3    H277961   6.698   6.659   3.624 -1.7391 -1.3004 -0.3491
18824TIP3   OH277962   0.147   2.440  10.493 -0.0664 -0.2880 -0.0360
18824TIP3    H177963   0.204   2.380  10.445  1.1378 -0.0490  1.0251
18824TIP3    H277964   0.165   2.421  10.586 -0.6089  0.8287  0.3147
18825TIP3   OH277965   4.840   3.854   3.775  0.1660  0.1265  0.0610
18825TIP3    H177966   4.904   3.877   3.708  0.9283  0.6331  0.9426
18825TIP3    H277967   4.847   3.924   3.840 -0.5169 -0.3841  0.6989
18826TIP3   OH277968   2.008   3.257  16.498 -0.5517 -0.4006  0.1746
18826TIP3    H177969   2.080   3.316  16.522 -0.4165 -1.1546  1.7585
18826TIP3    H277970   1.934   3.286  16.551 -1.0855 -0.3664 -0.5761
18827TIP3   OH277971   3.326   1.399  16.355 -0.1622  0.3859  0.0236
18827TIP3    H177972   3.232   1.378  16.351 -0.2211  0.7647 -0.5875
18827TIP3    H277973   3.330   1.483  16.400 -0.0794  0.1483  0.4664
18828TIP3   OH277974   4.022   2.867   5.228  0.3673  0.4250 -0.0843
18828TIP3    H177975   4.035   2.920   5.150 -0.0348 -0.1084 -0.5195
18828TIP3    H277976   3.953   2.911   5.277 -0.5521 -0.1354 -0.8537
18829TIP3   OH277977   4.131   6.752  12.453  0.0976  0.5534 -0.1518
18829TIP3    H177978   4.107   6.798  12.533 -0.6537  0.7637 -0.4879
18829TIP3    H277979   4.099   6.808  12.382 -0.9515 -0.5289 -0.5635
18830TIP3   OH277980   2.052   1.521   4.150  0.3590  0.0088  0.0843
18830TIP3    H177981   2.077   1.460   4.219  1.3915 -1.6240 -1.6395
18830TIP3    H277982   1.980   1.477   4.104 -1.3604  1.7496  0.9736
18831TIP3   OH277983   0.376   4.745  10.905  0.0853 -0.3780 -0.1790
18831TIP3    H177984   0.437   4.813  10.878  0.3418  0.3773  2.0652
18831TIP3    H277985   0.432   4.671  10.931 -0.1988 -1.6805 -2.9402
18832TIP3   OH277986   5.849   2.652   1.918  0.0054 -0.1902  0.2556
18832TIP3    H177987   5.754   2.649   1.921  0.0524 -2.0087  1.7827
18832TIP3    H277988   5.871   2.632   1.827 -1.0340  0.7389 -0.2299
18833TIP3   OH277989   2.612   2.406   5.328 -0.0218 -0.0460  0.5802
18833TIP3    H177990   2.679   2.380   5.391 -0.1101  0.1859  0.7685
18833TIP3    H277991   2.617   2.501   5.325  0.4955 -0.0899 -0.3274
18834TIP3   OH277992   4.237   0.325  12.530  0.0654 -0.3492 -0.0594
18834TIP3    H177993   4.191   0.273  12.465  1.6591 -0.4765 -1.1227
18834TIP3    H277994   4.310   0.271  12.559 -0.3007 -0.0862  1.4745
18835TIP3   OH277995   4.222   4.447   1.171  0.3279 -0.7566  0.0975
18835TIP3    H177996   4.300   4.500   1.189 -0.3033 -0.0366  0.8202
18835TIP3    H277997   4.191   4.421   1.258 -2.0976  1.7455  0.1221
18836TIP3   OH277998   6.248   6.230  16.008  0.0420 -0.2196 -0.0627
18836TIP3    H177999   6.183   6.177  15.963 -1.0046  0.9421  0.0319
18836TIP3    H278000   6.197   6.299  16.051  1.4496  1.7256 -1.3690
18837TIP3   OH278001   1.028   3.903   5.213  0.5475  0.6771 -0.2303
18837TIP3    H178002   0.998   3.994   5.206  1.3040  0.9823  0.2875
18837TIP3    H278003   1.019   3.867   5.125 -0.3024  1.0809 -0.3132
18838TIP3   OH278004   5.832   6.440   4.249  0.4530  0.4804  0.3802
18838TIP3    H178005   5.807   6.372   4.312  2.8183 -0.4308  0.4692
18838TIP3    H278006   5.798   6.409   4.165 -0.1569  0.1846  0.7277
18839TIP3   OH278007   4.391   2.563   1.744  0.7003 -0.4581  0.2466
18839TIP3    H178008   4.331   2.600   1.809  0.0425 -1.4176  0.1954
18839TIP3    H278009   4.418   2.639   1.692 -2.8406 -0.2793 -1.6750
18840TIP3   OH278010   0.086   3.309  12.529  0.6253 -0.3101  0.9256
18840TIP3    H178011   0.146   3.239  12.503  0.3897  0.5265 -2.2473
18840TIP3    H278012   0.134   3.390  12.512 -1.1232  0.3710 -1.2124
18841TIP3   OH278013   3.137   5.424   0.506  0.2984  0.1592 -0.6648
18841TIP3    H178014   3.179   5.422   0.420 -0.0955  0.8737 -0.8837
18841TIP3    H278015   3.158   5.510   0.541 -0.7973  0.4488 -0.6908
18842TIP3   OH278016   6.339   0.862  14.383  0.4733 -0.3513  0.1329
18842TIP3    H178017   6.432   0.884  14.386  0.2584  0.5236  0.8043
18842TIP3    H278018   6.320   0.855  14.289  0.5069  2.8198 -0.2172
18843TIP3   OH278019   6.158   0.571  13.967  0.8777  0.6448  0.3226
18843TIP3    H178020   6.158   0.475  13.972 -1.9870  0.5975  4.3509
18843TIP3    H278021   6.127   0.590  13.878  2.5159 -2.0250 -0.9492
18844TIP3   OH278022   6.028   3.402   1.189  0.0675 -0.5283  0.4922
18844TIP3    H178023   6.071   3.317   1.200  1.1113 -0.2541 -1.1572
18844TIP3    H278024   6.066   3.457   1.258  3.4060  0.0470 -1.5950
18845TIP3   OH278025   5.186   0.185   2.937 -0.2175 -0.3341  0.4282
18845TIP3    H178026   5.110   0.130   2.915 -0.6421 -0.2267  1.5568
18845TIP3    H278027   5.242   0.128   2.989 -0.6380  0.2791  1.5698
18846TIP3   OH278028   5.160   4.417   0.373  0.0636  0.3995 -0.2057
18846TIP3    H178029   5.146   4.479   0.302  2.0265 -1.0426 -1.9898
18846TIP3    H278030   5.076   4.372   0.383 -0.2995  0.7639 -1.4910
18847TIP3   OH278031   2.104   5.059  17.026  0.0321  0.2449  0.0445
18847TIP3    H178032   2.091   5.154  17.032  0.3495  0.2480  0.8823
18847TIP3    H278033   2.199   5.047  17.034  0.0655 -0.0965 -0.8152
18848TIP3   OH278034   6.377   5.964  16.786 -0.1207  0.4120  0.3320
18848TIP3    H178035   6.324   6.014  16.724  1.0270  0.7832 -0.3743
18848TIP3    H278036   6.461   6.009  16.788  0.5737 -0.8398  0.5214
18849TIP3   OH278037   2.327   3.376  13.349  0.0635  0.0086  0.1800
18849TIP3    H178038   2.337   3.298  13.294 -0.0346  0.3322 -0.3006
18849TIP3    H278039   2.413   3.416  13.350 -0.4572  1.3123 -1.7332
18850TIP3   OH278040   4.360   0.293   4.966 -0.3606  0.2150  0.2430
18850TIP3    H178041   4.347   0.326   5.055 -0.3631 -0.1453  0.3779
18850TIP3    H278042   4.414   0.214   4.977 -1.1899 -0.4011  0.0174
18851TIP3   OH278043   0.267   5.868   0.178  0.2358  0.4929  0.3941
18851TIP3    H178044   0.271   5.950   0.228  1.7925  0.2482  0.7320
18851TIP3    H278045   0.329   5.810   0.222 -0.7173 -0.8241  0.0576
18852TIP3   OH278046   3.745   0.064  13.676 -0.6633  0.0197 -0.0150
18852TIP3    H178047   3.739   0.087  13.583  1.6064 -1.8445 -0.7286
18852TIP3    H278048   3.660   0.025  13.697 -1.1062  0.1914 -1.4070
18853TIP3   OH278049   1.528   0.398   4.092  0.2278 -0.0021  0.0332
18853TIP3    H178050   1.530   0.405   4.188  0.7809 -1.1022  0.1109
18853TIP3    H278051   1.452   0.451   4.066  0.8906  1.4851  0.9562
18854TIP3   OH278052   6.713   2.879   0.006 -0.9300  0.2767  0.2326
18854TIP3    H178053   6.807   2.861   0.008 -0.1911  3.5802  3.0088
18854TIP3    H278054   6.672   2.796   0.029  1.1445 -1.4298 -1.7084
18855TIP3   OH278055   5.563   2.860  14.733 -0.3193 -0.1312 -0.1828
18855TIP3    H178056   5.558   2.948  14.772  1.7781  0.7684 -1.7473
18855TIP3    H278057   5.476   2.823  14.748 -0.6812  1.4206  2.2701
18856TIP3   OH278058   3.201   2.881   5.170  0.4188  0.1204 -0.2336
18856TIP3    H178059   3.121   2.872   5.222  0.3235 -1.7931 -0.6383
18856TIP3    H278060   3.186   2.826   5.093  1.7395  0.5159 -0.8076
18857TIP3   OH278061   6.572   0.843   1.454  0.6426  0.4664  0.2454
18857TIP3    H178062   6.561   0.883   1.540  1.3167  0.3005  0.4123
18857TIP3    H278063   6.629   0.903   1.406  1.4934 -0.1707  0.4291
18858TIP3   OH278064   0.430   1.379  14.797 -1.2102 -0.5139  0.1495
18858TIP3    H178065   0.409   1.337  14.713  1.6897 -0.0685 -0.9254
18858TIP3    H278066   0.395   1.468  14.788 -0.4146 -0.2761 -0.8954
18859TIP3   OH278067   3.373   2.136   1.768  0.2357 -0.0651 -0.5945
18859TIP3    H178068   3.291   2.091   1.790  0.7238 -0.3202  0.7997
18859TIP3    H278069   3.406   2.168   1.852 -0.7641  4.1926 -1.5662
18860TIP3   OH278070   4.434   4.561  14.903 -0.0432  0.1311 -0.3563
18860TIP3    H178071   4.406   4.517  14.983 -0.7148 -1.4424 -1.4221
18860TIP3    H278072   4.511   4.612  14.930 -0.2661 -0.3370  1.2808
18861TIP3   OH278073   0.249   2.522  14.259  0.1402 -0.1228 -0.5063
18861TIP3    H178074   0.171   2.467  14.256 -0.5935  0.7719  0.8648
18861TIP3    H278075   0.235   2.579  14.334  1.4892  1.0169 -1.0702
18862TIP3   OH278076   5.405   1.558  13.117 -0.3889 -0.1644 -0.1670
18862TIP3    H178077   5.334   1.617  13.144 -1.9585 -2.4333  1.0219
18862TIP3    H278078   5.388   1.541  13.025 -0.0214  1.0721 -0.4742
18863TIP3   OH278079   5.164   4.112  11.652  0.7018 -0.4759  0.4144
18863TIP3    H178080   5.243   4.164  11.663  0.3439  0.1219  0.1804
18863TIP3    H278081   5.102   4.149  11.716 -0.4485  1.1547 -1.5471
18864TIP3   OH278082   1.960   0.998   5.954  0.4690  1.0586  0.1170
18864TIP3    H178083   2.009   1.032   5.879  1.0852 -0.8124 -0.3936
18864TIP3    H278084   1.955   1.072   6.014 -1.6198  3.2264 -2.4492
18865TIP3   OH278085   5.052   1.577  13.960 -0.3694  0.2612 -0.2630
18865TIP3    H178086   5.118   1.631  13.917  0.3684  0.1166  0.6402
18865TIP3    H278087   4.968   1.614  13.932  0.0777  0.1985 -1.7396
18866TIP3   OH278088   5.866   0.671   2.416 -0.2007 -0.5430 -0.2996
18866TIP3    H178089   5.888   0.748   2.362 -0.1500  0.7317  1.4483
18866TIP3    H278090   5.794   0.629   2.370 -1.4245  1.5645 -0.4604
18867TIP3   OH278091   3.804   3.852  12.024 -0.1337 -0.1191  0.4494
18867TIP3    H178092   3.710   3.872  12.014 -0.8940 -1.9615  2.9689
18867TIP3    H278093   3.845   3.938  12.035 -1.5855  0.6950 -0.1033
18868TIP3   OH278094   0.951   3.197   1.191  0.5133  0.1480 -0.0928
18868TIP3    H178095   0.917   3.285   1.207  2.0947  0.7835 -0.0476
18868TIP3    H278096   0.985   3.200   1.102 -2.4665 -1.4753 -1.4144
18869TIP3   OH278097   2.628   2.398  17.220 -0.2550  0.0280 -0.3053
18869TIP3    H178098   2.641   2.397  17.125  2.9139 -2.7605 -0.0396
18869TIP3    H278099   2.627   2.490  17.244  0.9142  0.7850 -2.8771
18870TIP3   OH278100   5.484   6.598   6.536 -0.2817  0.0722 -0.7235
18870TIP3    H178101   5.450   6.625   6.450  2.7732  0.6228 -1.8927
18870TIP3    H278102   5.411   6.553   6.578 -2.3867  1.2131 -2.9418
18871TIP3   OH278103   5.774   4.893  14.761  0.2225 -0.2158 -0.1534
18871TIP3    H178104   5.724   4.817  14.790  0.6197 -0.6577 -0.6151
18871TIP3    H278105   5.805   4.934  14.842  1.5026 -1.5530  0.0676
18872TIP3   OH278106   5.157   4.575  13.774  0.1457 -0.1915 -0.2465
18872TIP3    H178107   5.171   4.570  13.680  0.1640  0.4050 -0.2788
18872TIP3    H278108   5.065   4.549  13.786 -0.3118  1.1863 -0.5884
18873TIP3   OH278109   2.818   3.688  12.892 -0.0615 -0.1331  0.0913
18873TIP3    H178110   2.906   3.652  12.886 -0.8214 -1.8342 -2.2679
18873TIP3    H278111   2.829   3.770  12.940  2.4934 -1.1466  1.4694
18874TIP3   OH278112   0.460   2.225   6.013  0.5767 -0.4160 -0.2412
18874TIP3    H178113   0.414   2.300   6.052  0.2736 -0.9547  0.4526
18874TIP3    H278114   0.519   2.265   5.949  1.0507  0.5067  0.7170
18875TIP3   OH278115   4.483   4.111   3.184 -0.2047 -0.5273 -0.3274
18875TIP3    H178116   4.469   4.025   3.224 -0.6152 -0.7354 -0.9198
18875TIP3    H278117   4.575   4.110   3.157 -0.0870 -0.6105  0.0674
18876TIP3   OH278118   2.151   6.516  11.590  0.2107 -0.0883  0.3160
18876TIP3    H178119   2.182   6.580  11.525  1.6343 -0.5045  0.5514
18876TIP3    H278120   2.056   6.510  11.574  0.4620  0.1160 -1.4635
18877TIP3   OH278121   0.325   6.134  16.169 -0.0090  0.1154 -0.4457
18877TIP3    H178122   0.276   6.067  16.121  0.9737 -0.9948  0.0523
18877TIP3    H278123   0.259   6.201  16.190 -1.1338 -0.9388 -0.4877
18878TIP3   OH278124   4.468   5.618   3.021  0.2262  0.3045 -0.5450
18878TIP3    H178125   4.374   5.627   3.039  0.4801  2.2860  0.0545
18878TIP3    H278126   4.474   5.618   2.926 -0.4396 -0.8136 -0.6062
18879TIP3   OH278127   5.609   6.293  12.228 -0.1475 -0.0364 -0.7159
18879TIP3    H178128   5.530   6.239  12.239 -0.6356  0.4688 -1.6481
18879TIP3    H278129   5.678   6.230  12.207 -0.4384 -0.4212 -0.5305
18880TIP3   OH278130   5.239   1.716  13.754 -0.5387 -0.4140  0.0678
18880TIP3    H178131   5.201   1.783  13.697 -1.2031 -1.5222 -0.8422
18880TIP3    H278132   5.257   1.642  13.695  0.6448 -0.8535  0.9582
18881TIP3   OH278133   0.226   1.407  12.650 -0.5346  0.3563  0.1007
18881TIP3    H178134   0.297   1.463  12.617 -0.8674  0.8020  0.1336
18881TIP3    H278135   0.148   1.439  12.605 -0.4487 -1.3321 -1.3768
18882TIP3   OH278136   1.838   4.929   2.168  0.0108  0.2664 -0.2107
18882TIP3    H178137   1.882   4.977   2.238 -1.5131  0.3916  0.6972
18882TIP3    H278138   1.751   4.967   2.164 -1.1632 -2.1479  0.3365
18883TIP3   OH278139   6.505   0.310   1.103 -0.2502 -0.8292 -0.0930
18883TIP3    H178140   6.454   0.351   1.033  0.1441  0.8938  0.5785
18883TIP3    H278141   6.532   0.383   1.159 -0.1906 -2.1003  1.6277
18884TIP3   OH278142   1.776   0.702  14.418 -1.4696 -0.4797 -0.0598
18884TIP3    H178143   1.738   0.640  14.356  0.4059 -1.4328 -0.3489
18884TIP3    H278144   1.822   0.647  14.481  1.2637  0.5472 -1.0029
18885TIP3   OH278145   0.750   1.537   0.594 -0.3593 -0.4698 -0.1822
18885TIP3    H178146   0.772   1.627   0.570 -1.3543 -0.0225  0.5465
18885TIP3    H278147   0.806   1.484   0.538  0.4703  0.5995 -0.4049
18886TIP3   OH278148   2.803   0.515   0.087  0.4376 -0.3954  0.0282
18886TIP3    H178149   2.712   0.498   0.109 -0.0121  0.3320 -1.1826
18886TIP3    H278150   2.832   0.436   0.041  0.2952 -0.4659  0.0597
18887TIP3   OH278151   2.943   3.898  16.893 -0.3334  0.2860 -0.1346
18887TIP3    H178152   2.913   3.929  16.808 -0.3701 -2.4848 -1.2331
18887TIP3    H278153   3.037   3.919  16.896 -0.1711 -0.2322 -1.2147
18888TIP3   OH278154   0.893   3.844   3.721  0.8711 -0.2283 -0.2597
18888TIP3    H178155   0.879   3.856   3.815 -0.0411 -1.0603 -0.2752
18888TIP3    H278156   0.908   3.750   3.711 -0.5044 -0.3765 -1.1145
18889TIP3   OH278157   3.634   3.101   2.236 -0.1088  0.1249 -0.4911
18889TIP3    H178158   3.663   3.184   2.275  0.1682 -0.6234  0.9899
18889TIP3    H278159   3.566   3.127   2.174  0.6284  1.5337 -0.7699
18890TIP3   OH278160   4.602   2.162   2.970 -0.6262 -0.1215  0.0259
18890TIP3    H178161   4.588   2.071   2.943  2.8835 -2.2728  4.1970
18890TIP3    H278162   4.681   2.190   2.924 -0.5332  0.0458  0.2832
18891TIP3   OH278163   6.117   5.850  11.694 -0.6418  0.6364  0.0328
18891TIP3    H178164   6.122   5.941  11.721 -1.4662  0.6558  0.1458
18891TIP3    H278165   6.190   5.807  11.739 -0.9054  1.0272  0.8378
18892TIP3   OH278166   1.777   4.239  17.320 -0.3395 -0.3409  1.1077
18892TIP3    H178167   1.791   4.272  17.231  2.1203 -0.9954  1.1876
18892TIP3    H278168   1.864   4.237  17.359 -1.2114 -1.2119  3.1418
18893TIP3   OH278169   3.800   3.774   1.483 -0.0974 -0.1667  0.9722
18893TIP3    H178170   3.708   3.775   1.456  0.2529  0.0806 -0.2535
18893TIP3    H278171   3.838   3.699   1.438  0.1113 -0.8690  2.2407
18894TIP3   OH278172   2.588   0.278  15.126  1.1543  0.0028 -0.0761
18894TIP3    H178173   2.653   0.243  15.065  1.3317  0.3211 -0.0730
18894TIP3    H278174   2.583   0.371  15.104  0.3081 -0.1170 -0.4300
18895TIP3   OH278175   6.725   1.090  10.928 -0.0932 -0.0987 -0.5910
18895TIP3    H178176   6.777   1.057  11.002  0.2869  1.3169 -0.2014
18895TIP3    H278177   6.786   1.147  10.880 -0.6120 -0.2773 -1.4823
18896TIP3   OH278178   0.041   0.181   3.737 -0.0507 -0.4051  0.4718
18896TIP3    H178179  -0.016   0.216   3.668 -1.0640  0.3302  1.6319
18896TIP3    H278180   0.127   0.177   3.697 -0.4188  0.9540 -0.5342
18897TIP3   OH278181   2.211   0.817   4.774  0.0484  0.5395 -0.1396
18897TIP3    H178182   2.177   0.741   4.726  0.7072 -1.5679  2.4935
18897TIP3    H278183   2.305   0.816   4.756 -0.0559  1.3046 -0.7784
18898TIP3   OH278184   4.050   0.315   0.977 -0.0694 -0.2001 -0.0265
18898TIP3    H178185   4.018   0.236   0.934 -2.4909 -1.2817  3.2599
18898TIP3    H278186   3.976   0.375   0.975  1.0229  1.1767 -0.5843
18899TIP3   OH278187   0.416   6.634  13.821  0.0160 -0.5986 -0.1353
18899TIP3    H178188   0.500   6.636  13.867  0.6089 -1.6557 -1.1233
18899TIP3    H278189   0.359   6.692  13.873  1.9786  2.0849 -0.7389
18900TIP3   OH278190   1.440   1.178  15.507 -0.2609  0.5223 -0.0403
18900TIP3    H178191   1.428   1.161  15.414 -1.3290 -0.0918  0.1823
18900TIP3    H278192   1.532   1.200  15.516  0.1803 -0.7491 -1.0571
18901TIP3   OH278193   5.614   5.926   6.052  0.7218 -0.1906 -0.3746
18901TIP3    H178194   5.599   5.832   6.065  2.7829 -0.4202  0.8890
18901TIP3    H278195   5.559   5.969   6.117  0.9394 -0.6209  0.0970
18902TIP3   OH278196   1.131   5.225   0.435  0.6508  0.0617 -0.1600
18902TIP3    H178197   1.151   5.201   0.344  1.4108 -0.5775  0.1609
18902TIP3    H278198   1.117   5.319   0.432  0.4317  0.0156 -0.9820
18903TIP3   OH278199   0.599   6.162  17.384  0.1666 -0.4065  0.1097
18903TIP3    H178200   0.594   6.178  17.290  1.1882 -0.1974  0.0747
18903TIP3    H278201   0.595   6.249  17.423 -3.1728 -0.5902  0.4821
18904TIP3   OH278202   3.488   1.940   3.348 -0.3809 -0.1900  0.1271
18904TIP3    H178203   3.535   1.904   3.422 -0.2843  1.4604  0.9198
18904TIP3    H278204   3.524   1.896   3.271  0.4131 -1.0007  0.9555
18905TIP3   OH278205   5.361   4.449   1.107 -0.1043 -0.2582 -0.6142
18905TIP3    H178206   5.305   4.413   1.176  0.2106  1.4998  0.6217
18905TIP3    H278207   5.417   4.376   1.081 -1.5706 -1.4896 -0.4175
18906TIP3   OH278208   2.972   0.404  17.157 -0.1737 -0.1095 -0.0201
18906TIP3    H178209   2.887   0.448  17.160 -0.2059 -0.0328 -1.3974
18906TIP3    H278210   3.032   0.469  17.121  0.6806  0.1189  1.7216
18907TIP3   OH278211   1.409   4.583  10.898  0.1176 -0.3887 -0.0457
18907TIP3    H178212   1.384   4.674  10.884  1.9583  0.1501 -0.0774
18907TIP3    H278213   1.330   4.532  10.875 -0.5804  1.1137 -1.1032
18908TIP3   OH278214   2.020   1.032   1.161  0.1439  0.3983 -0.8207
18908TIP3    H178215   2.082   0.964   1.187  0.2315  0.9722  0.6279
18908TIP3    H278216   2.068   1.085   1.097  0.2353 -0.6172 -1.6011
18909TIP3   OH278217   6.122   2.328   3.681  0.3998 -0.5222 -0.2872
18909TIP3    H178218   6.083   2.411   3.652  2.6330 -0.1228 -2.5397
18909TIP3    H278219   6.058   2.261   3.657 -0.0917  0.3138 -1.3673
18910TIP3   OH278220   4.065   5.554  13.889 -0.5570 -0.2350  0.0713
18910TIP3    H178221   4.147   5.508  13.871 -0.0206  1.1591 -1.3364
18910TIP3    H278222   3.997   5.489  13.868  0.1714 -0.7902 -0.6637
18911TIP3   OH278223   2.917   0.707   0.278  0.5824 -0.3085 -0.1256
18911TIP3    H178224   2.886   0.629   0.233  0.1059  0.9180 -2.0166
18911TIP3    H278225   3.013   0.703   0.270  0.5650 -0.7039 -0.1633
18912TIP3   OH278226   0.907   2.340   2.943 -0.0972 -0.0924  0.2539
18912TIP3    H178227   0.963   2.399   2.993  0.5594 -0.7546  0.3244
18912TIP3    H278228   0.885   2.270   3.003  0.2790 -0.6335 -0.2296
18913TIP3   OH278229   3.031   2.957   0.199 -0.0740 -0.8145 -0.1637
18913TIP3    H178230   3.077   2.900   0.261  1.5348  0.2386 -0.3370
18913TIP3    H278231   2.940   2.927   0.202 -0.0289 -0.8966  2.5938
18914TIP3   OH278232   5.184   0.106   5.703  0.3982  0.9391  0.4982
18914TIP3    H178233   5.161   0.190   5.742  1.9999  1.0487  1.2870
18914TIP3    H278234   5.276   0.116   5.677  0.0197  0.1120 -1.3002
18915TIP3   OH278235   4.584   6.302  11.945  0.3359 -0.2471 -0.3713
18915TIP3    H178236   4.498   6.260  11.956  0.3686 -0.6251 -1.4666
18915TIP3    H278237   4.570   6.393  11.971 -0.2182 -0.4746  0.1455
18916TIP3   OH278238   6.096   6.495  16.090  0.7301  0.1938  0.1980
18916TIP3    H178239   6.030   6.537  16.145 -0.1912 -0.3272 -0.4851
18916TIP3    H278240   6.138   6.568  16.043  0.5587  0.5141  0.5397
18917TIP3   OH278241   3.697   1.937  16.040  0.2530  0.5273 -0.0695
18917TIP3    H178242   3.637   1.908  15.971  0.2796 -0.5632  0.3472
18917TIP3    H278243   3.682   1.876  16.112  2.7342 -0.5458 -0.3870
18918TIP3   OH278244   3.070   6.227   1.141 -0.5561 -0.6997 -0.0072
18918TIP3    H178245   3.023   6.180   1.072 -1.0570 -1.7807  1.0425
18918TIP3    H278246   3.138   6.167   1.169  0.1391  0.0394 -0.0724
18919TIP3   OH278247   1.343   4.521  16.809 -0.6021 -1.0324  0.3954
18919TIP3    H178248   1.353   4.615  16.794 -0.8376 -1.2477 -1.3367
18919TIP3    H278249   1.430   4.492  16.837 -0.8184 -0.1328  2.1090
18920TIP3   OH278250   5.319   5.827   1.471 -0.0032  0.2992 -0.4319
18920TIP3    H178251   5.351   5.792   1.554 -0.1094 -0.0141 -0.5208
18920TIP3    H278252   5.349   5.764   1.406 -1.6902 -0.5999 -0.4116
18921TIP3   OH278253   5.014   3.381   4.937  0.4212  0.4654 -0.4617
18921TIP3    H178254   5.025   3.458   4.882 -0.2493  0.2125 -0.9528
18921TIP3    H278255   4.952   3.407   5.005  0.7432  0.5734 -0.2048
18922TIP3   OH278256   0.378   2.512  11.088  1.0444 -0.1430 -0.1383
18922TIP3    H178257   0.381   2.453  11.013  1.0047  0.4039 -0.5786
18922TIP3    H278258   0.336   2.461  11.157 -2.7314  0.5563 -1.6649
18923TIP3   OH278259   5.969   0.696   0.141  0.2716 -0.6081  0.3729
18923TIP3    H178260   5.968   0.792   0.137  4.0443 -0.4435  0.3722
18923TIP3    H278261   5.885   0.674   0.182 -0.7139  2.6607  0.4547
18924TIP3   OH278262   3.864   2.472  12.967  0.1035 -0.2786 -0.4964
18924TIP3    H178263   3.836   2.449  13.056 -0.2900 -1.9267 -1.0017
18924TIP3    H278264   3.959   2.485  12.974 -0.0718  0.6895  0.3467
18925TIP3   OH278265   0.046   1.568   5.146 -0.2298 -0.1243  0.3824
18925TIP3    H178266  -0.020   1.551   5.079  0.1362 -2.6101  0.5508
18925TIP3    H278267   0.120   1.514   5.121  2.1167  3.0836 -0.1633
18926TIP3   OH278268   5.120   1.550  15.130  0.0215 -0.0659  0.0091
18926TIP3    H178269   5.084   1.502  15.055  1.1705 -0.2709 -0.4370
18926TIP3    H278270   5.213   1.528  15.129  0.4517  1.6466  0.2029
18927TIP3   OH278271   0.851   0.600  16.364  0.0414 -0.2316  0.0641
18927TIP3    H178272   0.849   0.526  16.425  1.8665  0.5047  1.0928
18927TIP3    H278273   0.785   0.661  16.397  0.0227 -0.4709  0.4737
18928TIP3   OH278274   4.847   2.373  11.948 -0.1793 -0.4283 -0.3224
18928TIP3    H178275   4.831   2.459  11.986 -0.1118 -1.1239  1.3547
18928TIP3    H278276   4.793   2.371  11.869 -2.6728  0.0096  1.2704
18929TIP3   OH278277   4.865   3.819  13.641 -0.3139 -0.1976  0.3278
18929TIP3    H178278   4.801   3.750  13.625 -0.0863  0.0314 -1.9279
18929TIP3    H278279   4.932   3.805  13.574  2.2153 -0.5958  2.7334
18930TIP3   OH278280   0.893   2.280   4.195  0.2056 -0.1862 -0.0011
18930TIP3    H178281   0.887   2.266   4.101 -0.0462  0.7994 -0.1477
18930TIP3    H278282   0.837   2.357   4.211 -1.0432 -1.2924  1.1872
18931TIP3   OH278283   1.731   6.142   4.030 -0.0546  0.3208  0.5038
18931TIP3    H178284   1.680   6.064   4.054  1.5487 -0.7549  0.5993
18931TIP3    H278285   1.713   6.155   3.937 -2.4493  1.5240  1.0739
18932TIP3   OH278286   1.632   4.945  16.096 -0.1934  0.0063 -0.1792
18932TIP3    H178287   1.705   4.946  16.158 -0.4287 -0.7776  0.1238
18932TIP3    H278288   1.655   5.010  16.030  0.6525 -0.0425  0.0608
18933TIP3   OH278289   3.446   2.399  13.466  0.2314 -0.4163 -0.1410
18933TIP3    H178290   3.360   2.386  13.505  1.1453 -0.4103  2.0038
18933TIP3    H278291   3.428   2.415  13.373 -1.8839 -2.9492 -0.2626
18934TIP3   OH278292   6.510   6.767   5.394 -0.1265 -0.3902 -0.4340
18934TIP3    H178293   6.600   6.762   5.427  0.7922  0.9093 -2.5116
18934TIP3    H278294   6.462   6.699   5.442  1.4745  0.1646  2.1369
18935TIP3   OH278295   4.112   3.538  14.163  0.0824 -0.0076  0.2675
18935TIP3    H178296   4.065   3.455  14.161  1.4416 -0.8380  1.2697
18935TIP3    H278297   4.044   3.604  14.178 -0.8150 -1.1297  1.3530
18936TIP3   OH278298   5.314   0.831   1.270  0.6877  0.4999 -0.6342
18936TIP3    H178299   5.406   0.819   1.249  0.3940  0.4020 -1.9317
18936TIP3    H278300   5.281   0.891   1.203 -0.1909  0.5516 -0.1788
18937TIP3   OH278301   2.824   1.766  14.169  0.1617 -0.1076 -0.3698
18937TIP3    H178302   2.884   1.841  14.168  0.4176 -0.3069 -1.9467
18937TIP3    H278303   2.879   1.691  14.146 -0.7858 -0.1883 -2.5194
18938TIP3   OH278304   1.640   0.222  16.147  0.4041 -0.2077  0.7311
18938TIP3    H178305   1.712   0.173  16.106  0.7319  0.5399  0.4013
18938TIP3    H278306   1.664   0.225  16.240  0.6444 -0.2235  0.6708
18939TIP3   OH278307   3.377   4.959   4.813  0.3314 -0.1047 -0.1757
18939TIP3    H178308   3.439   4.916   4.754  0.2192  1.4846 -1.5305
18939TIP3    H278309   3.432   5.019   4.865  0.1078  0.3019 -0.4080
18940TIP3   OH278310   2.286   1.003  14.867 -0.5145  0.3765 -0.1981
18940TIP3    H178311   2.353   0.936  14.852 -1.1899 -0.1923 -0.7488
18940TIP3    H278312   2.307   1.073  14.804 -0.5530  0.1114 -0.5082
18941TIP3   OH278313   2.741   3.241   3.378 -0.7608 -0.0372 -0.8223
18941TIP3    H178314   2.833   3.223   3.359 -0.8665 -2.1659  0.3594
18941TIP3    H278315   2.739   3.259   3.472 -1.5999 -0.4140 -0.7620
18942TIP3   OH278316   4.567   1.363   5.261 -0.0702  0.3245 -0.2066
18942TIP3    H178317   4.513   1.363   5.183 -0.0536 -1.7778 -0.2594
18942TIP3    H278318   4.624   1.440   5.250 -2.3207  2.0571 -0.5797
18943TIP3   OH278319   3.050   2.944  14.161 -0.1924  0.0247  0.7744
18943TIP3    H178320   2.991   2.870  14.156  1.4692 -1.3899  1.1006
18943TIP3    H278321   3.137   2.907  14.145  0.8755  1.6415  2.3516
18944TIP3   OH278322   3.611   1.159  13.214 -0.1388 -0.0583 -0.3160
18944TIP3    H178323   3.570   1.081  13.251 -0.8657  0.2720 -0.4081
18944TIP3    H278324   3.634   1.134  13.125 -1.7341  0.2707 -0.8614
18945TIP3   OH278325   4.317   2.679  10.453 -0.1724 -0.7110 -0.1206
18945TIP3    H178326   4.313   2.618  10.526  0.5436 -0.4452  0.1502
18945TIP3    H278327   4.282   2.630  10.378 -0.0994 -1.2700  0.2069
18946TIP3   OH278328   5.255   4.738   0.189  0.5576  0.0451  0.5125
18946TIP3    H178329   5.331   4.717   0.243 -0.5893  1.9245  3.1339
18946TIP3    H278330   5.222   4.820   0.226 -1.6138  0.3195 -1.7667
18947TIP3   OH278331   4.777   3.500   3.424  0.6076  0.3902 -0.3034
18947TIP3    H178332   4.769   3.412   3.388 -0.7916  0.6343 -0.6516
18947TIP3    H278333   4.765   3.488   3.518  1.6754  0.0752 -0.1904
18948TIP3   OH278334   6.059   2.489  12.014 -0.0654  0.1038  0.5851
18948TIP3    H178335   6.030   2.479  11.923 -0.1962 -1.0770  0.7444
18948TIP3    H278336   6.048   2.402  12.053  2.0891  0.0172  1.1173
18949TIP3   OH278337   1.961   4.215   3.111 -0.2225  0.2002  0.4122
18949TIP3    H178338   2.005   4.205   3.026 -2.2332  3.5599 -1.2412
18949TIP3    H278339   1.873   4.180   3.096 -0.6223  0.9144  1.0519
18950TIP3   OH278340   3.757   0.126   2.179 -0.0939  0.5800 -0.5245
18950TIP3    H178341   3.772   0.213   2.216  0.0021 -0.0182  0.9283
18950TIP3    H278342   3.845   0.091   2.162 -0.1504  1.4887 -2.9892
18951TIP3   OH278343   4.828   5.688   2.803  0.0759  0.2937 -0.5772
18951TIP3    H178344   4.778   5.759   2.843 -0.8094  0.0089 -1.1578
18951TIP3    H278345   4.918   5.702   2.833 -0.3630  0.7422  0.5920
18952TIP3   OH278346   1.026   6.030   3.803 -0.9903 -0.1150  0.2028
18952TIP3    H178347   1.045   5.999   3.891 -0.3372 -1.5175 -0.3991
18952TIP3    H278348   1.112   6.043   3.763 -1.2753 -0.3931 -0.5218
18953TIP3   OH278349   1.955   2.330  14.905 -0.3121 -0.3731 -0.1717
18953TIP3    H178350   1.884   2.366  14.959 -0.4073  0.8551 -1.0598
18953TIP3    H278351   1.919   2.249  14.870 -1.1943  0.0922 -0.3904
18954TIP3   OH278352   2.519   1.786   1.826  0.0138 -0.7198 -0.4223
18954TIP3    H178353   2.580   1.800   1.899 -3.1111 -0.3585  2.3203
18954TIP3    H278354   2.515   1.690   1.816  0.7734 -0.7570 -0.4720
18955TIP3   OH278355   3.408   2.574  11.819 -0.3018 -0.0669  0.4338
18955TIP3    H178356   3.376   2.663  11.834 -0.0753 -0.0508  0.8584
18955TIP3    H278357   3.330   2.519  11.819 -0.2679 -0.2480  3.0892
18956TIP3   OH278358   5.669   5.751   1.507 -0.2501 -0.1634 -0.0918
18956TIP3    H178359   5.602   5.765   1.441  0.0965 -0.2042 -0.4543
18956TIP3    H278360   5.687   5.838   1.543  0.9940  0.1854 -1.4559
18957TIP3   OH278361   0.989   0.583  14.907  0.4856 -0.4208  0.4373
18957TIP3    H178362   0.952   0.527  14.976  1.1875 -1.9526 -0.3755
18957TIP3    H278363   0.998   0.669  14.948 -2.3595 -0.3699  1.1701
18958TIP3   OH278364   5.900   6.515  11.275  0.0825 -0.5535  0.2842
18958TIP3    H178365   5.853   6.504  11.193 -1.1215 -0.1836  0.9126
18958TIP3    H278366   5.957   6.591  11.260 -2.9447  2.0818  0.9621
18959TIP3   OH278367   4.078   4.953  15.879  0.1870  0.9626  0.6610
18959TIP3    H178368   4.141   5.012  15.838  0.2487 -0.7553 -1.9941
18959TIP3    H278369   4.126   4.914  15.952  1.5252  1.2217 -0.0487
18960TIP3   OH278370   4.394   6.459  15.193  0.1583  0.3290 -0.1956
18960TIP3    H178371   4.394   6.540  15.243  0.1957  0.8742 -1.0676
18960TIP3    H278372   4.315   6.413  15.223  0.0071  0.7909  0.1227
18961TIP3   OH278373   0.436   1.066  14.677 -0.3481  0.3871 -0.7064
18961TIP3    H178374   0.432   1.121  14.755  1.0885  0.0262 -0.3348
18961TIP3    H278375   0.389   0.986  14.701 -0.4754  0.5396 -0.4404
18962TIP3   OH278376   3.104   2.565   5.584 -0.2825 -0.0075 -0.5489
18962TIP3    H178377   3.084   2.508   5.658 -1.5372 -0.5212 -1.2400
18962TIP3    H278378   3.105   2.653   5.622  3.6670 -0.4966  0.9283
18963TIP3   OH278379   3.591   2.995  14.965  0.6069  0.4677 -0.2356
18963TIP3    H178380   3.554   2.943  15.037 -0.8856  1.7879  0.0109
18963TIP3    H278381   3.547   2.961  14.886  1.1276  0.0317 -0.3455
18964TIP3   OH278382   5.263   3.544  15.826 -0.3996 -0.0269  0.1636
18964TIP3    H178383   5.228   3.633  15.832 -0.0549  0.0293  1.8590
18964TIP3    H278384   5.245   3.517  15.736  2.1444  2.8734 -1.4088
18965TIP3   OH278385   4.598   5.480  13.197 -0.3716 -0.3562 -0.4478
18965TIP3    H178386   4.642   5.563  13.214 -2.4119  0.3683  1.7175
18965TIP3    H278387   4.632   5.452  13.112  2.1415  1.4827 -0.1553
18966TIP3   OH278388   4.341   3.483  15.399  0.3216 -0.0399  0.5493
18966TIP3    H178389   4.397   3.559  15.387  1.8993 -1.3467 -0.6831
18966TIP3    H278390   4.400   3.412  15.426 -0.7370 -1.3787 -0.4627
18967TIP3   OH278391   4.820   6.661  11.936 -0.5973 -0.4732  0.0206
18967TIP3    H178392   4.837   6.614  12.017  3.1696  1.4878  0.5692
18967TIP3    H278393   4.841   6.598  11.867 -2.4218 -1.6805  0.4865
18968TIP3   OH278394   1.961   6.714  12.954  0.0996 -0.3723 -0.0468
18968TIP3    H178395   2.036   6.658  12.974  0.1201 -0.2477  0.2288
18968TIP3    H278396   1.885   6.665  12.988 -0.1192 -1.1813 -1.6273
18969TIP3   OH278397   4.369   4.759   5.028 -0.6200 -0.0919  0.1686
18969TIP3    H178398   4.378   4.766   4.933 -2.2493  0.2938  0.0209
18969TIP3    H278399   4.366   4.664   5.045  0.8616 -0.2018 -0.0017
18970TIP3   OH278400   6.436   4.499  15.244 -0.4261 -0.1697  0.1245
18970TIP3    H178401   6.370   4.443  15.285  0.5532 -0.0646  1.9498
18970TIP3    H278402   6.483   4.440  15.184  0.4346 -1.3234  1.8434
18971TIP3   OH278403   3.084   1.699   4.157 -0.0428  0.4113  0.2220
18971TIP3    H178404   3.153   1.679   4.221  0.5853  0.7965 -0.3185
18971TIP3    H278405   3.130   1.746   4.087 -0.9405  1.0665  0.0616
18972TIP3   OH278406   0.564   5.657  15.038 -0.2022 -0.4964  0.1461
18972TIP3    H178407   0.538   5.636  15.128  0.9910  1.3998  1.0029
18972TIP3    H278408   0.495   5.716  15.007  0.5700  0.7594  0.7240
18973TIP3   OH278409   4.497   2.619   0.142  0.2673 -0.4558 -0.2042
18973TIP3    H178410   4.505   2.543   0.084 -0.6140  0.0105 -0.9537
18973TIP3    H278411   4.470   2.582   0.226 -0.6035 -0.9313 -0.6847
18974TIP3   OH278412   0.298   3.853  15.969 -0.6309  0.1932 -0.0203
18974TIP3    H178413   0.239   3.928  15.977  0.3927  0.9225  0.9810
18974TIP3    H278414   0.313   3.845  15.875  0.8505  2.5725 -0.0582
18975TIP3   OH278415   3.137   4.677   0.360  0.1528 -0.0479  0.3343
18975TIP3    H178416   3.073   4.740   0.326  1.0159  0.3276 -0.6771
18975TIP3    H278417   3.090   4.594   0.362 -0.5535  0.3418  0.2139
18976TIP3   OH278418   6.318   2.583  17.404 -0.3055  0.3021  0.3485
18976TIP3    H178419   6.404   2.594  17.363 -1.2909  1.8175 -1.4396
18976TIP3    H278420   6.322   2.638  17.482  0.9234 -1.0577  1.2997
18977TIP3   OH278421   1.763   3.054  14.575  0.5715  0.3288 -0.4042
18977TIP3    H178422   1.747   3.065  14.669  2.4639  0.4759 -0.0454
18977TIP3    H278423   1.852   3.020  14.570  0.4799  0.2395 -2.1612
18978TIP3   OH278424   2.651   2.571  11.295  0.1327  0.0824  0.2072
18978TIP3    H178425   2.601   2.497  11.261  1.1940 -1.5629  2.0314
18978TIP3    H278426   2.619   2.583  11.384  1.1400  0.7124  0.5006
18979TIP3   OH278427   4.151   2.943  11.644  0.0929 -0.1786  0.9402
18979TIP3    H178428   4.152   2.969  11.552  0.0479  0.3553  1.0845
18979TIP3    H278429   4.231   2.891  11.655  1.3646  1.6824  1.1164
18980TIP3   OH278430   6.596   3.311  16.090  0.3114 -0.1908  0.1815
18980TIP3    H178431   6.622   3.326  15.999  2.1922 -2.0541  0.3440
18980TIP3    H278432   6.569   3.220  16.092 -0.1210 -0.0540  1.4309
18981TIP3   OH278433   1.364   2.293  15.289  0.1176 -0.5677 -0.1588
18981TIP3    H178434   1.444   2.261  15.248 -0.1702 -1.1787 -0.2507
18981TIP3    H278435   1.301   2.299  15.217 -0.0345 -0.4619 -0.0179
18982TIP3   OH278436   4.761   2.891   1.139  0.2615 -0.3591 -0.5633
18982TIP3    H178437   4.684   2.855   1.096  1.4394 -2.0877 -1.3617
18982TIP3    H278438   4.768   2.980   1.107 -2.8515  0.8047  1.5609
18983TIP3   OH278439   4.033   2.351  14.078 -0.6610 -0.0776  0.3075
18983TIP3    H178440   4.100   2.404  14.035 -0.5248 -0.8634 -0.5038
18983TIP3    H278441   4.027   2.273  14.023 -3.8216  0.9100 -0.9531
18984TIP3   OH278442   4.058   0.656  14.485  0.1533  0.1114  0.1860
18984TIP3    H178443   3.990   0.713  14.448  1.3197  0.2852 -1.8018
18984TIP3    H278444   4.009   0.592  14.536 -1.4147  1.0219 -0.0957
18985TIP3   OH278445   4.893   2.008  11.742  0.0261  0.0776  0.2457
18985TIP3    H178446   4.969   2.052  11.778  0.7580 -2.1381  1.6519
18985TIP3    H278447   4.829   2.006  11.813 -0.1765 -0.6498  0.0632
18986TIP3   OH278448   2.177   1.120   4.376 -0.3417 -0.1683  0.2544
18986TIP3    H178449   2.159   1.060   4.449 -2.2440  0.4061  0.3076
18986TIP3    H278450   2.177   1.207   4.417 -0.6783  0.0964 -0.3027
18987TIP3   OH278451   5.784   2.077   1.182 -0.0731  0.0889  0.2707
18987TIP3    H178452   5.846   2.014   1.145 -0.0125 -0.5666  1.4432
18987TIP3    H278453   5.823   2.162   1.162  1.3521 -0.3064  1.1927
18988TIP3   OH278454   4.304   5.466  11.653  0.2671  0.3994 -0.0841
18988TIP3    H178455   4.385   5.415  11.645 -0.3719 -0.7594  0.6445
18988TIP3    H278456   4.328   5.553  11.621  1.3720 -0.3543 -1.4223
18989TIP3   OH278457   3.967   5.078   4.521 -0.0411  0.2643 -0.2462
18989TIP3    H178458   3.967   4.987   4.493  1.4707  0.3281 -0.5505
18989TIP3    H278459   3.876   5.106   4.513 -0.4708 -1.1307 -0.4212
18990TIP3   OH278460   2.599   1.111  13.554 -0.0596  0.1360 -0.4490
18990TIP3    H178461   2.677   1.075  13.513  0.3431  0.2708  0.1899
18990TIP3    H278462   2.622   1.201  13.577 -1.2046  0.9847 -2.4278
18991TIP3   OH278463   4.597   0.873   5.501 -0.3024  0.2178 -0.2198
18991TIP3    H178464   4.692   0.864   5.493 -0.2805 -0.5022  0.7376
18991TIP3    H278465   4.564   0.859   5.412  0.4543  0.0982 -0.4906
18992TIP3   OH278466   4.463   5.892   3.134 -0.3119  0.2685 -0.3024
18992TIP3    H178467   4.486   5.856   3.049 -0.8035 -0.8738  0.0229
18992TIP3    H278468   4.395   5.957   3.115  0.7677  1.2290 -0.9253
18993TIP3   OH278469   0.240   3.118   6.357 -0.8018  0.3299  0.1212
18993TIP3    H178470   0.259   3.106   6.450 -0.4000  0.9875  0.1329
18993TIP3    H278471   0.319   3.086   6.313 -2.0429 -2.6796 -0.1889
18994TIP3   OH278472   2.102   6.189   1.997  0.2463  0.0565  0.0960
18994TIP3    H178473   2.094   6.098   1.968  0.6591  0.1162 -0.2057
18994TIP3    H278474   2.027   6.233   1.956  0.2154 -0.0848 -0.0022
18995TIP3   OH278475   0.342   0.017   5.050  0.3923 -0.4456 -0.0441
18995TIP3    H178476   0.325   0.065   5.131  2.5190  0.5184 -0.0956
18995TIP3    H278477   0.438   0.013   5.044  0.2959 -0.6894 -2.3846
18996TIP3   OH278478   5.151   6.626  14.102  0.3138 -0.1041  0.2942
18996TIP3    H178479   5.201   6.576  14.167  0.4644  2.7442  2.5368
18996TIP3    H278480   5.188   6.714  14.105 -0.9727  0.6365 -2.3396
18997TIP3   OH278481   5.557   4.537   2.236  0.1090  0.3738 -0.3247
18997TIP3    H178482   5.530   4.621   2.198 -0.3078  1.0148  1.2851
18997TIP3    H278483   5.628   4.560   2.296  0.1010 -0.4504  0.0049
18998TIP3   OH278484   3.203   2.614  17.245 -0.1277 -0.7174 -0.1844
18998TIP3    H178485   3.263   2.637  17.173  1.6096  0.3628  1.5023
18998TIP3    H278486   3.225   2.676  17.314 -2.4294 -1.0906  0.9547
18999TIP3   OH278487   2.176   4.037   0.896  0.0686  0.4355 -0.6795
18999TIP3    H178488   2.133   3.975   0.837  0.7316 -0.5058 -0.1751
18999TIP3    H278489   2.107   4.100   0.917 -0.3566  0.4380 -1.9477
19000TIP3   OH278490   3.528   0.941   1.592  0.2809  0.3423 -0.5686
19000TIP3    H178491   3.561   0.852   1.580 -0.5312 -0.1038  0.3843
19000TIP3    H278492   3.570   0.991   1.522  1.6370 -0.5435 -0.4319
19001TIP3   OH278493   6.328   6.228  17.240  0.2468 -0.2998 -0.3044
19001TIP3    H178494   6.292   6.316  17.232 -0.3648 -0.6447 -1.6393
19001TIP3    H278495   6.353   6.203  17.151  0.5863 -1.4039  0.0719
19002TIP3   OH278496   0.582   0.254  11.055 -0.2847 -0.2897 -0.0182
19002TIP3    H178497   0.563   0.183  11.116 -0.5474 -1.3217 -1.2501
19002TIP3    H278498   0.598   0.210  10.971  0.7908  1.0292 -0.5481
19003TIP3   OH278499   6.381   0.452   0.010  0.4298  0.1061 -0.2521
19003TIP3    H178500   6.406   0.360   0.023 -1.2936 -0.4397 -0.4853
19003TIP3    H278501   6.344   0.454  -0.079  1.3083  1.2487 -0.6191
19004TIP3   OH278502   2.773   2.551  10.577  1.0398  0.4161 -0.3762
19004TIP3    H178503   2.845   2.599  10.537  0.6448  1.2058 -0.1530
19004TIP3    H278504   2.727   2.616  10.630  1.4247 -0.5375  1.2030
19005TIP3   OH278505   2.232   2.286   4.001 -0.2144  0.0512  0.6272
19005TIP3    H178506   2.292   2.276   3.927  1.0255  0.3245  1.5729
19005TIP3    H278507   2.168   2.350   3.971  0.7779  0.8210  0.0869
19006TIP3   OH278508   3.949   4.332  15.015  0.5444 -0.4136 -0.0566
19006TIP3    H178509   3.962   4.391  15.090  0.2078  1.5724 -1.4900
19006TIP3    H278510   3.970   4.245  15.050 -0.1957  0.3345  2.5023
19007TIP3   OH278511   6.247   2.228  11.177 -0.4571  0.2648 -0.0881
19007TIP3    H178512   6.278   2.262  11.093  0.5880 -1.4097 -0.4279
19007TIP3    H278513   6.243   2.305  11.234  1.8544  0.9974 -0.7952
19008TIP3   OH278514   4.500   2.172   3.674  0.0663  0.0696 -0.3296
19008TIP3    H178515   4.478   2.090   3.631 -0.0473 -0.8947  1.5024
19008TIP3    H278516   4.460   2.166   3.760  1.5476  1.3017  0.4925
19009TIP3   OH278517   5.744   6.052  12.474  0.8059  0.3301 -0.0714
19009TIP3    H178518   5.673   5.994  12.444 -0.2649  1.0143  1.0038
19009TIP3    H278519   5.701   6.136  12.488  1.4318  0.3211  2.2840
19010TIP3   OH278520   0.862   3.251  16.508  0.2630  0.1815  0.5219
19010TIP3    H178521   0.868   3.166  16.552 -0.2309 -0.6364 -0.9384
19010TIP3    H278522   0.906   3.311  16.568  1.6976 -1.3045  1.0521
19011TIP3   OH278523   0.642   3.936  13.907 -0.2719 -0.4497 -0.0793
19011TIP3    H178524   0.622   3.945  14.001 -0.7855 -0.6228 -0.1697
19011TIP3    H278525   0.604   3.852  13.882 -0.5593 -0.1874 -0.5497
19012TIP3   OH278526   0.870   5.952   6.761  0.1104  0.0203  0.2719
19012TIP3    H178527   0.802   5.956   6.828 -3.8341  1.1478 -3.3619
19012TIP3    H278528   0.893   5.859   6.757 -2.8552 -0.8375  0.3387
19013TIP3   OH278529   1.132   6.430   2.197  0.1246 -0.3266  0.7704
19013TIP3    H178530   1.039   6.452   2.193  0.2861  0.3156 -2.1951
19013TIP3    H278531   1.158   6.450   2.287 -1.7003  3.6295  0.6228
19014TIP3   OH278532   3.218   5.944   5.973  0.1378 -0.3831 -0.1265
19014TIP3    H178533   3.311   5.961   5.957  0.6968 -1.1935  1.8995
19014TIP3    H278534   3.193   6.009   6.039 -0.7620 -0.1055 -0.7320
19015TIP3   OH278535   6.708   0.139   3.029  0.0768 -0.4285  0.0984
19015TIP3    H178536   6.751   0.114   3.111 -1.1625  0.5852  1.1094
19015TIP3    H278537   6.616   0.116   3.043 -0.1622 -0.2142 -1.0174
19016TIP3   OH278538   6.206   0.241  14.099  0.5965 -0.1838 -0.7736
19016TIP3    H178539   6.290   0.246  14.053  1.3505 -1.8702  0.3501
19016TIP3    H278540   6.140   0.247  14.029  1.6808 -1.1182 -1.9275
19017TIP3   OH278541   2.922   5.653  10.741  0.2042  0.1675 -0.4347
19017TIP3    H178542   3.015   5.638  10.728  0.4755  1.7813 -0.4856
19017TIP3    H278543   2.886   5.661  10.653 -0.1592 -1.3103 -0.4459
19018TIP3   OH278544   2.104   0.958  16.919 -0.1690  0.0276 -0.3616
19018TIP3    H178545   2.183   0.924  16.961 -0.0212 -0.2818 -0.8815
19018TIP3    H278546   2.109   1.053  16.933  0.5986  0.0732 -0.9041
19019TIP3   OH278547   3.390   3.154  14.048 -0.3716 -0.0887  0.7733
19019TIP3    H178548   3.371   3.176  14.139 -0.6468 -0.9038  0.9183
19019TIP3    H278549   3.389   3.058  14.046  2.0759 -0.1698  0.4510
19020TIP3   OH278550   2.704   3.097  14.210 -0.1164  0.0375  0.0397
19020TIP3    H178551   2.657   3.014  14.223 -1.1623  0.5752 -0.2703
19020TIP3    H278552   2.688   3.120  14.119 -1.2002  1.4168  0.5587
19021TIP3   OH278553   1.252   4.428   3.840 -0.1725  0.6264 -0.1206
19021TIP3    H178554   1.161   4.451   3.824 -0.5208  0.1766  1.1133
19021TIP3    H278555   1.260   4.336   3.814 -0.2126  0.5026  0.3036
19022TIP3   OH278556   3.262   1.437  17.244  0.5523  0.6460 -0.5995
19022TIP3    H178557   3.331   1.485  17.290  0.0764  0.3909  0.4090
19022TIP3    H278558   3.298   1.349  17.231  0.5042  0.5799 -0.2832
19023TIP3   OH278559   5.448   1.990  15.991  0.2584  0.1053  0.0021
19023TIP3    H178560   5.439   1.980  15.896  0.7470  2.2486 -0.3118
19023TIP3    H278561   5.540   1.969  16.009  0.0132 -0.9339  0.1269
19024TIP3   OH278562   3.027   0.523  11.734  0.0808  0.3690  0.1695
19024TIP3    H178563   2.988   0.533  11.647  0.3925 -2.5768 -0.4409
19024TIP3    H278564   3.002   0.435  11.761  0.5558  0.9699  2.8180
19025TIP3   OH278565   5.978   1.061   4.071 -0.3749  0.0322 -0.3777
19025TIP3    H178566   6.014   1.148   4.090  2.7535 -1.0052 -0.8553
19025TIP3    H278567   5.973   1.058   3.976 -0.6474 -0.2411 -0.3542
19026TIP3   OH278568   4.314   3.671   1.463  0.6161  0.4181  0.4739
19026TIP3    H178569   4.347   3.722   1.389 -1.1505 -0.1950 -0.7933
19026TIP3    H278570   4.393   3.649   1.512  1.5991  3.0555  0.2736
19027TIP3   OH278571   3.876   3.047   0.236 -0.9722 -0.0936 -0.1035
19027TIP3    H178572   3.788   3.047   0.199 -0.1575 -1.1652 -2.1972
19027TIP3    H278573   3.934   3.051   0.160  0.8080  0.3639  1.2086
19028TIP3   OH278574   5.106   3.736   4.595  0.2551  0.5088 -0.1917
19028TIP3    H178575   5.070   3.756   4.508 -1.0209  2.4541  0.7182
19028TIP3    H278576   5.181   3.795   4.603  1.9779 -1.4839 -0.9252
19029TIP3   OH278577   2.546   0.502   0.158  0.0135  0.3112 -0.4095
19029TIP3    H178578   2.500   0.579   0.123  0.9305  1.2195  0.3422
19029TIP3    H278579   2.493   0.428   0.129 -2.1966  1.3346  0.7893
19030TIP3   OH278580   1.803   0.623  15.236  0.2947 -0.1704 -0.0640
19030TIP3    H178581   1.775   0.569  15.309 -0.3450  0.5677  0.2550
19030TIP3    H278582   1.889   0.657  15.262  0.4385 -0.5652 -0.0191
19031TIP3   OH278583   3.567   1.401  11.667 -0.4000  0.1314 -0.1109
19031TIP3    H178584   3.551   1.443  11.751  1.4975 -0.1118  0.4035
19031TIP3    H278585   3.661   1.405  11.655 -0.5818 -0.2806 -2.0155
19032TIP3   OH278586   1.378   0.612  11.180 -0.4021  0.6074 -0.3516
19032TIP3    H178587   1.326   0.534  11.161  0.8614  0.1497 -2.2606
19032TIP3    H278588   1.329   0.684  11.140 -1.9356  0.9941  2.0259
19033TIP3   OH278589   6.076   5.432  13.558 -0.3786  0.2791 -0.3980
19033TIP3    H178590   6.139   5.396  13.620  0.1247 -0.5075 -1.3326
19033TIP3    H278591   6.001   5.457  13.611  0.1723 -0.0699  0.5623
19034TIP3   OH278592   6.460   0.890  16.009 -0.0096 -0.8078 -0.1700
19034TIP3    H178593   6.534   0.831  16.019  0.4760 -0.0370  0.9200
19034TIP3    H278594   6.471   0.955  16.079 -0.2468  0.8703 -1.6180
19035TIP3   OH278595   2.573   0.233   0.752 -0.2784 -0.4310 -0.0336
19035TIP3    H178596   2.481   0.221   0.778 -0.4509 -0.3896 -0.6090
19035TIP3    H278597   2.570   0.243   0.657  0.2187  0.5828  0.0399
19036TIP3   OH278598   3.672   6.740  11.993  1.1064  0.0877 -0.1871
19036TIP3    H178599   3.733   6.707  11.927  1.9279  0.2043  0.4992
19036TIP3    H278600   3.651   6.663  12.047  1.7978  0.3547  0.4662
19037TIP3   OH278601   3.807   2.329  16.946 -0.3466 -0.1024 -0.7570
19037TIP3    H178602   3.873   2.274  16.988 -1.2266  0.0224  0.8920
19037TIP3    H278603   3.852   2.411  16.927 -0.0182 -0.0020  0.3866
19038TIP3   OH278604   5.424   1.946  16.624  0.4030  0.2680 -0.0709
19038TIP3    H178605   5.440   2.007  16.551  2.8389 -0.0460  0.1470
19038TIP3    H278606   5.482   1.976  16.693  1.4038 -2.0768  0.1767
19039TIP3   OH278607   6.689   2.059  12.702 -0.6964  0.0413  0.3234
19039TIP3    H178608   6.669   2.063  12.796 -2.1211  0.9731  0.0078
19039TIP3    H278609   6.677   1.967  12.680  0.9683 -0.4501  1.3005
19040TIP3   OH278610   3.063   2.178  10.963  0.7117  0.1959  0.1024
19040TIP3    H178611   3.121   2.160  10.889  0.1554 -2.5262  0.2171
19040TIP3    H278612   2.989   2.225  10.924  0.6649 -0.7450 -1.0224
19041TIP3   OH278613   5.911   3.850   5.621  0.5437 -0.1691 -0.4980
19041TIP3    H178614   5.830   3.801   5.636  1.2664 -1.4506 -0.7068
19041TIP3    H278615   5.968   3.825   5.694  1.3147 -0.4842 -1.1990
19042TIP3   OH278616   2.471   2.114  11.483  0.3632  0.2842 -0.0394
19042TIP3    H178617   2.386   2.078  11.507  0.6771 -0.8851 -0.6198
19042TIP3    H278618   2.494   2.070  11.401  1.7590  0.1739  0.3834
19043TIP3   OH278619   1.438   4.600   0.433 -0.4461 -0.3837  0.5112
19043TIP3    H178620   1.441   4.646   0.517  0.4939 -0.8430  0.7470
19043TIP3    H278621   1.503   4.531   0.442 -1.5866 -1.5567  0.0487
19044TIP3   OH278622   4.138   0.881  10.343  0.2648  0.1393 -0.1061
19044TIP3    H178623   4.172   0.922  10.263 -0.7032  2.3086  0.5157
19044TIP3    H278624   4.208   0.893  10.407  0.5710 -0.5569 -0.2965
19045TIP3   OH278625   3.730   1.985   3.800 -0.1770 -0.2416 -0.1785
19045TIP3    H178626   3.754   1.894   3.783 -0.6985 -0.5006  0.4258
19045TIP3    H278627   3.807   2.023   3.843 -0.4385 -0.7681  0.7771
19046TIP3   OH278628   0.570   0.818   2.515  0.0818  0.0083  0.3275
19046TIP3    H178629   0.515   0.895   2.500  0.5687  0.2215 -0.4330
19046TIP3    H278630   0.527   0.771   2.587 -0.9063  0.3401 -0.0281
19047TIP3   OH278631   0.099   0.762   5.801  0.3947 -0.4708 -0.1687
19047TIP3    H178632   0.054   0.746   5.884  1.7716 -0.2337  0.6670
19047TIP3    H278633   0.104   0.676   5.759 -0.2360 -0.6095  0.0337
19048TIP3   OH278634   4.755   1.772   3.716 -0.4763 -0.7133 -0.2756
19048TIP3    H178635   4.745   1.820   3.635 -1.3425 -1.4670 -0.6300
19048TIP3    H278636   4.827   1.711   3.699 -0.8600 -1.0817 -0.5836
19049TIP3   OH278637   0.947   4.720  13.370  0.6687 -0.4018 -0.1674
19049TIP3    H178638   0.941   4.812  13.346 -0.6025 -0.3133  0.3935
19049TIP3    H278639   0.980   4.676  13.292 -0.4091  0.2887 -1.0232
19050TIP3   OH278640   0.920   2.126  12.581  0.3005 -0.2403  0.3498
19050TIP3    H178641   0.865   2.053  12.551 -0.0958 -0.1010  0.7327
19050TIP3    H278642   0.908   2.193  12.514  1.6452 -0.9588 -0.6845
19051TIP3   OH278643   2.568   5.408  14.176 -0.1240 -0.4611  0.1399
19051TIP3    H178644   2.600   5.334  14.227 -2.0421 -1.7357 -0.3891
19051TIP3    H278645   2.495   5.443  14.228 -0.8798 -0.5943 -0.7937
19052TIP3   OH278646   5.367   1.892   6.293  0.4873  0.0478 -0.7093
19052TIP3    H178647   5.430   1.946   6.342 -1.4895  1.4922  0.3996
19052TIP3    H278648   5.418   1.856   6.221  2.8436  0.2217  0.7530
19053TIP3   OH278649   2.594   4.084  11.493 -0.3636 -0.8612  0.0255
19053TIP3    H178650   2.616   4.138  11.417  0.8556  1.5082  1.9359
19053TIP3    H278651   2.667   4.022  11.500  0.5613  0.2323  0.3841
19054TIP3   OH278652   3.585   4.043  12.968  0.3029  1.0451  0.5800
19054TIP3    H178653   3.672   4.062  12.933  0.1868 -0.5200 -0.6295
19054TIP3    H278654   3.578   3.948  12.967 -1.7621  1.1543 -0.1917
19055TIP3   OH278655   0.624   4.629   4.361  0.0995 -0.0660  0.5772
19055TIP3    H178656   0.572   4.703   4.331  1.4073  0.0160 -1.7123
19055TIP3    H278657   0.561   4.568   4.399 -1.2777  1.1783  0.3690
19056TIP3   OH278658   2.449   5.895   2.333  0.0613  0.1028 -0.1341
19056TIP3    H178659   2.537   5.880   2.299 -0.4949 -2.5003 -0.6815
19056TIP3    H278660   2.411   5.960   2.274  1.3618  0.7232 -0.3240
19057TIP3   OH278661   4.169   6.012   5.165 -0.3394  0.3256 -0.0617
19057TIP3    H178662   4.102   6.080   5.156 -0.0232  0.4156 -2.6966
19057TIP3    H278663   4.246   6.059   5.199 -0.6407  0.9243 -0.1816
19058TIP3   OH278664   0.549   4.226  14.399  0.4900  0.8681 -0.1468
19058TIP3    H178665   0.631   4.177  14.397 -1.0103 -1.8907  0.3222
19058TIP3    H278666   0.535   4.247  14.492 -0.0652 -0.1385  0.0208
19059TIP3   OH278667   0.119   0.577   2.037 -0.3860  0.4241  0.1745
19059TIP3    H178668   0.179   0.502   2.038 -0.5701  0.2361 -1.0183
19059TIP3    H278669   0.176   0.653   2.045 -0.2690  0.1724  2.4285
19060TIP3   OH278670   2.274   1.931   0.120  0.0413  0.0533  0.5195
19060TIP3    H178671   2.248   1.948   0.211 -1.5423  1.2837 -0.1129
19060TIP3    H278672   2.207   1.976   0.068 -0.2989 -2.3857 -1.2922
19061TIP3   OH278673   5.871   4.888   5.377  0.0440  0.1146 -0.3962
19061TIP3    H178674   5.865   4.980   5.404 -0.8240 -0.4152  1.3397
19061TIP3    H278675   5.944   4.853   5.428 -0.7657 -0.5833  0.3147
19062TIP3   OH278676   0.365   2.065   6.314 -0.0686 -0.4326  0.5193
19062TIP3    H178677   0.359   2.086   6.221 -1.8188 -1.8395  0.2522
19062TIP3    H278678   0.446   2.106   6.343 -0.8403  2.4024 -0.9773
19063TIP3   OH278679   4.850   0.581  13.025 -0.3117 -0.5510 -0.7274
19063TIP3    H178680   4.774   0.638  13.027  0.2221  0.1555  1.1999
19063TIP3    H278681   4.814   0.493  13.016 -1.3574 -0.2139  0.0693
19064TIP3   OH278682   6.752   5.566  14.369  0.1128 -0.1027  0.2493
19064TIP3    H178683   6.731   5.513  14.446  0.1545 -2.5520 -1.3121
19064TIP3    H278684   6.828   5.617  14.395  0.7372 -1.6178  1.5282
19065TIP3   OH278685   0.840   4.181   2.827 -0.1455  0.8551 -0.1545
19065TIP3    H178686   0.912   4.119   2.838 -0.8001  0.1621  0.2852
19065TIP3    H278687   0.839   4.231   2.908 -0.9560 -0.0037  0.3916
19066TIP3   OH278688   2.835   6.365  16.932 -0.4277  0.2881  0.1869
19066TIP3    H178689   2.852   6.441  16.876  1.0769  1.0693  1.6341
19066TIP3    H278690   2.885   6.382  17.012 -0.2736 -2.1053  0.6660
19067TIP3   OH278691   5.158   1.199  11.774  0.1816 -0.2254 -0.5640
19067TIP3    H178692   5.215   1.142  11.723 -0.7022 -0.6299 -1.1291
19067TIP3    H278693   5.196   1.198  11.862 -0.3104 -2.4431 -0.3182
19068TIP3   OH278694   5.515   0.193  13.404  0.6710  0.2474  0.1596
19068TIP3    H178695   5.435   0.245  13.409 -0.2133 -1.1106  1.0566
19068TIP3    H278696   5.574   0.233  13.467  1.1699  1.9418 -1.2987
19069TIP3   OH278697   0.887   6.565  16.117  0.6334 -0.2197  0.4242
19069TIP3    H178698   0.944   6.642  16.109 -1.1041  1.3029  1.8927
19069TIP3    H278699   0.902   6.533  16.206  0.3469 -0.7782  0.2776
19070TIP3   OH278700   2.966   0.944   2.852  0.0197  0.2836 -0.3021
19070TIP3    H178701   2.880   0.913   2.823  0.7278 -1.5370 -0.5387
19070TIP3    H278702   3.017   0.953   2.771  1.6856 -3.8513  0.0595
19071TIP3   OH278703   1.519   5.440  14.286 -0.1910  0.2561 -0.5876
19071TIP3    H178704   1.592   5.469  14.341  0.8146 -0.1950 -1.6329
19071TIP3    H278705   1.458   5.398  14.346  1.4600 -1.3517  0.0377
19072TIP3   OH278706   2.509   0.943   0.968 -0.3964 -0.0417 -0.2469
19072TIP3    H178707   2.505   0.879   1.039 -0.2245 -0.2591 -0.4325
19072TIP3    H278708   2.586   0.918   0.918 -0.8721 -0.2616 -0.8710
19073TIP3   OH278709   1.648   0.772  15.796 -0.6348  0.1695  0.6631
19073TIP3    H178710   1.636   0.740  15.707 -0.2364  0.4167  0.5172
19073TIP3    H278711   1.580   0.838  15.807  0.5389  1.6119 -0.1821
19074TIP3   OH278712   2.043   2.056  13.779  0.1671  0.5805  0.0043
19074TIP3    H178713   2.016   2.105  13.701 -0.5267 -0.0472 -0.1641
19074TIP3    H278714   1.961   2.022  13.815  0.7918 -2.6691 -1.3698
19075TIP3   OH278715   0.556   4.600   1.901  0.6283  0.4855 -0.4159
19075TIP3    H178716   0.463   4.591   1.923 -0.1946  1.6470 -3.0822
19075TIP3    H278717   0.592   4.513   1.913 -1.5790 -0.8099 -2.4693
19076TIP3   OH278718   2.663   4.541  17.334  0.1162 -0.7337 -0.2634
19076TIP3    H178719   2.725   4.511  17.267 -2.3389 -1.1155 -2.5233
19076TIP3    H278720   2.641   4.630  17.308  1.3412  0.2724  1.8594
19077TIP3   OH278721   1.732   1.783  15.577 -0.5270 -0.2894  0.1443
19077TIP3    H178722   1.684   1.726  15.518  1.5412 -0.4163 -1.5156
19077TIP3    H278723   1.763   1.725  15.647  1.5270 -1.3256 -1.5050
19078TIP3   OH278724   2.583   0.167  14.580 -0.4525 -0.1922 -0.3062
19078TIP3    H178725   2.656   0.228  14.567 -0.4058  0.0217  0.8175
19078TIP3    H278726   2.586   0.109  14.504  0.2049  0.5000 -0.8243
19079TIP3   OH278727   0.110   2.212  17.111  0.0790  0.4015 -0.1078
19079TIP3    H178728   0.125   2.188  17.203 -0.7933  0.1880 -0.0114
19079TIP3    H278729   0.017   2.193  17.096  0.3515 -0.1832 -1.2168
19080TIP3   OH278730   4.167   3.914  11.945 -0.2060 -0.0482  0.2801
19080TIP3    H178731   4.087   3.865  11.968 -0.4048  0.8498  1.5949
19080TIP3    H278732   4.236   3.870  11.995 -0.1202  0.0421  0.2394
19081TIP3   OH278733   4.836   4.666   4.697 -0.5707  0.1182 -0.2564
19081TIP3    H178734   4.823   4.700   4.608  0.5918 -0.7477 -0.7816
19081TIP3    H278735   4.799   4.578   4.694  1.8540 -0.9826 -0.7311
19082TIP3   OH278736   2.099   5.215  11.458  0.7428  0.0324  0.4659
19082TIP3    H178737   2.115   5.305  11.485  1.0956  0.6049 -1.4730
19082TIP3    H278738   2.006   5.212  11.436  1.0851  0.4813 -1.2163
19083TIP3   OH278739   1.030   6.790  16.067 -0.5164  0.6019  0.0661
19083TIP3    H178740   1.066   6.794  16.156 -0.6066 -0.3160  0.1587
19083TIP3    H278741   1.106   6.803  16.010 -0.2787  0.1451  0.2734
19084TIP3   OH278742   6.381   2.618   6.093  0.2570 -0.3680  0.0377
19084TIP3    H178743   6.433   2.675   6.036  0.2257  0.9886  1.2958
19084TIP3    H278744   6.292   2.653   6.086 -0.1500 -1.5131 -0.6773
19085TIP3   OH278745   5.346   0.224  14.955  0.6069 -0.1505 -0.4515
19085TIP3    H178746   5.385   0.249  15.039 -0.3191  0.1536 -0.0977
19085TIP3    H278747   5.336   0.307  14.908 -2.2092  0.2400  0.6131
19086TIP3   OH278748   3.728   0.144   0.220  0.5145 -0.4950  0.1013
19086TIP3    H178749   3.740   0.075   0.154  0.2784 -0.9005  0.4763
19086TIP3    H278750   3.658   0.111   0.277 -1.1860  1.0179 -0.9892
19087TIP3   OH278751   2.342   4.088   3.776 -0.2650  0.3233  0.1173
19087TIP3    H178752   2.280   4.129   3.716 -1.9733 -2.0790  0.0920
19087TIP3    H278753   2.426   4.095   3.731 -1.0600  0.7830 -1.3908
19088TIP3   OH278754   6.623   4.571   4.178  0.7308 -0.3715 -0.1365
19088TIP3    H178755   6.716   4.594   4.173  0.6052  0.0007 -1.1301
19088TIP3    H278756   6.614   4.498   4.117  0.5785 -1.1970  0.8490
19089TIP3   OH278757   5.076   1.934  15.291 -0.0807 -0.1929  0.1533
19089TIP3    H178758   5.117   1.962  15.372  0.1711  0.3374 -0.1459
19089TIP3    H278759   5.131   1.862  15.259 -0.6044 -0.8974  0.8198
19090TIP3   OH278760   6.704   0.002  12.690  0.5705 -0.1249 -0.4586
19090TIP3    H178761   6.640   0.047  12.634  0.3247 -0.3136 -0.3333
19090TIP3    H278762   6.752   0.073  12.733  0.4126  0.0184 -0.5159
19091TIP3   OH278763   0.000   3.983   3.010 -0.4314  0.2105 -0.4959
19091TIP3    H178764   0.036   3.894   3.017  2.0708  1.2000  0.6240
19091TIP3    H278765  -0.023   4.006   3.100  0.6562  1.3168 -0.4788
19092TIP3   OH278766   1.158   4.681   3.374 -0.3035  0.5730  0.0533
19092TIP3    H178767   1.123   4.737   3.304 -0.2714 -0.6182 -0.9396
19092TIP3    H278768   1.250   4.705   3.381 -0.5117  1.3338  0.3404
19093TIP3   OH278769   0.725   1.969  12.084 -0.2931  0.4380  0.7486
19093TIP3    H178770   0.775   2.030  12.029 -0.6935  1.3879  1.4002
19093TIP3    H278771   0.706   2.020  12.164 -2.2814  0.1104  0.5242
19094TIP3   OH278772   4.340   6.497   3.452  0.2586 -0.0915 -0.3523
19094TIP3    H178773   4.333   6.430   3.384  1.3536  1.4925 -2.1342
19094TIP3    H278774   4.375   6.573   3.407  1.8375  0.8098  2.1674
19095TIP3   OH278775   4.215   1.232  16.644  0.3823  0.3585 -0.0197
19095TIP3    H178776   4.289   1.291  16.632 -1.1808  2.1420 -1.5714
19095TIP3    H278777   4.227   1.164  16.577  1.6012 -0.5095  1.0367
19096TIP3   OH278778   4.409   5.794  13.163  0.4303  0.5952 -0.1017
19096TIP3    H178779   4.463   5.746  13.100 -0.5941 -3.6162  1.8892
19096TIP3    H278780   4.472   5.841  13.218  1.6650  0.0094 -0.9748
19097TIP3   OH278781   6.552   0.131   4.496  0.0567 -0.1707 -0.2143
19097TIP3    H178782   6.509   0.211   4.525  1.4972 -0.1108  1.9808
19097TIP3    H278783   6.485   0.063   4.504 -0.4801  0.4055  0.2647
19098TIP3   OH278784   0.438   4.288   5.539 -0.2659  0.0192  0.7596
19098TIP3    H178785   0.459   4.380   5.554 -1.2170  0.3521  0.0526
19098TIP3    H278786   0.421   4.281   5.445  2.3050 -1.3943  0.3018
19099TIP3   OH278787   2.799   0.116   2.552 -0.1883  0.1282 -0.6697
19099TIP3    H178788   2.747   0.194   2.532  0.1961  0.2906 -1.0389
19099TIP3    H278789   2.887   0.149   2.568  0.0003 -0.2392 -0.9251
19100TIP3   OH278790   0.568   1.913  12.873  0.1783 -0.4549 -0.3153
19100TIP3    H178791   0.543   1.913  12.781  1.6693 -1.7328 -0.7615
19100TIP3    H278792   0.615   1.996  12.884  0.8796 -0.7496 -0.9822
19101TIP3   OH278793   6.710   4.622  14.519 -0.0526  0.5548  0.4113
19101TIP3    H178794   6.773   4.690  14.541 -0.7804  2.6247 -3.1737
19101TIP3    H278795   6.749   4.575  14.445 -0.5407 -1.6008  1.4354
19102TIP3   OH278796   3.038   4.410   5.274 -0.2851  0.5525  0.0835
19102TIP3    H178797   3.028   4.347   5.344  0.5192 -0.8202 -0.9833
19102TIP3    H278798   3.133   4.417   5.261 -0.3989  1.1754 -0.5162
19103TIP3   OH278799   2.692   4.758   3.945 -0.5702 -0.6178  0.3729
19103TIP3    H178800   2.764   4.801   3.992 -1.4854  0.1657  1.1088
19103TIP3    H278801   2.680   4.675   3.991 -2.1800  0.5932  2.3783
19104TIP3   OH278802   5.852   3.385   6.216  0.0607 -0.3307  0.7972
19104TIP3    H178803   5.809   3.320   6.160  1.0941  0.5649 -1.1134
19104TIP3    H278804   5.817   3.368   6.303 -0.7274 -2.5506  0.1106
19105TIP3   OH278805   3.088   5.958  10.687 -0.1031  0.4979  0.2968
19105TIP3    H178806   3.062   5.912  10.607  0.4576  0.5280  0.0978
19105TIP3    H278807   3.127   6.040  10.656  0.2988  0.4186  0.5945
19106TIP3   OH278808   0.160   5.602   2.626  0.4401 -0.1356 -0.3236
19106TIP3    H178809   0.123   5.638   2.546 -0.6843  3.2020  1.4890
19106TIP3    H278810   0.084   5.589   2.683  1.4677  1.8562  1.6688
19107TIP3   OH278811   3.513   4.355   0.896  0.1769 -0.0246 -0.0379
19107TIP3    H178812   3.547   4.278   0.848  0.3809 -0.4358  0.7449
19107TIP3    H278813   3.568   4.427   0.866  1.4890 -0.6034  0.8672
19108TIP3   OH278814   2.708   2.211  15.384 -0.3469 -0.4734 -0.1303
19108TIP3    H178815   2.634   2.153  15.365  0.5556 -1.6694 -0.0613
19108TIP3    H278816   2.668   2.285  15.430 -1.3396 -1.8536  1.3758
19109TIP3   OH278817   5.716   1.046  14.611  0.1921  0.5367  0.3329
19109TIP3    H178818   5.732   1.118  14.549 -0.6756  0.1006 -0.4313
19109TIP3    H278819   5.790   0.988  14.599 -0.5073 -0.1166 -1.1812
19110TIP3   OH278820   5.856   3.721   4.294  0.2361 -0.1543 -0.4132
19110TIP3    H178821   5.865   3.760   4.381  1.0001 -2.4692  0.6422
19110TIP3    H278822   5.927   3.760   4.243 -0.0872  1.0773  0.0510
19111TIP3   OH278823   4.270   3.436   4.396 -0.1473 -0.0635 -0.2588
19111TIP3    H178824   4.186   3.475   4.417  0.7104  2.0077 -0.4975
19111TIP3    H278825   4.282   3.454   4.303  0.4306 -0.5971 -0.2953
19112TIP3   OH278826   5.204   6.722   1.880  0.2560  0.2890 -0.4096
19112TIP3    H178827   5.161   6.731   1.795 -1.8521  3.8404  0.7960
19112TIP3    H278828   5.267   6.793   1.882  1.4840 -0.7829  0.4243
19113TIP3   OH278829   6.148   2.907  12.600 -0.5652 -0.1844  0.2850
19113TIP3    H178830   6.102   2.866  12.526  0.0249 -1.6431  0.6875
19113TIP3    H278831   6.178   2.991  12.566 -1.3239 -0.3111 -0.7680
19114TIP3   OH278832   0.626   2.477  17.028  0.2577 -0.0613  0.1264
19114TIP3    H178833   0.641   2.387  17.000 -0.6177  0.0413 -0.7413
19114TIP3    H278834   0.606   2.471  17.121 -0.2315 -0.8213 -0.0206
19115TIP3   OH278835   0.813   1.978   1.339  0.2871  0.0263 -0.1759
19115TIP3    H178836   0.835   2.015   1.253  2.3443  0.6000  0.5391
19115TIP3    H278837   0.855   1.892   1.340 -1.5813 -0.9491 -0.5200
19116TIP3   OH278838   4.273   1.268  14.659  0.3146  0.1241 -0.0939
19116TIP3    H178839   4.238   1.210  14.726  0.5493  0.7447  0.5766
19116TIP3    H278840   4.357   1.229  14.634  1.0302  0.7798  1.1960
19117TIP3   OH278841   2.991   4.055  15.764 -0.5159  0.3253 -0.3819
19117TIP3    H178842   2.928   3.997  15.808 -0.2409 -0.0978 -0.5402
19117TIP3    H278843   3.059   3.996  15.731 -1.0048  0.5433 -1.8808
19118TIP3   OH278844   5.132   3.485  15.234  0.5802 -0.4203  0.5316
19118TIP3    H178845   5.149   3.570  15.275  0.9991  0.0315 -0.5194
19118TIP3    H278846   5.037   3.476  15.234  0.6024 -1.1677  2.9763
19119TIP3   OH278847   1.317   6.362  13.305  0.5448 -0.5391 -0.2688
19119TIP3    H178848   1.230   6.378  13.267 -0.0924  0.3040  1.4255
19119TIP3    H278849   1.348   6.283  13.261 -0.9813 -0.7215 -1.0903
19120TIP3   OH278850   0.237   2.999   1.807  0.3205 -0.0252  0.4706
19120TIP3    H178851   0.193   2.990   1.892  0.5452  0.9657  0.7011
19120TIP3    H278852   0.307   2.933   1.810 -0.9051 -1.3708  0.2346
19121TIP3   OH278853   4.575   6.159  11.183  0.0343 -0.5177 -0.3341
19121TIP3    H178854   4.608   6.185  11.269  1.0759  0.5642 -1.0179
19121TIP3    H278855   4.651   6.166  11.126 -0.9862  0.3414 -1.6444
19122TIP3   OH278856   2.666   2.920   4.261 -0.0533  0.0808  0.5538
19122TIP3    H178857   2.738   2.947   4.318 -0.3472  1.1433  0.4426
19122TIP3    H278858   2.699   2.936   4.172 -0.1851 -0.0598  0.4795
19123TIP3   OH278859   6.201   4.369   4.169 -0.4029  0.0414 -0.2442
19123TIP3    H178860   6.137   4.403   4.107  0.3214  3.3725  0.6848
19123TIP3    H278861   6.154   4.366   4.252 -0.3605 -1.0922 -0.2406
19124TIP3   OH278862   5.050   1.515   1.854  0.4106  0.4340  0.0244
19124TIP3    H178863   5.102   1.533   1.932  1.3033 -2.1317  0.0962
19124TIP3    H278864   5.089   1.570   1.786  1.6301  0.3817  0.6641
19125TIP3   OH278865   2.515   4.851  15.839  0.2676  0.2861 -0.2694
19125TIP3    H178866   2.609   4.836  15.839  0.4493  1.3249 -0.8318
19125TIP3    H278867   2.486   4.824  15.752  0.2628  1.1871 -0.5543
19126TIP3   OH278868   2.316   4.342   2.945 -0.4424 -0.5129  0.7748
19126TIP3    H178869   2.308   4.368   3.037  0.2564  0.9402  0.4500
19126TIP3    H278870   2.227   4.353   2.909 -0.8008 -1.4365  1.3359
19127TIP3   OH278871   6.760   0.800   3.467 -0.3453 -0.0128  0.1074
19127TIP3    H178872   6.823   0.728   3.473 -1.5569 -1.5082 -3.1020
19127TIP3    H278873   6.814   0.877   3.447  0.9589  0.1586  3.5276
19128TIP3   OH278874   2.941   3.370   4.487  0.0005  0.2498  0.3881
19128TIP3    H178875   3.002   3.371   4.561 -2.0841  1.1626  2.2052
19128TIP3    H278876   2.909   3.460   4.481 -0.2155  0.1000 -1.3956
19129TIP3   OH278877   1.014   3.320   5.455  0.3705 -0.3493 -0.0738
19129TIP3    H178878   1.039   3.407   5.488 -1.1409  1.1339 -2.4932
19129TIP3    H278879   1.096   3.272   5.450  1.4226  1.2971  0.4070
19130TIP3   OH278880   5.148   6.287   2.466  0.9830 -0.3093 -0.3183
19130TIP3    H178881   5.150   6.269   2.372  2.2668  0.9544 -0.5689
19130TIP3    H278882   5.236   6.266   2.497  0.7655 -0.1030  0.4771
19131TIP3   OH278883   4.479   3.048  16.952  0.0843 -0.2690 -0.2526
19131TIP3    H178884   4.403   3.102  16.929 -0.0583 -0.0732  0.6404
19131TIP3    H278885   4.512   3.087  17.033  1.5584  0.0657 -0.9827
19132TIP3   OH278886   4.695   1.036   3.717  0.5135  0.1540  0.1514
19132TIP3    H178887   4.768   1.097   3.709  0.4822  0.2011  0.2209
19132TIP3    H278888   4.715   0.985   3.796  0.0124  0.7861  0.6978
19133TIP3   OH278889   5.332   1.267   4.318  0.0798 -0.4746 -0.5898
19133TIP3    H178890   5.313   1.356   4.289 -0.2621  0.1141  1.3033
19133TIP3    H278891   5.426   1.257   4.305  0.1517  0.2374 -0.6551
19134TIP3   OH278892   6.280   0.249   4.977  0.4408 -0.1356  0.0839
19134TIP3    H178893   6.333   0.186   5.026  0.5914  0.5661  0.8532
19134TIP3    H278894   6.269   0.209   4.891 -0.0243 -1.5040  0.7488
19135TIP3   OH278895   2.410   2.783   4.281 -0.1038  0.4759 -0.7957
19135TIP3    H178896   2.482   2.836   4.249  0.7140 -1.0520 -1.5657
19135TIP3    H278897   2.409   2.706   4.225 -1.5707 -0.1062 -0.0335
19136TIP3   OH278898   2.620   2.949  11.077  0.2624 -0.4138  0.4903
19136TIP3    H178899   2.557   2.963  11.006 -0.3493  2.7201  1.5008
19136TIP3    H278900   2.571   2.902  11.144  0.2787 -1.6799 -0.3600
19137TIP3   OH278901   3.303   3.480   1.414  0.1693 -0.1375 -0.1657
19137TIP3    H178902   3.223   3.510   1.455  0.6855 -0.3250  1.0051
19137TIP3    H278903   3.288   3.491   1.320 -0.9362  0.5180  0.0833
19138TIP3   OH278904   6.170   3.162   1.227 -0.0182  0.3290 -0.1044
19138TIP3    H178905   6.259   3.195   1.237  0.8788 -1.0248 -2.6255
19138TIP3    H278906   6.167   3.127   1.138 -2.9062 -0.2448  0.1060
19139TIP3   OH278907   1.226   3.334  15.298  0.2226 -0.0787  0.2647
19139TIP3    H178908   1.227   3.247  15.338  2.3398  0.1497  0.8369
19139TIP3    H278909   1.277   3.324  15.217  1.7994  0.8910  1.0761
19140TIP3   OH278910   1.555   0.760   5.043 -0.0633 -0.9644 -0.1422
19140TIP3    H178911   1.596   0.694   4.986  1.2921 -1.7439  1.6416
19140TIP3    H278912   1.624   0.786   5.103 -1.7012 -0.9531  1.8295
19141TIP3   OH278913   5.980   2.830   3.109  0.0766  0.1492 -0.4047
19141TIP3    H178914   5.885   2.829   3.119  0.2894 -1.6209  2.6834
19141TIP3    H278915   5.997   2.768   3.038 -1.0547  0.1129 -0.6546
19142TIP3   OH278916   6.104   0.646  11.373  0.8981 -0.5937  0.1849
19142TIP3    H178917   6.099   0.556  11.405 -0.4324 -0.5486  0.1586
19142TIP3    H278918   6.013   0.670  11.353  1.1623  0.9297  0.6628
19143TIP3   OH278919   2.277   5.997  16.923 -0.2064 -1.0330 -0.2527
19143TIP3    H178920   2.300   5.906  16.941  0.9298 -1.0144 -1.4067
19143TIP3    H278921   2.311   6.046  16.998  0.4743 -1.4119 -0.3020
19144TIP3   OH278922   0.420   1.208  14.221 -0.3886 -0.3547 -0.1791
19144TIP3    H178923   0.485   1.250  14.277 -1.3562  1.3556 -0.2725
19144TIP3    H278924   0.416   1.118  14.253  0.3853  0.1070  1.3119
19145TIP3   OH278925   4.227   5.031   5.397 -0.1164 -0.0973 -0.2959
19145TIP3    H178926   4.241   4.994   5.484  0.2671  0.0398 -0.2984
19145TIP3    H278927   4.163   5.101   5.410 -0.2261 -0.2226 -0.1602
19146TIP3   OH278928   4.959   0.705  16.537 -0.0823 -0.7185  0.0142
19146TIP3    H178929   4.903   0.723  16.612  1.2563  2.0792  0.4833
19146TIP3    H278930   4.909   0.735  16.461 -0.2045 -0.5638  0.1562
19147TIP3   OH278931   3.795   0.525   3.703  0.0777  0.1625  0.3859
19147TIP3    H178932   3.764   0.615   3.695 -1.7156 -0.3842  0.6091
19147TIP3    H278933   3.803   0.494   3.613 -0.1542  0.2887  0.3213
19148TIP3   OH278934   2.433   6.399  13.398 -0.9207  0.2173  0.1486
19148TIP3    H178935   2.339   6.417  13.401 -0.9703 -0.0672  0.3713
19148TIP3    H278936   2.450   6.347  13.477 -0.3853  1.1737  0.6895
19149TIP3   OH278937   0.790   5.858   1.506  0.2735  0.1706  0.1238
19149TIP3    H178938   0.716   5.918   1.499 -0.4011 -0.3100  2.2944
19149TIP3    H278939   0.828   5.856   1.418 -0.9925  2.0626 -0.5301
19150TIP3   OH278940   4.964   6.204   2.689 -0.0361 -0.1189  0.3482
19150TIP3    H178941   5.008   6.225   2.606  2.5614 -1.7008  1.1851
19150TIP3    H278942   4.999   6.118   2.713 -0.9664  0.1403  2.9233
19151TIP3   OH278943   5.599   0.516  13.907  0.7196  0.5488  0.7592
19151TIP3    H178944   5.608   0.421  13.899 -0.6178  0.4976 -0.5771
19151TIP3    H278945   5.535   0.528  13.977  1.9658  0.5449  1.9413
19152TIP3   OH278946   0.788   4.605   6.070  0.5976 -0.3264 -0.0351
19152TIP3    H178947   0.791   4.516   6.103  0.9305 -1.0118 -1.7831
19152TIP3    H278948   0.872   4.618   6.026  1.1601  1.3921  1.4172
19153TIP3   OH278949   2.405   3.933   4.922 -0.1730 -0.1014  0.4086
19153TIP3    H178950   2.379   3.849   4.959  0.6072  0.6571  2.8941
19153TIP3    H278951   2.342   3.996   4.959 -1.5941  0.3388 -2.4603
19154TIP3   OH278952   0.610   4.701   1.381 -0.2192 -0.0815 -0.0415
19154TIP3    H178953   0.612   4.698   1.477  0.2789  1.3133  0.0262
19154TIP3    H278954   0.582   4.614   1.354 -0.5245 -0.4450  1.3791
19155TIP3   OH278955   6.432   2.391  15.414 -0.2310  0.1818 -0.2244
19155TIP3    H178956   6.458   2.341  15.491 -0.2497  2.0539  1.0620
19155TIP3    H278957   6.456   2.335  15.340  0.4768 -1.3557  1.1103
19156TIP3   OH278958   4.508   0.516  15.225  0.4051 -0.2787  0.2397
19156TIP3    H178959   4.421   0.519  15.186 -0.5152  1.5326  2.2097
19156TIP3    H278960   4.525   0.606  15.253  3.8551 -0.1122 -1.8783
19157TIP3   OH278961   2.903   6.149  13.958 -0.0351 -0.4359 -0.4006
19157TIP3    H178962   2.870   6.120  14.043  0.4921  0.0125 -0.0431
19157TIP3    H278963   2.843   6.219  13.932 -1.1158 -1.5763 -1.1153
19158TIP3   OH278964   5.409   0.003  16.081 -0.2343  0.3160  0.4290
19158TIP3    H178965   5.375   0.059  16.151 -1.2870 -1.2024  1.1934
19158TIP3    H278966   5.412  -0.084  16.120 -0.0640 -0.4295 -1.1796
19159TIP3   OH278967   6.286   1.881   2.793  0.1115 -0.0633 -0.5325
19159TIP3    H178968   6.352   1.903   2.726  2.4040  0.4675  1.7529
19159TIP3    H278969   6.280   1.785   2.789 -1.1997  0.0366 -2.6696
19160TIP3   OH278970   0.198   0.025   0.959 -0.4007  0.2487 -0.3089
19160TIP3    H178971   0.126   0.087   0.971 -1.0976 -0.7284  0.6288
19160TIP3    H278972   0.181  -0.046   1.020  0.1280 -1.1346 -1.6777
19161TIP3   OH278973   5.772   4.406   2.914  0.3153 -0.1348  0.4945
19161TIP3    H178974   5.801   4.351   2.841  0.7634  0.0573  0.5207
19161TIP3    H278975   5.851   4.415   2.968 -0.0171 -0.2888  1.0101
19162TIP3   OH278976   3.947   3.019  12.261  0.0099 -0.6374 -0.3353
19162TIP3    H178977   3.867   3.053  12.300  0.8947  0.3427  0.6805
19162TIP3    H278978   3.993   2.977  12.333  1.0589  0.0448 -0.5819
19163TIP3   OH278979   0.230   3.174  16.827  0.3631  0.4156  0.1530
19163TIP3    H178980   0.234   3.219  16.912 -0.5185  1.7344 -0.4721
19163TIP3    H278981   0.303   3.211  16.778  0.8484 -0.3193  0.3070
19164TIP3   OH278982   1.833   0.389  13.342 -0.0490  0.0694 -0.2350
19164TIP3    H178983   1.900   0.322  13.328  0.4109  0.4447  0.1063
19164TIP3    H278984   1.825   0.395  13.437  1.2758  1.7929 -0.1727
19165TIP3   OH278985   2.633   1.534   1.411 -0.1269 -0.1980  0.9591
19165TIP3    H178986   2.595   1.447   1.402 -2.0490  0.7949 -1.4280
19165TIP3    H278987   2.714   1.520   1.461 -1.2237 -3.0634  2.1269
19166TIP3   OH278988   2.936   4.154  15.196  0.5092 -0.5277  0.5088
19166TIP3    H178989   2.886   4.233  15.216  0.4658 -0.4310  0.0131
19166TIP3    H278990   3.015   4.185  15.151 -0.5190 -0.9039 -1.6505
19167TIP3   OH278991   2.654   6.581   1.378 -0.3725  0.0604  0.0880
19167TIP3    H178992   2.629   6.565   1.469 -0.3947 -0.4770 -0.0098
19167TIP3    H278993   2.572   6.573   1.329 -0.3434  0.2470  0.0104
19168TIP3   OH278994   5.354   3.060   4.882 -0.0961  0.0196  0.4057
19168TIP3    H178995   5.376   3.132   4.822 -1.1529  1.1794  1.3494
19168TIP3    H278996   5.424   3.061   4.947  0.5440 -0.6178 -0.2640
19169TIP3   OH278997   4.369   5.477  10.647 -0.1567  0.4398 -0.4622
19169TIP3    H178998   4.431   5.431  10.702  0.4482  1.1917 -0.5014
19169TIP3    H278999   4.291   5.488  10.702 -0.1077 -0.1339 -0.2760
19170TIP3   OH279000   6.476   5.330  12.022  0.3277 -0.1968 -0.4456
19170TIP3    H179001   6.468   5.243  12.060  1.9193  0.1660  0.8295
19170TIP3    H279002   6.451   5.318  11.930 -1.4346 -1.5487  0.1514
19171TIP3   OH279003   5.893   0.208   3.353  0.2189 -0.3363 -0.3317
19171TIP3    H179004   5.968   0.266   3.366  1.0966 -1.4260 -0.3223
19171TIP3    H279005   5.855   0.236   3.269  1.8843 -1.0359 -1.3768
19172TIP3   OH279006   0.356   3.061  11.961 -0.6216 -0.7885  0.5324
19172TIP3    H179007   0.389   3.119  12.029 -2.0582  1.0746 -0.2714
19172TIP3    H279008   0.356   2.974  12.001  1.0563 -0.1716  1.9771
19173TIP3   OH279009   0.509   3.202  13.614  0.3438 -0.1113 -0.0259
19173TIP3    H179010   0.529   3.294  13.595  1.2625 -0.7967 -2.8980
19173TIP3    H279011   0.503   3.198  13.709  1.1420  2.7399  0.2483
19174TIP3   OH279012   5.880   5.294  11.770 -0.4751  0.6153 -0.3124
19174TIP3    H179013   5.915   5.224  11.825  0.7645  1.1426 -0.3876
19174TIP3    H279014   5.901   5.266  11.681  0.8926  1.5157 -0.2913
19175TIP3   OH279015   5.474   3.343   5.453  0.3441  0.5369  0.1422
19175TIP3    H179016   5.481   3.343   5.548  0.4157 -0.6263  0.1453
19175TIP3    H279017   5.424   3.264   5.432  0.1478  0.8860 -0.7783
19176TIP3   OH279018   0.248   5.491   3.426  0.8455  0.0363  0.2773
19176TIP3    H179019   0.240   5.421   3.492  0.8070 -1.3983 -1.1879
19176TIP3    H279020   0.341   5.513   3.427  0.4879  1.8740  2.5567
19177TIP3   OH279021   3.046   5.283  15.897 -0.2010 -0.0647  0.7419
19177TIP3    H179022   2.981   5.257  15.832  0.5714 -0.4481  0.1113
19177TIP3    H279023   3.079   5.367  15.866 -1.0877  0.6238  1.5913
19178TIP3   OH279024   1.519   5.482   5.315 -0.3637  0.0652  0.8265
19178TIP3    H179025   1.453   5.456   5.379 -0.7723 -1.0779 -0.0098
19178TIP3    H279026   1.472   5.542   5.256 -0.8094 -1.0769 -0.0148
19179TIP3   OH279027   3.882   5.157   2.810  0.0399  0.1581 -0.2266
19179TIP3    H179028   3.890   5.079   2.864  0.9578  0.6073  0.3156
19179TIP3    H279029   3.829   5.217   2.863  0.1853  0.2730 -0.2121
19180TIP3   OH279030   3.447   2.137  12.030  0.2013  0.1104  0.1339
19180TIP3    H179031   3.461   2.187  12.110  1.0366  1.5306 -0.8424
19180TIP3    H279032   3.352   2.136  12.018  0.0851  0.0751  1.0043
19181TIP3   OH279033   3.443   4.340  17.097  0.7515 -0.0383 -0.0445
19181TIP3    H179034   3.519   4.286  17.118  0.5202 -0.9998 -1.5121
19181TIP3    H279035   3.447   4.352  17.002 -0.6542  0.3038 -0.0905
19182TIP3   OH279036   1.032   6.073  12.804 -0.0781  0.2611 -0.0765
19182TIP3    H179037   1.113   6.117  12.782  0.0880 -0.2776 -0.5487
19182TIP3    H279038   0.977   6.083  12.727 -0.8644  1.5034  0.5957
19183TIP3   OH279039   3.049   2.119   2.766  1.1076 -0.2161  0.0013
19183TIP3    H179040   2.973   2.141   2.712  0.9749 -1.2827 -0.2732
19183TIP3    H279041   3.050   2.185   2.835 -0.4677 -0.5630  0.3931
19184TIP3   OH279042   1.116   1.897   1.881  0.1935  0.1760 -0.4003
19184TIP3    H179043   1.077   1.922   1.797  0.8719 -0.4870 -0.9126
19184TIP3    H279044   1.169   1.820   1.862  1.4607  0.8245  0.3609
19185TIP3   OH279045   0.660   1.989   4.876  0.7457 -0.6771  0.0718
19185TIP3    H179046   0.589   1.981   4.813  0.0267  0.1315  0.7361
19185TIP3    H279047   0.721   1.919   4.854 -0.0147 -1.0741 -0.8301
19186TIP3   OH279048   0.007   4.454  14.702 -0.7259  0.1652 -0.1533
19186TIP3    H179049  -0.053   4.518  14.664 -1.1203  0.0889  0.3424
19186TIP3    H279050   0.067   4.433  14.630 -1.8933 -0.5029 -0.9624
19187TIP3   OH279051   2.233   1.807   1.763 -0.3074 -0.0904  0.5080
19187TIP3    H179052   2.219   1.900   1.744  3.7292  0.5370 -0.3453
19187TIP3    H279053   2.328   1.798   1.770 -0.5974 -3.9811  1.7935
19188TIP3   OH279054   4.932   0.362  12.595 -0.2670 -0.3806  0.6407
19188TIP3    H179055   4.896   0.400  12.515 -1.3682 -0.8730  0.8744
19188TIP3    H279056   4.973   0.436  12.641  0.4564 -0.1148 -0.4064
19189TIP3   OH279057   6.325   5.064   1.932  0.6691  0.7886 -0.3461
19189TIP3    H179058   6.294   4.994   1.875  0.9423 -0.1771  0.6506
19189TIP3    H279059   6.246   5.110   1.959  0.0936 -1.0820  1.4438
19190TIP3   OH279060   4.171   3.808   2.911 -0.2892 -0.3170  0.3975
19190TIP3    H179061   4.097   3.866   2.893 -0.2839 -0.2941  0.4495
19190TIP3    H279062   4.240   3.838   2.852 -0.1197  0.0512  0.7769
19191TIP3   OH279063   0.457   2.424  16.807 -0.1869 -0.6466  0.1799
19191TIP3    H179064   0.521   2.462  16.866 -0.3846 -0.5391  0.3253
19191TIP3    H279065   0.377   2.416  16.859 -1.0112  1.4595 -0.6384
19192TIP3   OH279066   0.441   5.392  17.101 -0.6751 -0.6835 -0.2006
19192TIP3    H179067   0.504   5.322  17.117  0.9822  0.8102  0.1224
19192TIP3    H279068   0.494   5.472  17.097 -2.3720  0.4444 -1.6045
19193TIP3   OH279069   4.837   3.904  15.650 -0.1007  0.1312 -0.6072
19193TIP3    H179070   4.891   3.861  15.716 -0.3573 -3.0970 -2.3088
19193TIP3    H279071   4.849   3.997  15.667  0.5717 -0.4724  3.3276
19194TIP3   OH279072   3.662   2.798   0.570  0.1571 -0.8045  0.2611
19194TIP3    H179073   3.720   2.722   0.566  0.8558 -0.3161  0.8302
19194TIP3    H279074   3.719   2.872   0.548  0.3512 -0.0081  3.1101
19195TIP3   OH279075   5.706   6.460   1.879  0.2949  0.1187  0.0672
19195TIP3    H179076   5.764   6.387   1.899  0.3084 -0.4756 -1.9535
19195TIP3    H279077   5.684   6.497   1.965  1.6096 -1.2042  1.0293
19196TIP3   OH279078   5.092   2.857   2.763  0.0289  0.2633 -0.4274
19196TIP3    H179079   5.055   2.770   2.783 -0.3746  0.4978 -0.1258
19196TIP3    H279080   5.066   2.873   2.673  0.4003 -0.0782 -0.5969
19197TIP3   OH279081   6.038   4.847  12.980  0.1084  0.0244  0.1127
19197TIP3    H179082   6.087   4.929  12.984  1.1738 -0.4227 -2.0538
19197TIP3    H279083   6.002   4.836  13.068  1.5334  1.8383  0.9910
19198TIP3   OH279084   1.403   6.366   4.880  0.0364  0.6151 -0.5347
19198TIP3    H179085   1.480   6.416   4.853 -0.8541  1.5797 -1.3480
19198TIP3    H279086   1.358   6.423   4.942  0.4869 -0.3683  0.7487
19199TIP3   OH279087   4.868   3.041   4.789  0.1444 -0.1660 -0.3801
19199TIP3    H179088   4.958   3.049   4.757  0.2063  0.6026 -0.0423
19199TIP3    H279089   4.824   2.986   4.724  1.3653 -2.2863  0.5189
19200TIP3   OH279090   2.738   3.591  14.264 -0.0713 -0.2059 -0.6805
19200TIP3    H179091   2.828   3.607  14.235  0.1378 -1.4721 -0.8020
19200TIP3    H279092   2.697   3.546  14.190 -0.1551 -1.5725  0.1562
19201TIP3   OH279093   2.562   1.364  12.696 -0.3401 -0.2234  0.2964
19201TIP3    H179094   2.567   1.285  12.642 -2.5780 -0.9711  1.0892
19201TIP3    H279095   2.538   1.433  12.635 -0.9070 -0.6768 -0.0041
19202TIP3   OH279096   6.162   4.732   1.554  0.2588  0.0796 -0.8331
19202TIP3    H179097   6.082   4.716   1.604  0.2080 -0.9597 -1.2173
19202TIP3    H279098   6.136   4.723   1.463  0.7182  0.1683 -0.9783
19203TIP3   OH279099   5.472   2.486   0.093  0.1280 -0.2434  0.0461
19203TIP3    H179100   5.453   2.406   0.141 -0.5083  0.4154  0.9218
19203TIP3    H279101   5.503   2.548   0.159 -0.2513  0.5202 -0.4672
19204TIP3   OH279102   2.589   4.936   5.310  0.3853 -0.2046 -0.4197
19204TIP3    H179103   2.601   4.877   5.384 -0.2236  1.4790  1.1147
19204TIP3    H279104   2.666   4.993   5.312 -0.4588  0.9756  0.0781
19205TIP3   OH279105   2.871   4.013  10.986  0.0198  0.2803 -0.6946
19205TIP3    H179106   2.956   3.970  10.997 -0.5002 -0.4631  0.7905
19205TIP3    H279107   2.886   4.102  11.017 -0.2544 -0.5038  1.9744
19206TIP3   OH279108   2.938   2.914   4.979  0.1761 -0.4576  0.0822
19206TIP3    H179109   2.884   2.950   4.908 -0.0857 -1.2596 -0.1350
19206TIP3    H279110   3.026   2.908   4.942  0.4877  1.0273  0.4956
19207TIP3   OH279111   3.069   4.216   1.748 -0.1817  0.2340  0.5954
19207TIP3    H179112   3.150   4.227   1.797  0.4345  1.2536 -0.6085
19207TIP3    H279113   3.014   4.289   1.777  0.5679  1.4472 -0.9222
19208TIP3   OH279114   2.111   5.622  14.413 -0.8111 -0.5518 -0.6329
19208TIP3    H179115   2.185   5.659  14.462  0.2659  0.2183 -2.7244
19208TIP3    H279116   2.034   5.664  14.451  0.0596  0.6921 -0.1878
19209TIP3   OH279117   6.662   3.080   3.774 -0.4482 -0.4969  0.0075
19209TIP3    H179118   6.602   3.033   3.831  0.8702 -1.3590  0.7364
19209TIP3    H279119   6.707   3.142   3.831 -0.3628 -0.1400 -0.4417
19210TIP3   OH279120   5.246   4.242   1.330 -0.3721 -0.0269  0.0662
19210TIP3    H179121   5.246   4.147   1.316 -0.6411  0.1430 -1.2790
19210TIP3    H279122   5.154   4.265   1.338 -0.2795  0.0588  0.9789
19211TIP3   OH279123   5.960   4.573   5.278  0.0959  0.4603  0.5025
19211TIP3    H179124   5.882   4.522   5.298 -0.2491  0.6538 -0.3350
19211TIP3    H279125   6.015   4.514   5.226 -0.2305  0.8761 -0.3271
19212TIP3   OH279126   1.536   3.255   4.831 -0.4211  0.3501  0.0299
19212TIP3    H179127   1.489   3.274   4.912  0.3784  0.4517  0.4887
19212TIP3    H279128   1.553   3.161   4.835 -0.2827  0.3745  0.0438
19213TIP3   OH279129   2.012   0.623   5.128  0.2911 -0.2106 -0.1483
19213TIP3    H179130   1.939   0.573   5.164 -1.4174  1.2068 -1.4586
19213TIP3    H279131   2.059   0.560   5.073 -0.2661 -1.0091  0.2630
19214TIP3   OH279132   2.059   1.764   5.376  0.0878  0.0086 -0.0251
19214TIP3    H179133   2.142   1.716   5.384  0.1899  0.4438  2.7494
19214TIP3    H279134   2.081   1.854   5.398 -1.0068  0.2730  0.0521
19215TIP3   OH279135   3.828   3.726   1.065  0.5193 -0.3907 -0.3970
19215TIP3    H179136   3.753   3.716   1.006  1.3929  0.6225 -1.7216
19215TIP3    H279137   3.905   3.715   1.010  1.3728 -0.6163  0.7902
19216TIP3   OH279138   3.252   2.476  11.342 -0.4045  0.3576  0.9647
19216TIP3    H179139   3.323   2.541  11.352 -0.0320  0.5620 -2.0379
19216TIP3    H279140   3.174   2.522  11.372 -0.1517  2.3235 -1.0944
19217TIP3   OH279141   4.660   2.776  15.386  0.8898 -0.1566  0.0031
19217TIP3    H179142   4.754   2.757  15.386  0.6219 -1.5315  0.1692
19217TIP3    H279143   4.625   2.725  15.459  0.0363  0.5559  0.1166
19218TIP3   OH279144   6.723   1.414   2.598  0.0547 -0.5366 -0.3615
19218TIP3    H179145   6.745   1.337   2.651 -3.2023 -1.6576 -0.4452
19218TIP3    H279146   6.679   1.378   2.521 -0.1466  1.3515 -1.1704
19219TIP3   OH279147   1.028   1.097  11.288  0.0528  0.0843 -0.2338
19219TIP3    H179148   0.964   1.027  11.304 -0.2785  0.3378 -0.4197
19219TIP3    H279149   1.068   1.113  11.373 -0.2726  0.0543 -0.0726
19220TIP3   OH279150   1.165   0.249  15.704  1.0127 -0.4657  0.6899
19220TIP3    H179151   1.158   0.283  15.793 -1.8350  1.3732 -0.1148
19220TIP3    H279152   1.195   0.324  15.652  0.2869 -0.8209 -0.2647
19221TIP3   OH279153   1.209   2.818   0.686  0.0440 -0.5942 -0.2975
19221TIP3    H179154   1.275   2.749   0.694 -0.0396 -0.4383  3.2855
19221TIP3    H279155   1.143   2.796   0.752 -0.9437  1.8716 -0.3553
19222TIP3   OH279156   4.256   3.264   1.615  0.6454  0.5098  0.1770
19222TIP3    H179157   4.204   3.339   1.587  0.8413  0.7910  0.5520
19222TIP3    H279158   4.266   3.276   1.710 -0.1262 -0.4921  0.4062
19223TIP3   OH279159   0.920   0.270  14.500  0.2323  0.3266  0.2625
19223TIP3    H179160   0.937   0.338  14.566  0.5201 -0.0244  0.5642
19223TIP3    H279161   1.008   0.241  14.473  0.1135  0.0952  0.1195
19224TIP3   OH279162   3.656   1.890  15.760 -0.0432 -0.0172 -0.4739
19224TIP3    H179163   3.566   1.908  15.734  0.3953  0.2326 -1.9586
19224TIP3    H279164   3.707   1.960  15.717  0.7795  0.3267  1.0021
19225TIP3   OH279165   0.324   5.629   4.068  0.5475  0.0098 -0.0527
19225TIP3    H179166   0.266   5.645   4.142  1.9328  1.4251  0.7834
19225TIP3    H279167   0.404   5.592   4.107  2.4271  3.3639 -0.3661
19226TIP3   OH279168   0.493   1.877  13.335  0.5686 -0.5973  0.2615
19226TIP3    H179169   0.495   1.781  13.337 -2.0441 -0.7211  2.2274
19226TIP3    H279170   0.427   1.898  13.269 -0.3286 -0.2668  1.2362
19227TIP3   OH279171   1.923   5.975  16.932 -0.5757 -0.3140 -0.2950
19227TIP3    H179172   1.912   6.066  16.903 -1.2200  0.0010  0.8674
19227TIP3    H279173   1.835   5.938  16.926 -0.7858 -0.1674  1.4117
19228TIP3   OH279174   6.597   6.033  16.038  0.3544  0.2373  0.1909
19228TIP3    H179175   6.549   6.108  16.002  1.2056  0.0284 -1.5264
19228TIP3    H279176   6.533   5.962  16.039  0.1626  0.3856 -0.4865
19229TIP3   OH279177   3.964   2.654  13.666  0.0300 -0.0522 -0.0244
19229TIP3    H179178   3.900   2.657  13.738 -1.8835  1.7778 -1.6852
19229TIP3    H279179   4.016   2.576  13.685 -2.7985 -1.8050  1.3661
19230TIP3   OH279180   1.408   3.373  12.621 -0.2177  0.3841 -0.5177
19230TIP3    H179181   1.487   3.333  12.658 -0.2448  1.5111  0.8745
19230TIP3    H279182   1.380   3.314  12.552  1.9081  0.0001 -1.1145
19231TIP3   OH279183   4.027   4.074  15.783 -0.3325 -0.0551  0.3597
19231TIP3    H179184   4.011   4.000  15.723 -1.1825  0.3785  0.0279
19231TIP3    H279185   3.978   4.147  15.744  1.5980  1.0729 -0.0530
19232TIP3   OH279186   5.446   2.116  15.268 -0.3030 -0.0372 -0.1154
19232TIP3    H179187   5.415   2.043  15.214 -1.2600  0.5833 -0.4353
19232TIP3    H279188   5.474   2.183  15.206 -0.5864  0.3436  0.1582
19233TIP3   OH279189   1.705   6.700  14.651  0.8353 -0.5427 -0.3817
19233TIP3    H179190   1.762   6.729  14.579  1.2719 -0.6027 -0.0632
19233TIP3    H279191   1.711   6.770  14.716  0.6438 -0.6083 -0.2926
19234TIP3   OH279192   3.018   3.774  12.163  0.1157  0.5665  0.0544
19234TIP3    H179193   3.112   3.772  12.181  0.1185  0.9774  0.0791
19234TIP3    H279194   3.003   3.698  12.106  0.1200 -0.7430  1.7222
19235TIP3   OH279195   4.650   4.700  15.019 -0.2261 -0.2980 -0.1413
19235TIP3    H179196   4.647   4.777  15.075 -1.2802 -0.9980  0.8117
19235TIP3    H279197   4.738   4.700  14.982 -0.0348  1.0488  0.2671
19236TIP3   OH279198   3.534   5.079   0.081  0.4159 -0.2617 -0.2827
19236TIP3    H179199   3.481   5.029   0.019 -0.2919  1.7725 -1.4391
19236TIP3    H279200   3.620   5.037   0.079  0.4684 -0.2009 -2.8166
19237TIP3   OH279201   6.072   3.566   1.410  0.1100  0.1895 -0.0640
19237TIP3    H179202   6.033   3.646   1.445 -2.2598  0.0782 -2.1472
19237TIP3    H279203   6.088   3.511   1.487  1.5543  2.4745  1.3961
19238TIP3   OH279204   0.599   6.571  12.810  0.2565  0.1812  0.0133
19238TIP3    H179205   0.605   6.495  12.867  1.5071  0.8791  0.8457
19238TIP3    H279206   0.668   6.558  12.745  0.9541  0.9319  0.5856
19239TIP3   OH279207   0.560   3.817  10.801 -0.1039  0.2294  0.2224
19239TIP3    H179208   0.500   3.765  10.856 -0.7990 -1.6435 -2.1359
19239TIP3    H279209   0.507   3.844  10.726  1.9373 -1.6883 -2.0760
19240TIP3   OH279210   4.947   5.155  16.699 -0.0041 -0.7406 -0.2861
19240TIP3    H179211   4.889   5.082  16.678 -0.4641 -0.2548 -0.7129
19240TIP3    H279212   4.890   5.222  16.736  0.1897 -0.0697 -1.1654
19241TIP3   OH279213   3.763   0.729  12.768 -0.8887  0.8005  0.0417
19241TIP3    H179214   3.776   0.760  12.678 -0.8685 -1.4618 -0.7889
19241TIP3    H279215   3.809   0.645  12.771  0.2429  1.4162  2.5917
19242TIP3   OH279216   1.697   1.759  16.972 -0.5785  0.2234  0.2142
19242TIP3    H179217   1.695   1.672  16.934 -2.5393 -0.1322  0.9890
19242TIP3    H279218   1.607   1.775  17.001 -0.1524  2.2780  0.6063
19243TIP3   OH279219   0.232   3.808  11.996 -0.6514 -0.0042  0.1611
19243TIP3    H179220   0.186   3.814  12.080 -0.9129 -0.0517  0.0221
19243TIP3    H279221   0.240   3.899  11.967  2.1477  0.3480  1.6817
19244TIP3   OH279222   4.932   4.243  15.169 -0.1900 -0.0192  0.0695
19244TIP3    H179223   4.839   4.269  15.168 -0.1816  0.0508  0.7839
19244TIP3    H279224   4.932   4.158  15.212  0.0427 -0.1672 -0.2265
19245TIP3   OH279225   5.303   3.752  17.333 -0.1612 -0.8388  0.1944
19245TIP3    H179226   5.270   3.819  17.393 -1.0050 -1.1979  0.1495
19245TIP3    H279227   5.323   3.677  17.389 -1.4771 -1.3703 -0.0117
19246TIP3   OH279228   6.413   6.348   3.236 -0.3448 -0.1342 -0.3574
19246TIP3    H179229   6.382   6.339   3.146 -0.3543  1.0985 -0.5001
19246TIP3    H279230   6.507   6.331   3.231  0.1159  2.2551 -1.0636
19247TIP3   OH279231   4.514   4.808   3.010  0.0260 -0.3551 -0.3022
19247TIP3    H179232   4.609   4.800   2.999  0.3241  1.1283  0.9088
19247TIP3    H279233   4.485   4.860   2.935 -0.0516 -1.7839 -1.3173
19248TIP3   OH279234   4.129   4.079  16.578 -0.7862 -0.3076 -0.1186
19248TIP3    H179235   4.147   4.079  16.484 -2.1017 -2.2756 -0.4399
19248TIP3    H279236   4.204   4.122  16.617 -0.4421  1.0212 -2.1000
19249TIP3   OH279237   6.701   3.170  15.303 -0.0893 -0.0097  0.1813
19249TIP3    H179238   6.700   3.074  15.301 -0.4132 -0.0442  1.1584
19249TIP3    H279239   6.615   3.194  15.338 -0.4309  0.6915 -1.0802
19250TIP3   OH279240   6.733   0.672  16.540  0.1823 -0.8011  0.1451
19250TIP3    H179241   6.697   0.716  16.617  0.1258 -1.0735  0.2767
19250TIP3    H279242   6.669   0.690  16.470 -0.5495 -1.8148  0.5323
19251TIP3   OH279243   3.067   0.942  14.202 -0.1633  0.4611  0.2691
19251TIP3    H179244   3.103   0.987  14.125 -0.3966 -0.0823 -0.1667
19251TIP3    H279245   3.006   0.877  14.165  0.5756 -0.5867  0.8491
19252TIP3   OH279246   5.729   1.518  14.895 -0.0816  0.1021 -0.0413
19252TIP3    H179247   5.764   1.492  14.810 -1.8145 -0.9241 -0.4924
19252TIP3    H279248   5.681   1.599  14.878  0.3876  0.4297  0.1718
19253TIP3   OH279249   3.416   4.487   0.166 -0.1391 -0.5594 -0.4050
19253TIP3    H179250   3.451   4.566   0.126 -0.3768 -1.1986 -1.9520
19253TIP3    H279251   3.392   4.431   0.092  0.4588 -2.2808  0.6465
19254TIP3   OH279252   5.446   3.856  16.624 -0.2360  0.8240 -0.7633
19254TIP3    H179253   5.446   3.839  16.718  1.4852 -2.7210 -1.2108
19254TIP3    H279254   5.356   3.880  16.604 -1.0078  0.1982  1.5857
19255TIP3   OH279255   3.581   1.960   5.764 -0.7918 -0.6811  0.1776
19255TIP3    H179256   3.642   2.005   5.705 -1.3472  1.6349  1.2382
19255TIP3    H279257   3.498   2.005   5.750 -1.2285 -0.9388  1.7728
19256TIP3   OH279258   3.217   5.069   0.127  0.2401  0.8214 -0.2281
19256TIP3    H179259   3.270   5.016   0.068 -0.2521 -1.6296  1.3889
19256TIP3    H279260   3.163   5.123   0.069  1.1390 -0.0599 -1.9624
19257TIP3   OH279261   1.701   6.679  10.676  0.0943  0.1778  0.0483
19257TIP3    H179262   1.731   6.767  10.697  2.6554 -0.9374  1.4244
19257TIP3    H279263   1.758   6.651  10.604 -0.8048 -0.3291 -0.4867
19258TIP3   OH279264   5.941   3.192   6.861 -0.9362  0.6636 -0.0612
19258TIP3    H179265   5.888   3.222   6.934  1.6559 -0.8106  2.6660
19258TIP3    H279266   6.007   3.261   6.849  0.2158 -0.2412  0.8357
19259TIP3   OH279267   2.450   2.642  14.163  0.3646 -0.7578  0.2827
19259TIP3    H179268   2.506   2.564  14.164  1.1859 -0.2474 -1.8477
19259TIP3    H279269   2.383   2.622  14.098  0.6461  0.3485 -0.3666
19260TIP3   OH279270   3.613   6.745   1.772  0.6689  0.0546 -0.5081
19260TIP3    H179271   3.612   6.803   1.696 -0.7527  0.4444 -0.2320
19260TIP3    H279272   3.699   6.703   1.770  2.2117  2.9695 -0.1030
19261TIP3   OH279273   4.640   6.420  14.439 -0.3362 -0.4103 -0.0891
19261TIP3    H179274   4.642   6.473  14.518  0.7233  0.5442 -0.7259
19261TIP3    H279275   4.584   6.469  14.378 -1.9558 -1.6140  0.3423
19262TIP3   OH279276   3.205   1.434   3.972 -0.0278 -0.2540 -0.4072
19262TIP3    H179277   3.212   1.389   3.888 -0.2105  0.0802 -0.6004
19262TIP3    H279278   3.130   1.493   3.962 -1.4609 -1.7927  0.7232
19263TIP3   OH279279   4.905   6.761   2.184  0.0884 -0.2970 -0.0400
19263TIP3    H179280   4.961   6.764   2.261 -0.1336 -1.6265  0.1894
19263TIP3    H279281   4.845   6.688   2.200  1.7737 -2.4198 -2.6214
19264TIP3   OH279282   5.964   1.435   5.692 -1.0237  0.0592 -0.4560
19264TIP3    H179283   5.913   1.513   5.671 -0.6416  0.2077 -0.8524
19264TIP3    H279284   5.928   1.404   5.775  0.5756  2.2247  1.1899
19265TIP3   OH279285   0.843   2.218  15.611 -0.1065 -0.0058  0.0179
19265TIP3    H179286   0.849   2.214  15.707  0.3898  0.5596  0.0158
19265TIP3    H279287   0.889   2.140  15.581  0.4900  0.2551  0.2273
19266TIP3   OH279288   6.436   1.253   5.206  0.5543  0.3575  0.4480
19266TIP3    H179289   6.439   1.260   5.111 -2.4512 -2.3056  0.0302
19266TIP3    H279290   6.370   1.316   5.233  0.2412 -0.0327  0.5979
19267TIP3   OH279291   5.655   4.752  17.109 -0.0453 -0.9436 -0.1356
19267TIP3    H179292   5.706   4.683  17.151 -0.9856 -1.8291 -0.3989
19267TIP3    H279293   5.579   4.707  17.073  0.3101 -0.1113 -2.0933
19268TIP3   OH279294   3.318   1.455   4.651 -0.2920 -0.4909  0.0845
19268TIP3    H179295   3.304   1.445   4.746  0.4582 -3.7384 -0.0091
19268TIP3    H279296   3.380   1.385   4.629  1.0682  1.3667 -2.5494
19269TIP3   OH279297   3.407   0.055  11.954  1.2317  0.3555  0.3398
19269TIP3    H179298   3.432   0.102  11.875  0.7920 -1.5951 -1.0538
19269TIP3    H279299   3.487   0.014  11.985  0.9669 -0.9834 -0.6444
19270TIP3   OH279300   6.222   5.822  13.095 -0.8176 -0.5910 -0.0739
19270TIP3    H179301   6.258   5.736  13.074  1.4717  0.3968 -0.5304
19270TIP3    H279302   6.212   5.864  13.010  1.4347  0.7792  0.2452
19271TIP3   OH279303   4.479   0.433  11.820  0.3061  0.0641 -0.6597
19271TIP3    H179304   4.438   0.486  11.889  0.0572 -0.2497 -0.5662
19271TIP3    H279305   4.493   0.494  11.748  1.9358  0.7716  0.1906
19272TIP3   OH279306   1.921   1.541   0.309 -0.7048  0.7292  0.1599
19272TIP3    H179307   1.943   1.633   0.293  0.5345  0.2488 -1.0985
19272TIP3    H279308   1.992   1.492   0.267 -2.0482 -0.8370 -0.3720
19273TIP3   OH279309   1.000   6.177  11.159 -0.2233 -0.0187  0.0888
19273TIP3    H179310   0.995   6.190  11.064 -0.2990  0.7160  0.1827
19273TIP3    H279311   1.051   6.097  11.169 -1.2302 -0.7592 -0.5916
19274TIP3   OH279312   2.075   3.925   3.355 -0.2174  0.2104 -0.7048
19274TIP3    H179313   2.098   3.837   3.325 -2.8480 -0.0539 -2.2604
19274TIP3    H279314   2.130   3.983   3.304 -2.3139 -0.3864 -3.9390
19275TIP3   OH279315   6.458   0.942   6.235 -0.1824 -0.0303  0.0949
19275TIP3    H179316   6.512   1.018   6.213 -0.0803 -0.4209 -1.0976
19275TIP3    H279317   6.436   0.953   6.327 -0.9388  1.9149 -0.2904
19276TIP3   OH279318   1.123   5.427   4.788  0.8936  0.3840 -0.8211
19276TIP3    H179319   1.149   5.457   4.876  0.8622  0.0484 -0.6962
19276TIP3    H279320   1.198   5.375   4.758  1.3219  1.2887 -1.3961
19277TIP3   OH279321   0.184   0.560  16.486 -0.8407  0.0947  0.0984
19277TIP3    H179322   0.208   0.613  16.411 -1.0712  0.5781  0.3590
19277TIP3    H279323   0.103   0.600  16.519  0.5098  1.4014  2.0482
19278TIP3   OH279324   6.618   3.666  16.230  0.0619  0.0728 -0.2526
19278TIP3    H179325   6.538   3.665  16.282  1.2091  4.6314  2.0949
19278TIP3    H279326   6.676   3.605  16.275  0.4519  2.6856  3.1766
19279TIP3   OH279327   3.945   4.954   6.583  1.0370 -0.0189  0.1936
19279TIP3    H179328   3.958   4.948   6.488  1.4517 -1.3963  0.3121
19279TIP3    H279329   3.977   4.870   6.616  0.3564  0.2229  1.4974
19280TIP3   OH279330   5.489   0.645  14.699 -0.6962 -0.0937 -0.0397
19280TIP3    H179331   5.511   0.663  14.608 -1.8228  0.4576 -0.2264
19280TIP3    H279332   5.481   0.731  14.740 -2.6865 -0.2219 -0.0703
19281TIP3   OH279333   0.235   3.412  14.819  0.4389  0.5626 -1.1754
19281TIP3    H179334   0.222   3.507  14.818 -1.4680  0.3680 -0.0891
19281TIP3    H279335   0.146   3.376  14.815  1.1723 -1.2499 -3.5519
19282TIP3   OH279336   0.043   6.572   2.551  0.1179  0.1989 -0.0455
19282TIP3    H179337   0.035   6.577   2.456 -0.2853  1.3420  0.0287
19282TIP3    H279338  -0.027   6.629   2.584  0.3031 -0.1154  0.9368
19283TIP3   OH279339   4.479   4.591  14.408 -0.9887 -0.0315 -0.1959
19283TIP3    H179340   4.417   4.638  14.463  0.1069 -0.0109  1.0704
19283TIP3    H279341   4.504   4.515  14.460 -0.0414 -0.1056 -0.7389
19284TIP3   OH279342   2.182   6.742  11.758 -0.1245  0.3838  0.2061
19284TIP3    H179343   2.149   6.804  11.693 -3.6621  0.3219  1.6682
19284TIP3    H279344   2.163   6.656  11.721  2.4896  0.1227 -0.7299
19285TIP3   OH279345   1.004   0.724   1.896 -0.1044 -0.0422  0.0893
19285TIP3    H179346   1.074   0.737   1.960 -0.3787 -2.7931  1.0879
19285TIP3    H279347   1.044   0.668   1.829 -0.9503 -0.5067 -0.0380
19286TIP3   OH279348   6.396   4.115  12.095 -0.0482  0.0176  0.2481
19286TIP3    H179349   6.301   4.129  12.103 -0.1817 -1.0942  0.7909
19286TIP3    H279350   6.423   4.174  12.025 -1.0108  0.9255  0.6106
19287TIP3   OH279351   5.078   3.507  11.211 -0.0618  0.4974 -0.0046
19287TIP3    H179352   5.122   3.423  11.224 -2.7973 -0.7242  2.5061
19287TIP3    H279353   5.118   3.565  11.276 -1.1801 -0.2584  1.4246
19288TIP3   OH279354   1.405   5.583  14.716 -0.4503 -0.0655 -0.3353
19288TIP3    H179355   1.374   5.661  14.761 -1.6968 -0.5115 -0.3841
19288TIP3    H279356   1.362   5.586  14.630 -3.0142 -2.3419  0.7497
19289TIP3   OH279357   6.135   0.030  13.668 -0.3550 -0.2546  0.3569
19289TIP3    H179358   6.062   0.091  13.679  1.4592  1.7966  1.8232
19289TIP3    H279359   6.094  -0.057  13.669 -2.8121  0.8259  0.3903
19290TIP3   OH279360   5.889   1.157   0.861 -0.0239 -0.2098  0.1488
19290TIP3    H179361   5.841   1.169   0.943  0.4888  0.5969  0.3469
19290TIP3    H279362   5.966   1.106   0.886 -0.5546 -1.1600 -0.0965
19291TIP3   OH279363   4.450   0.094  14.988  0.0911 -0.0890  0.1068
19291TIP3    H179364   4.523   0.120  14.932 -1.5283  0.6645 -1.7725
19291TIP3    H279365   4.443   0.165  15.053  0.7479  0.0271  0.0616
19292TIP3   OH279366   2.571   0.401  11.982 -0.1916 -0.3199  0.1451
19292TIP3    H179367   2.528   0.372  11.902 -0.6133 -2.8175  1.1683
19292TIP3    H279368   2.648   0.449  11.952  0.0041 -1.7057 -1.7942
19293TIP3   OH279369   0.563   6.148  12.479 -0.9192  0.2530 -0.3877
19293TIP3    H179370   0.589   6.236  12.453  0.9126 -0.1134  0.0287
19293TIP3    H279371   0.604   6.090  12.414 -0.5631 -0.3749  0.3723
19294TIP3   OH279372   1.419   1.209   3.981  0.1657  0.0838 -0.2215
19294TIP3    H179373   1.380   1.220   3.894  0.6406 -0.7468 -0.5423
19294TIP3    H279374   1.509   1.240   3.971 -0.5309  2.7112  0.6994
19295TIP3   OH279375   5.890   2.680   2.214 -0.2658 -0.4638  0.1617
19295TIP3    H179376   5.840   2.670   2.132 -1.1683  0.6469  0.5373
19295TIP3    H279377   5.868   2.603   2.265 -1.6211 -0.0304  0.2974
19296TIP3   OH279378   6.644   1.747  15.950 -0.3977 -0.1483 -0.5380
19296TIP3    H179379   6.722   1.746  16.005  0.2678 -0.2213 -1.4491
19296TIP3    H279380   6.575   1.782  16.006  0.2197 -0.3460  0.3691
19297TIP3   OH279381   1.865   5.784  15.622 -0.0765  0.2473  0.2115
19297TIP3    H179382   1.891   5.868  15.585  0.4313  0.3112  0.6920
19297TIP3    H279383   1.944   5.731  15.617 -0.0482  0.2043  1.0421
19298TIP3   OH279384   5.549   0.935   1.136 -0.0781 -0.3464  0.4276
19298TIP3    H179385   5.544   1.025   1.105  0.4172 -0.6327 -0.5150
19298TIP3    H279386   5.540   0.882   1.057 -0.1540 -1.1250  0.9462
19299TIP3   OH279387   6.320   1.612   0.209  0.0902  0.2013 -0.2805
19299TIP3    H179388   6.249   1.632   0.270  1.0503 -0.6225  1.1603
19299TIP3    H279389   6.329   1.517   0.212  1.4095  0.3059 -0.2454
19300TIP3   OH279390   3.277   1.910   4.500  0.1647 -0.4913  0.0673
19300TIP3    H179391   3.329   1.845   4.546  0.0867 -0.6291 -0.0407
19300TIP3    H279392   3.191   1.870   4.488  0.2820 -0.5845 -0.4813
19301TIP3   OH279393   6.278   3.444   1.929 -0.2084 -0.8958  0.2873
19301TIP3    H179394   6.185   3.425   1.937 -0.1051 -0.6796  2.7507
19301TIP3    H279395   6.321   3.372   1.976  0.7360 -0.0735  0.7164
19302TIP3   OH279396   1.406   4.798   0.618 -0.5270 -0.1369  0.2150
19302TIP3    H179397   1.353   4.837   0.688  0.0312 -0.0243  0.5781
19302TIP3    H279398   1.495   4.831   0.633 -0.3177 -0.4476 -0.2979
19303TIP3   OH279399   5.851   4.519  16.791  0.5686  0.1732 -0.0563
19303TIP3    H179400   5.844   4.479  16.878 -0.9929  1.2291  0.3565
19303TIP3    H279401   5.855   4.445  16.730 -1.7227 -0.6598  0.7008
19304TIP3   OH279402   3.224   5.266  12.315  0.3900  0.0404  0.2150
19304TIP3    H179403   3.198   5.199  12.251 -1.4091 -0.8793  1.8041
19304TIP3    H279404   3.305   5.232  12.353 -1.0449 -1.9242  1.7799
19305TIP3   OH279405   4.160   5.228   2.133 -0.2756  0.4393  0.1688
19305TIP3    H179406   4.175   5.233   2.039 -2.3007  2.3234 -0.1385
19305TIP3    H279407   4.225   5.165   2.165  0.9024  0.2714 -2.3589
19306TIP3   OH279408   5.628   3.518  14.964  0.0112  0.3652 -0.4531
19306TIP3    H179409   5.548   3.572  14.966  1.1216  2.1333  1.7310
19306TIP3    H279410   5.684   3.560  14.898  0.6288  1.6411  0.8113
19307TIP3   OH279411   1.006   3.720  17.253 -0.2396 -0.4210 -0.4795
19307TIP3    H179412   1.092   3.737  17.290 -0.5158 -0.2540  0.1005
19307TIP3    H279413   0.949   3.786  17.294 -0.7801 -0.9930 -0.3024
19308TIP3   OH279414   3.146   3.364  14.251  0.0849 -0.1061 -0.2205
19308TIP3    H179415   3.076   3.299  14.258  0.1664 -0.0262  2.7605
19308TIP3    H279416   3.100   3.446  14.234 -0.2726 -0.4871 -1.1489
19309TIP3   OH279417   3.818   4.881   1.449  0.1926  0.0444  0.1714
19309TIP3    H179418   3.748   4.907   1.390 -0.4295  0.1382  0.9341
19309TIP3    H279419   3.863   4.810   1.404  0.1956  0.5992 -0.7338
19310TIP3   OH279420   6.481   1.923  16.522  0.7429  0.1338  0.7209
19310TIP3    H179421   6.559   1.886  16.481 -0.1076 -2.2621  1.0668
19310TIP3    H279422   6.444   1.981  16.456  1.3954 -0.7586 -0.4552
19311TIP3   OH279423   6.497   3.921  14.706 -0.6482  0.5958 -0.3100
19311TIP3    H179424   6.592   3.914  14.693 -0.6618 -0.4827  0.0935
19311TIP3    H279425   6.460   3.919  14.618 -0.2167  2.9982 -0.6245
19312TIP3   OH279426   3.032   3.252   0.688  0.2841 -0.0847 -0.1117
19312TIP3    H179427   3.053   3.197   0.764  2.0018  0.1560 -0.3766
19312TIP3    H279428   2.970   3.316   0.722 -1.1781 -1.6776  0.3810
19313TIP3   OH279429   5.250   2.248   3.126 -0.1254 -0.2051 -0.0978
19313TIP3    H179430   5.225   2.207   3.043  0.6939 -1.6581  0.3330
19313TIP3    H279431   5.167   2.265   3.171 -0.5051 -1.0162 -0.4827
19314TIP3   OH279432   1.192   0.380  15.280  0.1719  0.3717  0.4354
19314TIP3    H179433   1.151   0.418  15.358 -0.1425 -0.6387  0.7834
19314TIP3    H279434   1.250   0.313  15.314  1.1480  0.9140 -0.1389
19315TIP3   OH279435   6.105   1.336   1.920 -0.4005 -0.1615 -0.2470
19315TIP3    H179436   6.047   1.325   1.845  1.5997 -0.1294 -1.9079
19315TIP3    H279437   6.181   1.383   1.884  1.0104 -0.9368  1.5812
19316TIP3   OH279438   4.759   2.167   3.587  0.0732  0.7580 -0.0138
19316TIP3    H179439   4.669   2.200   3.594 -0.2648 -0.1727  0.2571
19316TIP3    H279440   4.749   2.078   3.552  0.8118  0.2987  0.8885
19317TIP3   OH279441   3.092   0.449   5.129  0.1527  0.3949  0.3175
19317TIP3    H179442   3.081   0.540   5.102 -0.7976  0.4330  0.7919
19317TIP3    H279443   3.092   0.400   5.047 -0.2888  0.7281  0.1122
19318TIP3   OH279444   3.672   4.049   2.184  0.3485 -0.4926  0.1142
19318TIP3    H179445   3.665   3.966   2.138 -0.2696  0.5460 -1.7896
19318TIP3    H279446   3.706   4.110   2.119 -1.3395  1.2439  0.7488
19319TIP3   OH279447   1.154   2.403  11.969 -0.1270 -0.1186  0.2374
19319TIP3    H179448   1.201   2.460  11.908 -0.7130  0.4731  0.3310
19319TIP3    H279449   1.221   2.345  12.003  0.8088  1.4715  1.2575
19320TIP3   OH279450   3.161   6.710   1.177 -0.5858  0.6254 -0.7765
19320TIP3    H179451   3.252   6.686   1.191 -0.7654  0.6595  0.6865
19320TIP3    H279452   3.114   6.627   1.171 -0.5919  0.5978 -0.3981
19321TIP3   OH279453   2.079   3.689   5.041  0.0164 -0.5002 -0.1001
19321TIP3    H179454   2.062   3.754   5.110  0.1605  0.8126 -1.2423
19321TIP3    H279455   2.138   3.625   5.081 -0.3983 -0.1001  1.1696
19322TIP3   OH279456   0.474   2.099  14.939  0.0894  0.3419 -0.6922
19322TIP3    H179457   0.525   2.093  14.858  1.6745  0.9478  0.2101
19322TIP3    H279458   0.446   2.190  14.943  1.8050  0.8864  0.4030
19323TIP3   OH279459   2.958   3.540   5.526 -0.4709 -0.2242  0.0222
19323TIP3    H179460   2.986   3.483   5.597  1.3967  0.2136 -0.3160
19323TIP3    H279461   2.947   3.626   5.567 -0.1893 -0.1446 -0.0711
19324TIP3   OH279462   0.913   1.230   1.880 -0.0574 -0.7504 -0.0214
19324TIP3    H179463   0.894   1.151   1.830  0.7305 -0.0219 -1.5445
19324TIP3    H279464   0.923   1.298   1.814 -0.5948  0.6093  1.2543
19325TIP3   OH279465   5.235   5.988  15.190  0.2231 -0.1814 -0.5489
19325TIP3    H179466   5.303   5.921  15.184 -0.3462 -0.7723 -0.3981
19325TIP3    H279467   5.188   5.969  15.271 -0.5894 -0.2199 -1.0178
19326TIP3   OH279468   6.631   5.300  15.956  0.5907 -0.3295  0.6216
19326TIP3    H179469   6.623   5.236  15.884 -0.0692  0.7069 -0.2509
19326TIP3    H279470   6.686   5.255  16.021 -0.9951 -2.3568  0.6881
19327TIP3   OH279471   6.134   5.246  14.436  0.4148  0.5321  0.1712
19327TIP3    H179472   6.166   5.156  14.432  0.9335  0.7188  0.0519
19327TIP3    H279473   6.088   5.252  14.520  1.6212  0.5558  0.8447
19328TIP3   OH279474   5.878   0.524   4.953 -0.7759 -0.5163  0.3400
19328TIP3    H179475   5.965   0.555   4.928 -0.8225 -0.4186  0.2949
19328TIP3    H279476   5.839   0.598   5.000 -1.5775  0.2030 -1.3566
19329TIP3   OH279477   5.378   2.507  12.373 -0.1711  0.4012  0.0169
19329TIP3    H179478   5.395   2.597  12.345 -1.1406  0.2570 -1.1730
19329TIP3    H279479   5.454   2.482  12.424 -0.0730  2.0315  0.7087
19330TIP3   OH279480   5.788   2.997   5.783  0.6503  0.2709  0.0735
19330TIP3    H179481   5.847   2.969   5.853  1.5834 -0.2791 -0.8961
19330TIP3    H279482   5.791   2.925   5.719  0.6972  1.2236 -1.0360
19331TIP3   OH279483   2.900   2.261   4.792  0.6331  0.1797  0.2965
19331TIP3    H179484   2.805   2.264   4.784  0.4027 -0.6876  2.2199
19331TIP3    H279485   2.929   2.207   4.718 -0.3668  0.3410 -0.2259
19332TIP3   OH279486   1.324   3.403  11.690 -0.5431  0.4436  0.8935
19332TIP3    H179487   1.263   3.415  11.617 -0.0309  0.3849  0.4456
19332TIP3    H279488   1.400   3.361  11.650  0.1081  1.2248  1.2856
19333TIP3   OH279489   4.341   0.264   0.028 -0.0766  0.3197  0.1926
19333TIP3    H179490   4.346   0.295   0.118 -0.7061  1.0417 -0.0081
19333TIP3    H279491   4.249   0.276   0.003  0.5252  2.3994 -1.3143
19334TIP3   OH279492   0.942   4.642  12.613  0.0597  0.0013  0.0143
19334TIP3    H179493   0.930   4.594  12.532  0.0394 -0.0391  0.0407
19334TIP3    H279494   0.934   4.734  12.588 -1.0319 -0.0416  0.1450
19335TIP3   OH279495   5.106   6.354  17.015  0.3417 -0.1211  0.2508
19335TIP3    H179496   5.193   6.385  16.990  0.3267  0.4542  0.9057
19335TIP3    H279497   5.073   6.312  16.935  0.8351  0.4959 -0.2925
19336TIP3   OH279498   0.514   6.744  15.345  0.4423  0.5901 -0.3457
19336TIP3    H179499   0.564   6.825  15.335 -0.5214  1.3719  0.8401
19336TIP3    H279500   0.431   6.772  15.382  0.0967 -0.9525  0.1167
19337TIP3   OH279501   6.418   3.187   3.304 -0.4070 -0.2875 -0.1207
19337TIP3    H179502   6.427   3.170   3.398 -1.3774  0.3864  0.1135
19337TIP3    H279503   6.395   3.102   3.267  0.0118 -0.5659  0.2472
19338TIP3   OH279504   5.607   6.298  15.671 -0.8551 -0.1008 -0.5398
19338TIP3    H179505   5.659   6.355  15.615  0.8887  1.4624  2.3907
19338TIP3    H279506   5.520   6.338  15.674 -0.3352  1.0308 -0.4363
19339TIP3   OH279507   0.207   6.129  17.409 -0.1547  0.0724  0.3022
19339TIP3    H179508   0.246   6.164  17.489  1.7831 -1.3752  0.0472
19339TIP3    H279509   0.260   6.166  17.339  0.8261 -1.9220 -0.0570
19340TIP3   OH279510   5.351   2.477  12.002 -0.1327  0.7165  0.2556
19340TIP3    H179511   5.276   2.502  11.948  0.4600  2.7599  0.2954
19340TIP3    H279512   5.312   2.429  12.076 -1.3034  0.9377 -0.1967
19341TIP3   OH279513   4.184   3.899  17.169  0.0352  0.3760 -0.5330
19341TIP3    H179514   4.162   3.879  17.078 -4.1940  2.2411 -0.1738
19341TIP3    H279515   4.193   3.995  17.171 -0.7675  0.4595  1.0712
19342TIP3   OH279516   1.199   2.709  16.889 -0.0325  0.2678 -0.5790
19342TIP3    H179517   1.203   2.645  16.818  1.0375 -1.9361  1.3169
19342TIP3    H279518   1.280   2.759  16.880 -0.1841  0.4040 -1.2387
19343TIP3   OH279519   4.465   0.157  10.500 -0.1345  0.0972  0.1584
19343TIP3    H179520   4.551   0.158  10.542 -1.3252  0.8618  2.7593
19343TIP3    H279521   4.438   0.249  10.499 -1.3127 -0.2275  0.2729
19344TIP3   OH279522   5.559   6.493  12.893  0.0639  0.2062  0.2926
19344TIP3    H179523   5.587   6.572  12.939  1.3616 -0.3625  0.5140
19344TIP3    H279524   5.531   6.433  12.962  3.1677 -1.1083  0.5459
19345TIP3   OH279525   4.861   6.042  14.248  0.1395  0.4115  0.4187
19345TIP3    H179526   4.859   6.132  14.281  1.0561  0.9449 -0.8807
19345TIP3    H279527   4.920   5.996  14.307  0.5101  0.9322  0.4578
19346TIP3   OH279528   0.071   2.764   1.001  0.0050 -0.1334 -0.6333
19346TIP3    H179529   0.095   2.773   0.909 -0.4372  1.2086 -0.6348
19346TIP3    H279530   0.107   2.679   1.027  1.3289  0.0777 -1.6636
19347TIP3   OH279531   0.839   3.358  14.008 -0.5612  0.6357  0.2281
19347TIP3    H179532   0.850   3.328  13.918  0.5887  0.7998  0.3089
19347TIP3    H279533   0.808   3.280  14.055  1.6025 -0.2593  0.2702
19348TIP3   OH279534   1.666   3.034   5.248  0.4051  0.2453 -0.2692
19348TIP3    H179535   1.756   3.045   5.217 -0.3206 -1.1238 -3.1178
19348TIP3    H279536   1.616   3.011   5.170 -2.3579  0.4370  1.3250
19349TIP3   OH279537   4.021   3.283   0.068  0.3239 -0.1885  0.1912
19349TIP3    H179538   4.052   3.360   0.019  0.6806 -0.3712  0.1332
19349TIP3    H279539   3.981   3.227   0.001 -0.8702  0.4061  0.3719
19350TIP3   OH279540   5.301   5.841   3.845  0.2761 -0.7365 -0.0092
19350TIP3    H179541   5.302   5.819   3.938 -1.7959  0.3064  0.3209
19350TIP3    H279542   5.249   5.772   3.804 -1.7914  0.5920  0.2198
19351TIP3   OH279543   6.156   3.781  14.669 -0.3383 -0.4659  0.0171
19351TIP3    H179544   6.119   3.758  14.584 -0.2009  0.7337 -0.3862
19351TIP3    H279545   6.228   3.841  14.648 -0.0430 -0.4746  0.9579
19352TIP3   OH279546   5.366   4.290  11.613 -0.0245 -0.1786  0.1066
19352TIP3    H179547   5.452   4.316  11.646 -0.2294  0.0701  0.4632
19352TIP3    H279548   5.384   4.232  11.540  0.4516  0.3636 -0.2173
19353TIP3   OH279549   3.821   4.225   0.515 -0.3964  0.0649  0.1051
19353TIP3    H179550   3.849   4.149   0.464  0.0860 -1.2349  2.2291
19353TIP3    H279551   3.892   4.241   0.576  0.0355  2.9823 -0.9622
19354TIP3   OH279552   6.574   3.725   6.811  0.7426 -0.0766 -0.5132
19354TIP3    H179553   6.524   3.761   6.738  1.3322 -1.3973 -1.6240
19354TIP3    H279554   6.541   3.770   6.888  0.5982  1.8962 -1.6647
19355TIP3   OH279555   0.686   6.397   3.042  0.0701 -0.8549 -0.1912
19355TIP3    H179556   0.715   6.317   3.087  0.0640 -1.8679 -1.8757
19355TIP3    H279557   0.592   6.387   3.034 -0.0513 -0.2138  0.4340
19356TIP3   OH279558   6.218   5.503   2.733 -0.1205  0.6472  0.5555
19356TIP3    H179559   6.175   5.563   2.673 -0.5411 -0.8328 -0.6772
19356TIP3    H279560   6.200   5.539   2.820 -1.6362  1.4730 -0.0739
19357TIP3   OH279561   6.440   1.354  12.944 -0.3064  0.5145 -0.1440
19357TIP3    H179562   6.392   1.309  13.013 -1.5747  1.5513 -0.3124
19357TIP3    H279563   6.500   1.413  12.990 -0.6755  0.7197  0.0775
19358TIP3   OH279564   1.987   2.070  13.012 -0.5759 -0.1322 -0.0259
19358TIP3    H179565   1.975   2.163  13.033 -0.0472 -0.1903  0.5853
19358TIP3    H279566   2.050   2.069  12.941 -0.1312 -0.0378  0.3602
19359TIP3   OH279567   1.378   5.326  10.950  0.0695 -0.5388  0.0653
19359TIP3    H179568   1.442   5.267  10.991 -0.1920 -1.6230 -1.0327
19359TIP3    H279569   1.343   5.378  11.023  2.5070  0.4173  0.6357
19360TIP3   OH279570   1.168   0.214   6.196  0.0852 -0.5682  0.4663
19360TIP3    H179571   1.180   0.122   6.217 -1.2962 -1.2621 -1.4929
19360TIP3    H279572   1.257   0.251   6.198  0.6902 -1.9982  0.9514
19361TIP3   OH279573   6.524   1.512  14.228  0.0778 -0.2303  0.3002
19361TIP3    H179574   6.562   1.595  14.256 -0.1284 -0.4205  1.1623
19361TIP3    H279575   6.561   1.497  14.141 -0.1288  0.9248 -0.0134
19362TIP3   OH279576   2.730   2.942   2.340  1.0514 -0.1256 -0.3387
19362TIP3    H179577   2.724   3.031   2.307  0.0968  0.0680  0.3038
19362TIP3    H279578   2.641   2.908   2.336  0.7191  0.1139  2.4730
19363TIP3   OH279579   2.023   4.986  14.334 -0.1507 -0.3162 -0.0332
19363TIP3    H179580   2.115   4.971  14.355 -0.3301 -0.3591  0.7535
19363TIP3    H279581   2.020   4.987  14.238  0.4698 -1.5611 -0.0885
19364TIP3   OH279582   5.666   4.700  15.831 -0.7002  0.1692 -0.1819
19364TIP3    H179583   5.603   4.634  15.859 -0.3994  0.4658  1.2710
19364TIP3    H279584   5.612   4.776  15.808 -0.9600 -0.0902 -0.4263
19365TIP3   OH279585   1.536   1.372  14.981  0.0842 -0.1978 -0.3194
19365TIP3    H179586   1.496   1.459  14.976  0.5045  0.0904  0.8374
19365TIP3    H279587   1.599   1.379  15.053  1.0328 -1.1052 -1.0289
19366TIP3   OH279588   1.504   1.311  14.535  0.0599  0.1284 -0.5969
19366TIP3    H179589   1.580   1.265  14.499 -0.5406 -0.1849 -1.4946
19366TIP3    H279590   1.502   1.284  14.627  1.8949  1.3090 -0.1493
19367TIP3   OH279591   2.993   1.733  12.817 -0.4424  0.3335 -0.0693
19367TIP3    H179592   2.975   1.774  12.732  0.7699 -0.7601 -0.8866
19367TIP3    H279593   2.917   1.677  12.833 -1.3720  1.6565  0.3102
19368TIP3   OH279594   4.107   0.663  11.044 -0.3119 -0.1557  0.1129
19368TIP3    H179595   4.175   0.707  11.096 -0.4174 -0.2721  0.3479
19368TIP3    H279596   4.081   0.587  11.096 -1.6568  0.6767  0.7090
19369TIP3   OH279597   2.972   3.839   4.180 -0.3343  0.2362  0.4040
19369TIP3    H179598   2.985   3.745   4.192  2.3710  0.7452  2.3736
19369TIP3    H279599   2.996   3.878   4.263 -0.8727  2.7455 -0.5247
19370TIP3   OH279600   1.765   4.275  15.017  0.1656 -0.1465  0.6240
19370TIP3    H179601   1.800   4.241  14.936 -2.6606 -2.6631  0.2745
19370TIP3    H279602   1.720   4.356  14.992  1.0018  0.1589  0.0934
19371TIP3   OH279603   1.040   3.837  12.469  0.1276  0.2615  0.7651
19371TIP3    H179604   1.033   3.877  12.556  0.2321 -0.8404  1.2984
19371TIP3    H279605   1.040   3.743  12.486 -1.6009 -0.0307 -0.5499
19372TIP3   OH279606   3.314   2.261   3.995 -0.7067 -0.4993 -0.1710
19372TIP3    H179607   3.325   2.195   4.064 -1.8634 -1.6212 -1.0142
19372TIP3    H279608   3.231   2.304   4.016 -1.9310 -1.9791 -1.7106
19373TIP3   OH279609   2.068   4.227  15.944  0.1519 -0.0427 -0.4258
19373TIP3    H179610   2.128   4.167  15.987 -1.0058 -0.8880  0.0681
19373TIP3    H279611   2.083   4.311  15.986  1.3880 -0.1008 -0.7227
19374TIP3   OH279612   6.046   2.216  12.106 -0.2114 -0.6121 -0.2642
19374TIP3    H179613   6.056   2.170  12.023 -2.2019 -0.6630 -0.5186
19374TIP3    H279614   5.952   2.214  12.124 -0.1358  1.5465  0.7512
19375TIP3   OH279615   6.618   6.020  16.336  0.3095  0.1903  0.3225
19375TIP3    H179616   6.541   5.964  16.332 -0.2123  0.8900  0.4779
19375TIP3    H279617   6.666   6.001  16.255 -1.4443  1.7451 -1.1798
19376TIP3   OH279618   0.284   5.862   6.379 -0.2916  0.1470  0.4780
19376TIP3    H179619   0.209   5.878   6.322 -0.7841 -3.2196 -0.0283
19376TIP3    H279620   0.273   5.924   6.451 -1.9034  1.7211 -1.0269
19377TIP3   OH279621   0.227   2.835  11.424  0.2028  0.3788  0.2597
19377TIP3    H179622   0.197   2.766  11.365  0.6832 -1.5148  2.1142
19377TIP3    H279623   0.156   2.846  11.487  0.6406  0.6950  0.7062
19378TIP3   OH279624   5.614   4.619   1.537  0.1972 -0.5610  0.1658
19378TIP3    H179625   5.568   4.574   1.608 -0.6602 -0.1279 -0.1135
19378TIP3    H279626   5.548   4.673   1.495  1.0398  0.3410 -0.0299
19379TIP3   OH279627   3.094   4.921  16.568 -1.1011  0.0700  0.0958
19379TIP3    H179628   3.066   5.007  16.537 -1.7502  0.4200  1.5815
19379TIP3    H279629   3.022   4.890  16.623 -2.3473 -2.8673 -2.8593
19380TIP3   OH279630   0.485   0.551   4.501 -0.0656  0.5771  0.4362
19380TIP3    H179631   0.512   0.466   4.534  1.8613  0.7960 -0.4422
19380TIP3    H279632   0.520   0.554   4.412 -1.6006  1.6130 -0.1722
19381TIP3   OH279633   4.854   6.300  14.304 -0.3260  0.0441  0.2589
19381TIP3    H179634   4.926   6.341  14.352 -0.2377  0.1342  0.0491
19381TIP3    H279635   4.775   6.336  14.345 -0.2691  1.9193 -1.1735
19382TIP3   OH279636   0.124   1.832  11.746  0.0428  0.4158  0.3685
19382TIP3    H179637   0.052   1.857  11.804 -0.4019  0.7554 -0.3175
19382TIP3    H279638   0.081   1.790  11.671  0.4814  1.3765 -0.4449
19383TIP3   OH279639   1.040   2.281   6.186  0.1492 -0.3869  0.0547
19383TIP3    H179640   1.080   2.194   6.197  0.8745 -0.0475  0.2107
19383TIP3    H279641   0.949   2.269   6.211  0.4870 -0.8826  1.1088
19384TIP3   OH279642   0.791   0.751   1.327 -0.0485 -0.3399  0.8719
19384TIP3    H179643   0.794   0.751   1.423 -0.5089  0.1410  0.8893
19384TIP3    H279644   0.778   0.659   1.304  1.0543 -0.6005  1.2285
19385TIP3   OH279645   0.177   6.360  11.191 -0.1698 -0.4714  0.1019
19385TIP3    H179646   0.129   6.440  11.169 -0.5132 -1.2520 -2.2604
19385TIP3    H279647   0.268   6.389  11.201 -0.6585  0.5881  1.9889
19386TIP3   OH279648   4.196   4.360  12.951 -0.4499  0.9897  0.0456
19386TIP3    H179649   4.173   4.424  13.018  0.2668  0.3629  0.9144
19386TIP3    H279650   4.239   4.411  12.882  1.0003  1.3434  1.1643
19387TIP3   OH279651   1.663   1.747  12.320 -0.0816  0.5455  0.1086
19387TIP3    H179652   1.714   1.733  12.240  0.3021  0.3742  0.3794
19387TIP3    H279653   1.722   1.795  12.378  0.1858 -0.6474  0.8532
19388TIP3   OH279654   2.644   0.333  17.267 -0.1507  0.3807 -0.5725
19388TIP3    H179655   2.599   0.413  17.240 -0.9843  0.4245  0.8353
19388TIP3    H279656   2.719   0.327  17.208 -0.7299  1.5509 -1.4803
19389TIP3   OH279657   5.702   3.005  15.784 -0.5640 -0.5485  0.1038
19389TIP3    H179658   5.780   3.060  15.775  0.0169 -0.9353  2.1558
19389TIP3    H279659   5.663   3.003  15.697  0.2715  1.8016 -0.3991
19390TIP3   OH279660   1.782   6.379  10.967  0.5250  0.1010 -0.6104
19390TIP3    H179661   1.857   6.331  10.933  1.6118  0.4731  1.1039
19390TIP3    H279662   1.709   6.357  10.909  1.5711 -1.6170 -1.3187
19391TIP3   OH279663   6.265   4.241  16.255  0.1790 -0.0778  0.1889
19391TIP3    H179664   6.248   4.298  16.180  2.1179  0.6698  0.2539
19391TIP3    H279665   6.246   4.153  16.223 -0.8650  0.4057 -0.5707
19392TIP3   OH279666   3.653   4.362   5.868  0.1542 -0.3326  0.0250
19392TIP3    H179667   3.747   4.362   5.886  0.3719  0.5125 -1.0111
19392TIP3    H279668   3.647   4.387   5.776 -1.1236  0.2124  0.2448
19393TIP3   OH279669   0.472   4.520   0.344 -0.7101  0.6149 -0.2570
19393TIP3    H179670   0.518   4.557   0.419 -1.0861  0.0028  0.2927
19393TIP3    H279671   0.485   4.583   0.273 -2.8296  2.7688  1.1192
19394TIP3   OH279672   4.155   1.098  14.389  0.3543  0.7634 -0.0090
19394TIP3    H179673   4.115   1.111  14.303 -3.1036 -2.3007  0.8808
19394TIP3    H279674   4.245   1.073  14.370 -0.0631  0.9974 -2.7055
19395TIP3   OH279675   5.487   4.729  13.816  0.1407 -0.1707  0.3491
19395TIP3    H179676   5.574   4.770  13.814  0.0068  0.1632  0.9097
19395TIP3    H279677   5.455   4.734  13.726  0.5961 -0.0615  0.1920
19396TIP3   OH279678   3.430   0.402   0.759 -0.2438  0.4538 -0.8632
19396TIP3    H179679   3.384   0.378   0.839 -0.9019 -0.4190 -1.4881
19396TIP3    H279680   3.420   0.326   0.702  1.8483  0.2880 -1.0806
19397TIP3   OH279681   1.000   5.177  13.715 -0.0121 -0.3415 -0.4292
19397TIP3    H179682   1.045   5.122  13.650  2.4643 -0.0276  0.9038
19397TIP3    H279683   0.908   5.151  13.709  0.8769 -3.9588 -0.5349
19398TIP3   OH279684   1.036   4.619  13.140 -0.4272  0.1440 -0.4749
19398TIP3    H179685   1.027   4.664  13.056 -2.2313  0.3904 -0.1979
19398TIP3    H279686   1.069   4.532  13.117 -1.0894  0.1421 -1.4614
19399TIP3   OH279687   3.625   1.998   2.549  0.0672 -0.2846 -0.0284
19399TIP3    H179688   3.611   1.924   2.490 -0.7053  0.4538 -0.7972
19399TIP3    H279689   3.651   1.957   2.632  1.5789 -1.3335 -0.9556
19400TIP3   OH279690   4.209   1.646  11.538  0.2423 -1.4818 -0.1560
19400TIP3    H179691   4.131   1.601  11.503 -1.6979  0.3685  1.5067
19400TIP3    H279692   4.233   1.707  11.469 -2.1325  0.5073  0.6370
19401TIP3   OH279693   5.251   2.374  11.565 -0.5458  0.2430  0.6229
19401TIP3    H179694   5.304   2.450  11.588 -0.3235  0.4123 -0.4089
19401TIP3    H279695   5.310   2.299  11.577  0.0810  0.4652 -0.9323
19402TIP3   OH279696   3.467   0.697   1.778 -0.1306 -0.7577  0.3913
19402TIP3    H179697   3.415   0.768   1.815  1.7993  1.2809 -0.5556
19402TIP3    H279698   3.409   0.621   1.779 -1.5684  0.2322  3.4925
19403TIP3   OH279699   0.458   1.829  13.806  0.0572 -0.4403  0.0800
19403TIP3    H179700   0.517   1.770  13.854  0.3581  0.0858  0.3742
19403TIP3    H279701   0.370   1.795  13.823  0.3093 -1.6751 -0.9757
19404TIP3   OH279702   1.963   2.693   0.471 -0.7720  0.0652 -0.5958
19404TIP3    H179703   2.052   2.726   0.465  0.0234 -1.6171  1.1971
19404TIP3    H279704   1.913   2.749   0.411  1.1219  2.1623 -0.3295
19405TIP3   OH279705   5.978   4.752   4.863  0.1306 -0.5654 -0.1628
19405TIP3    H179706   5.985   4.802   4.944 -1.1566  0.1762 -0.4806
19405TIP3    H279707   6.068   4.737   4.836  0.5593  0.9815  0.3183
19406TIP3   OH279708   1.714   5.229  12.502  0.4762 -0.2517 -0.1871
19406TIP3    H179709   1.702   5.198  12.413  1.5633  1.1813 -0.8878
19406TIP3    H279710   1.657   5.174  12.555  1.5895 -2.7645 -1.4193
19407TIP3   OH279711   0.892   6.102  15.838  0.1140  0.2144 -0.4359
19407TIP3    H179712   0.984   6.128  15.826  0.7400 -1.5008  0.3589
19407TIP3    H279713   0.886   6.082  15.932 -1.6116  2.1614 -0.0618
19408TIP3   OH279714   0.757   3.212  12.208 -0.3368  0.2527  0.6729
19408TIP3    H179715   0.685   3.193  12.148  0.5441  0.5926 -0.5375
19408TIP3    H279716   0.831   3.233  12.150  0.0636  2.4294  1.8494
19409TIP3   OH279717   3.365   3.207  14.750  0.6955  0.3977  1.0300
19409TIP3    H179718   3.381   3.114  14.764 -0.2498  0.2703  1.3253
19409TIP3    H279719   3.314   3.211  14.669  0.2918  0.6096  1.2877
19410TIP3   OH279720   5.940   2.054   4.883 -0.2966  0.3919 -0.3077
19410TIP3    H179721   5.889   2.083   4.959  0.6015  0.3212  0.3375
19410TIP3    H279722   5.878   2.060   4.810 -0.8925  1.4305  0.2503
19411TIP3   OH279723   2.817   4.517   4.279 -0.5464  0.4740 -0.3277
19411TIP3    H179724   2.782   4.436   4.243 -3.1762  0.9874  0.8333
19411TIP3    H279725   2.788   4.585   4.218 -1.1198  0.8455  0.3372
19412TIP3   OH279726   2.286   2.134   4.775 -0.3423  0.1272 -0.5092
19412TIP3    H179727   2.343   2.193   4.824 -0.5431 -0.1015  0.0114
19412TIP3    H279728   2.247   2.189   4.707 -1.4337  0.9031  0.7019
19413TIP3   OH279729   1.122   3.419  14.054  0.0508  0.9721  0.3067
19413TIP3    H179730   1.152   3.408  14.144  0.5231 -0.0858  0.0359
19413TIP3    H279731   1.026   3.415  14.059 -0.1254  3.7550  1.0996
19414TIP3   OH279732   1.150   5.000   1.979  0.0166  0.1907  0.8875
19414TIP3    H179733   1.214   5.009   2.050 -0.2983  0.3676  1.1520
19414TIP3    H279734   1.172   5.072   1.918 -0.0116  0.3321  1.0434
19415TIP3   OH279735   3.249   6.692   4.459  0.0760  0.3694 -0.4207
19415TIP3    H179736   3.260   6.700   4.554 -0.4302 -2.0061 -0.1129
19415TIP3    H279737   3.319   6.633   4.431 -0.1835  0.5163 -1.4313
19416TIP3   OH279738   5.869   2.164   3.668  0.1350  0.1298  0.0837
19416TIP3    H179739   5.869   2.068   3.664 -0.6560  0.1320 -0.2862
19416TIP3    H279740   5.810   2.185   3.740  0.9641  0.3380  0.7172
19417TIP3   OH279741   3.606   1.862   1.152  0.1720 -0.0878  0.6968
19417TIP3    H179742   3.605   1.958   1.156 -1.1423 -0.0311 -0.2235
19417TIP3    H279743   3.521   1.839   1.116  2.0634 -1.3516 -3.6052
19418TIP3   OH279744   4.479   4.575  15.894  0.4068  0.2877 -0.0133
19418TIP3    H179745   4.507   4.642  15.957  1.5861 -0.0532 -0.1498
19418TIP3    H279746   4.561   4.538  15.861 -0.1094  1.0917 -2.4447
19419TIP3   OH279747   2.899   5.975  15.638  0.0346 -0.2529 -0.1206
19419TIP3    H179748   2.832   6.019  15.585 -2.0607 -1.6332  1.2485
19419TIP3    H279749   2.872   5.883  15.638  1.2631 -0.6376  1.4885
19420TIP3   OH279750   1.202   1.390   5.977 -0.4654 -0.3336 -0.1276
19420TIP3    H179751   1.208   1.482   5.953 -2.5579  0.2094  1.1508
19420TIP3    H279752   1.108   1.371   5.975 -0.1899 -2.0521  1.0293
19421TIP3   OH279753   3.418   3.853  13.222 -0.4395  0.2023  0.0349
19421TIP3    H179754   3.489   3.814  13.171  0.1403  1.5060 -0.1826
19421TIP3    H279755   3.356   3.885  13.157 -0.7068  0.0297  0.2014
19422TIP3   OH279756   5.467   4.874   0.431  0.1948 -0.6964  0.5169
19422TIP3    H179757   5.528   4.817   0.385 -1.4607 -0.9741 -1.5053
19422TIP3    H279758   5.473   4.958   0.385 -0.7679 -0.6672  0.4156
19423TIP3   OH279759   2.416   3.103   2.916 -0.2946  0.3706  0.5107
19423TIP3    H179760   2.393   3.120   2.825 -1.3607 -2.2408  0.2056
19423TIP3    H279761   2.465   3.020   2.913 -2.3368 -1.0087  2.4550
19424TIP3   OH279762   0.312   1.957   0.125 -0.1981  0.6334 -0.0387
19424TIP3    H179763   0.405   1.942   0.106 -0.1047 -1.6432  1.7752
19424TIP3    H279764   0.312   2.031   0.186  0.5460 -0.0138  0.7734
19425TIP3   OH279765   2.743   2.060  12.233 -0.6859  0.1436 -0.3161
19425TIP3    H179766   2.772   2.019  12.152  1.0955  0.4593  0.1201
19425TIP3    H279767   2.648   2.050  12.232 -0.5269 -1.6975 -1.4260
19426TIP3   OH279768   2.776   3.088   1.133 -0.0435 -0.3383 -0.0096
19426TIP3    H179769   2.790   3.181   1.149  0.0160 -0.6154  1.7122
19426TIP3    H279770   2.863   3.054   1.113 -0.1152  0.0129 -0.9892
19427TIP3   OH279771   4.444   4.935  13.381  0.2020  0.0612 -0.4656
19427TIP3    H179772   4.474   4.852  13.417  0.9989  1.2382  1.7671
19427TIP3    H279773   4.488   4.942  13.297  2.6249 -0.3744  0.6922
19428TIP3   OH279774   4.917   4.758   1.850 -0.3956 -0.1034 -0.8336
19428TIP3    H179775   4.900   4.730   1.940 -1.0369  0.7732 -0.6718
19428TIP3    H279776   4.859   4.702   1.797 -0.1671 -0.4787 -0.6894
19429TIP3   OH279777   5.960   5.107   0.327  0.0845  0.8328 -0.0452
19429TIP3    H179778   5.895   5.168   0.292  0.3560  1.7175  0.9482
19429TIP3    H279779   6.043   5.153   0.320  0.6866 -0.3923 -1.5348
19430TIP3   OH279780   0.045   0.328  12.227  0.5208  0.2293 -0.6366
19430TIP3    H179781  -0.050   0.332  12.238  0.4572 -0.9809 -0.6126
19430TIP3    H279782   0.061   0.245  12.182  1.6276  0.0601  0.0286
19431TIP3   OH279783   1.895   6.240  17.414  0.5266  0.3235 -0.1885
19431TIP3    H179784   1.864   6.273  17.498  0.5459  1.8803 -0.7698
19431TIP3    H279785   1.850   6.293  17.349  0.2441 -1.0902 -1.1940
19432TIP3   OH279786   4.353   0.546   2.519 -0.3622  0.3183  0.6455
19432TIP3    H179787   4.385   0.566   2.607  0.4544 -1.6872  0.8438
19432TIP3    H279788   4.383   0.457   2.501  1.0830  1.2615 -2.3868
19433TIP3   OH279789   3.249   2.504   5.131 -0.3050 -0.6363  0.4239
19433TIP3    H179790   3.255   2.429   5.072 -0.2541 -0.9884  0.8610
19433TIP3    H279791   3.156   2.527   5.132 -0.1846 -0.1136 -0.4099
19434TIP3   OH279792   4.780   2.634  17.332 -0.2903 -0.8394  0.4212
19434TIP3    H179793   4.830   2.555  17.315  0.4659 -0.3005  0.0929
19434TIP3    H279794   4.691   2.612  17.303  0.4428 -0.7440 -2.1734
19435TIP3   OH279795   2.594   1.328   4.123 -0.3774 -0.1307  0.4624
19435TIP3    H179796   2.593   1.409   4.073 -2.4306 -0.2581  0.2259
19435TIP3    H279797   2.505   1.318   4.157  0.0933 -1.7469  1.3795
19436TIP3   OH279798   3.997   5.563   4.126 -0.0491  0.4435  0.0722
19436TIP3    H179799   4.049   5.515   4.062 -0.1380  0.8928 -0.3458
19436TIP3    H279800   3.969   5.497   4.189 -3.5371 -1.0075 -2.5962
19437TIP3   OH279801   3.897   5.636  17.062  0.2858  0.2431 -0.1729
19437TIP3    H179802   3.953   5.677  17.129 -0.9123  0.8573  0.4946
19437TIP3    H279803   3.898   5.699  16.990  0.7980  0.0447 -0.3425
19438TIP3   OH279804   1.445   0.608  15.501  0.2754 -0.3062 -0.4471
19438TIP3    H179805   1.474   0.529  15.455  0.1344 -0.6376  0.0321
19438TIP3    H279806   1.510   0.675  15.477  0.9072 -0.7953 -0.1394
19439TIP3   OH279807   3.135   6.770   1.455  0.3470 -0.0738  0.9225
19439TIP3    H179808   3.050   6.812   1.444  1.1939  1.4617 -0.1320
19439TIP3    H279809   3.151   6.725   1.372  0.3062 -0.8934  1.3446
19440TIP3   OH279810   3.677   3.678  16.835 -0.3049 -0.1844  0.4020
19440TIP3    H179811   3.739   3.734  16.882 -1.0921 -0.2950  1.6372
19440TIP3    H279812   3.655   3.728  16.756  0.5112  0.3412  0.4962
19441TIP3   OH279813   5.353   0.840   2.253  0.1563 -0.4557 -0.3018
19441TIP3    H179814   5.369   0.878   2.339 -0.0943  0.8141 -0.7939
19441TIP3    H279815   5.292   0.900   2.211  1.0342 -0.5059 -1.7353
19442TIP3   OH279816   1.364   3.085  13.723 -0.0756 -0.2348  0.3347
19442TIP3    H179817   1.350   3.010  13.780 -0.6467 -2.5491 -2.5754
19442TIP3    H279818   1.279   3.129  13.719 -0.8616 -1.7457 -0.8150
19443TIP3   OH279819   6.280   3.446  15.103 -0.1844  0.8281 -0.0792
19443TIP3    H179820   6.206   3.487  15.146 -0.0708  1.6390 -0.6333
19443TIP3    H279821   6.278   3.479  15.014 -2.1680 -3.0525 -1.7113
19444TIP3   OH279822   4.657   1.076  15.395 -0.1178 -0.3737  0.1401
19444TIP3    H179823   4.734   1.122  15.362 -0.3057  0.5617  0.9211
19444TIP3    H279824   4.678   1.058  15.487 -0.6143 -0.5675  0.2189
19445TIP3   OH279825   3.820   6.420  11.613  0.4662 -0.3316  0.0943
19445TIP3    H179826   3.736   6.466  11.611  0.0876 -1.0254 -0.3565
19445TIP3    H279827   3.824   6.373  11.530  1.3448 -0.2458  0.0756
19446TIP3   OH279828   3.092   0.750  16.558 -0.5715  0.5459 -0.1306
19446TIP3    H179829   3.061   0.840  16.570 -0.8115  0.2585  1.7295
19446TIP3    H279830   3.040   0.699  16.620  1.2165 -0.5031  0.5492
19447TIP3   OH279831   1.006   2.299  10.500 -0.7228 -0.0445  0.0734
19447TIP3    H179832   0.911   2.297  10.503 -0.6950 -1.8004  0.7849
19447TIP3    H279833   1.034   2.278  10.589  0.3683  1.4235  0.1285
19448TIP3   OH279834   2.310   2.853   4.781  0.4441  0.0022 -0.3190
19448TIP3    H179835   2.391   2.858   4.831 -0.1033  2.4672  0.4277
19448TIP3    H279836   2.242   2.838   4.847  0.0352  0.3888 -0.6429
19449TIP3   OH279837   1.521   2.539   5.058  0.2102  0.5463 -0.0260
19449TIP3    H179838   1.587   2.474   5.082  0.5949  1.0551  0.3240
19449TIP3    H279839   1.518   2.536   4.962  0.3123  0.1019 -0.0150
19450TIP3   OH279840   3.010   4.208  14.683 -0.2580  0.3540  0.8431
19450TIP3    H179841   3.086   4.265  14.683 -0.1612  0.3038  2.7668
19450TIP3    H279842   2.956   4.238  14.610  1.1476  1.0029  0.0484
19451TIP3   OH279843   6.447   5.751  12.851  0.7529  0.0685  0.5413
19451TIP3    H179844   6.520   5.700  12.816  0.5556  0.4128 -0.4074
19451TIP3    H279845   6.468   5.842  12.827  0.3562  0.2481  0.8764
19452TIP3   OH279846   0.610   6.525   4.156 -0.3827 -0.0702  1.0571
19452TIP3    H179847   0.674   6.454   4.151  0.4509  0.6558  1.1717
19452TIP3    H279848   0.628   6.567   4.240 -1.4113 -0.2160  1.3614
19453TIP3   OH279849   4.861   0.053  13.670 -0.5175 -0.2958 -0.2822
19453TIP3    H179850   4.915   0.057  13.749 -0.9098 -1.0080  0.0286
19453TIP3    H279851   4.772   0.035  13.702 -0.5802 -1.1836 -0.9131
19454TIP3   OH279852   6.285   2.392   6.602  0.0438 -0.6458  0.3640
19454TIP3    H179853   6.298   2.425   6.691 -0.7990  0.5412  0.0735
19454TIP3    H279854   6.365   2.417   6.555 -0.4822  0.8329  0.2101
19455TIP3   OH279855   0.328   1.481   4.248  0.0186  0.1655  0.3398
19455TIP3    H179856   0.366   1.565   4.224 -2.0200  0.7195 -1.1392
19455TIP3    H279857   0.369   1.419   4.187 -1.0043  0.6755 -0.9058
19456TIP3   OH279858   1.736   6.230  11.705 -0.3527  0.2982  0.4145
19456TIP3    H179859   1.662   6.230  11.766 -0.2369 -0.3642  0.5576
19456TIP3    H279860   1.696   6.221  11.619 -0.3964 -0.9201  0.5531
19457TIP3   OH279861   5.254   0.792  14.504  0.0584 -0.0399  0.1159
19457TIP3    H179862   5.284   0.701  14.510  0.2543  0.1102  1.6463
19457TIP3    H279863   5.159   0.786  14.511  0.1598 -0.0300  1.6406
19458TIP3   OH279864   1.315   2.998  17.332 -0.2650  0.2834  0.1410
19458TIP3    H179865   1.399   2.983  17.375 -0.7878  0.4074  1.2483
19458TIP3    H279866   1.264   3.049  17.396 -1.9701 -1.6694  0.4531
19459TIP3   OH279867   1.533   3.444  14.367 -0.5426 -0.5535 -0.4461
19459TIP3    H179868   1.617   3.401  14.352 -1.5856 -2.1594 -2.0223
19459TIP3    H279869   1.509   3.481  14.282 -1.5478 -0.3061 -0.0684
19460TIP3   OH279870   0.042   4.233   5.215  0.1020 -0.5812 -0.2794
19460TIP3    H179871  -0.025   4.286   5.171 -1.1149 -2.1078 -0.3423
19460TIP3    H279872   0.080   4.180   5.145  2.8154  1.5851 -0.6238
19461TIP3   OH279873   1.404   1.974  13.231 -0.0985  0.4259 -0.4655
19461TIP3    H179874   1.471   1.944  13.291  1.5233  3.0511 -0.7954
19461TIP3    H279875   1.369   2.053  13.272 -1.0099  0.6552 -1.6201
19462TIP3   OH279876   1.109   2.781  14.113  0.0406 -0.5573 -0.0682
19462TIP3    H179877   1.104   2.737  14.028 -0.8460 -0.0645 -0.2874
19462TIP3    H279878   1.094   2.712  14.177  2.1271 -1.2035 -0.2157
19463TIP3   OH279879   5.085   1.581  15.473  0.0619  0.1857 -0.1539
19463TIP3    H179880   5.077   1.599  15.379 -3.4189 -2.1399 -0.5045
19463TIP3    H279881   5.139   1.502  15.477  0.0998  0.2084 -0.2140
19464TIP3   OH279882   6.695   2.821  17.107  0.3696 -0.6150 -0.6656
19464TIP3    H179883   6.768   2.831  17.169  0.6238 -0.2268 -1.0220
19464TIP3    H279884   6.729   2.856  17.025 -0.5815  0.5785 -0.5733
19465TIP3   OH279885   1.540   3.032  17.057  0.9311 -0.8086 -0.2596
19465TIP3    H179886   1.523   2.946  17.095 -0.3983 -0.5201 -0.1240
19465TIP3    H279887   1.613   3.067  17.108  1.2366 -1.6986 -0.0715
19466TIP3   OH279888   1.882   5.211  15.325  0.0437  0.0801 -0.1065
19466TIP3    H179889   1.969   5.217  15.287  0.8545 -1.5803  1.3466
19466TIP3    H279890   1.862   5.299  15.357  0.4554  0.8634 -1.8664
19467TIP3   OH279891   0.940   3.511  12.802 -0.1696  0.8663  0.0519
19467TIP3    H179892   0.874   3.445  12.779 -0.1322  0.5856  0.7326
19467TIP3    H279893   0.893   3.575  12.855  0.4542 -0.2913  2.1378
19468TIP3   OH279894   4.439   3.818  14.438 -0.0175 -0.1005  0.4055
19468TIP3    H179895   4.400   3.787  14.356  1.8419  1.0398 -1.0035
19468TIP3    H279896   4.435   3.914  14.431  0.4856  0.0093  1.4806
19469TIP3   OH279897   2.087   5.875  12.963 -0.5293 -0.4367 -0.1705
19469TIP3    H179898   2.138   5.833  13.032 -1.5651 -1.3178  0.0872
19469TIP3    H279899   2.018   5.923  13.011 -0.9349 -0.6167 -0.5684
19470TIP3   OH279900   1.454   0.320  15.728  0.1160  0.1951 -0.0422
19470TIP3    H179901   1.507   0.399  15.720  0.9621 -0.5237 -2.8187
19470TIP3    H279902   1.509   0.260  15.779  1.0912  0.1992 -1.0423
19471TIP3   OH279903   3.806   6.629   5.185  0.4360  0.0732  0.2817
19471TIP3    H179904   3.780   6.706   5.235 -0.8882 -0.1859  0.0271
19471TIP3    H279905   3.823   6.662   5.096  1.0834  0.2581  0.4707
19472TIP3   OH279906   2.840   0.312  12.407  0.1837  0.0821 -0.3368
19472TIP3    H179907   2.849   0.404  12.383 -0.3832  1.0083  2.5861
19472TIP3    H279908   2.771   0.279  12.349 -1.3711  2.2289  0.1487
19473TIP3   OH279909   2.226   2.517   5.794 -0.2841  0.3584 -0.2508
19473TIP3    H179910   2.143   2.493   5.835  1.4436 -1.6178  2.3989
19473TIP3    H279911   2.283   2.542   5.866  1.4894  1.6440 -1.9807
19474TIP3   OH279912   0.341   1.978   4.668 -0.5561  0.2212  0.8082
19474TIP3    H179913   0.312   2.038   4.599  2.4786  2.0261  0.9404
19474TIP3    H279914   0.426   1.947   4.639  0.1315 -0.1513  3.0320
19475TIP3   OH279915   0.651   1.101   1.105 -0.3808 -0.4777  0.0841
19475TIP3    H179916   0.570   1.074   1.061 -1.2229 -0.4653  1.5264
19475TIP3    H279917   0.707   1.023   1.102 -1.7126 -1.5847  1.7973
19476TIP3   OH279918   4.346   6.648   4.304  0.0719 -0.0292 -0.1193
19476TIP3    H179919   4.412   6.616   4.366 -2.1556 -3.6151  0.7209
19476TIP3    H279920   4.378   6.620   4.219  0.4546 -0.2225  0.0825
19477TIP3   OH279921   5.055   3.108   2.517 -0.1718  0.3436  0.1744
19477TIP3    H179922   5.013   3.023   2.529  0.7169 -0.3383 -1.2932
19477TIP3    H279923   5.114   3.096   2.443  1.5075  1.6742  1.2080
19478TIP3   OH279924   2.723   4.113  16.429 -0.3173  0.4250  0.4047
19478TIP3    H179925   2.761   4.121  16.516  1.3668  0.3931 -0.2972
19478TIP3    H279926   2.722   4.019  16.412  1.7076  0.5276 -0.5585
19479TIP3   OH279927   4.445   3.558  12.217 -0.0149  0.4903 -0.2563
19479TIP3    H179928   4.451   3.466  12.245  0.9380  0.4640 -0.5111
19479TIP3    H279929   4.485   3.558  12.130 -1.3286  0.8926 -0.8718
19480TIP3   OH279930   4.165   1.280   1.629 -0.8037 -0.2172 -0.1060
19480TIP3    H179931   4.208   1.261   1.712 -0.4957 -0.9684 -0.4298
19480TIP3    H279932   4.112   1.358   1.647 -3.0569 -1.9984  1.6272
19481TIP3   OH279933   2.517   6.753  15.565 -0.0454 -0.1665  0.2820
19481TIP3    H179934   2.601   6.754  15.610  0.0402  0.0934  0.1169
19481TIP3    H279935   2.527   6.815  15.493 -0.7797  0.8121  0.9979
19482TIP3   OH279936   3.367   2.602   0.743 -0.4230 -0.2909  0.2543
19482TIP3    H179937   3.445   2.548   0.726 -0.1968  0.7033 -2.2203
19482TIP3    H279938   3.395   2.663   0.811  0.7972 -0.2788 -0.2325
19483TIP3   OH279939   2.197   1.809   2.397 -0.3782  0.3166 -0.3107
19483TIP3    H179940   2.176   1.746   2.328 -1.3444  0.7701 -0.4430
19483TIP3    H279941   2.114   1.852   2.418 -0.0281  0.4759  0.8561
19484TIP3   OH279942   3.405   1.742   4.664  0.1788  0.4627  0.4632
19484TIP3    H179943   3.427   1.651   4.682  1.3302 -0.0204 -2.6800
19484TIP3    H279944   3.489   1.789   4.666 -0.3679  1.4328  1.7980
19485TIP3   OH279945   4.005   6.224   4.728  0.2642 -0.3186  0.2600
19485TIP3    H179946   4.079   6.233   4.789 -0.0377 -1.3501  0.8005
19485TIP3    H279947   4.038   6.168   4.659  0.2100 -0.1795  0.1205
19486TIP3   OH279948   3.813   3.235   4.010  0.0999 -0.6454 -0.5455
19486TIP3    H179949   3.760   3.193   4.078 -0.2633  2.1817  1.0909
19486TIP3    H279950   3.903   3.221   4.038  0.0904 -2.0781 -1.1742
19487TIP3   OH279951   0.033   0.003   3.282 -0.5878 -0.6984  0.8056
19487TIP3    H179952  -0.044  -0.043   3.316 -1.1260 -1.0810 -0.8420
19487TIP3    H279953   0.082  -0.064   3.234  0.0251 -0.1321  0.6178
19488TIP3   OH279954   3.823   4.478  15.899 -0.4089  0.4025  0.2836
19488TIP3    H179955   3.897   4.442  15.850 -0.6361  0.7152 -0.3043
19488TIP3    H279956   3.762   4.405  15.910  0.3781 -0.1018  1.5834
19489TIP3   OH279957   0.727   4.159   0.937 -0.1917  0.2000  0.1414
19489TIP3    H179958   0.668   4.168   1.011 -0.6326 -0.2971 -0.1418
19489TIP3    H279959   0.698   4.224   0.873 -1.1424 -0.7844 -0.4522
19490TIP3   OH279960   5.890   0.009   3.539 -0.1869  0.1336  0.0319
19490TIP3    H179961   5.900   0.069   3.465  0.5783 -0.3331 -0.2532
19490TIP3    H279962   5.831   0.055   3.599 -0.9427  0.4518 -0.9290
19491TIP3   OH279963   5.428   1.216  10.922 -0.1230 -0.0678 -0.4565
19491TIP3    H179964   5.369   1.175  10.985  1.1297  0.6666  1.2899
19491TIP3    H279965   5.491   1.148  10.898  0.0046 -0.0751 -0.1036
19492TIP3   OH279966   3.319   5.612  11.976  0.1111 -0.2827 -0.6905
19492TIP3    H179967   3.317   5.707  11.984  2.1648 -0.3019  1.2145
19492TIP3    H279968   3.376   5.595  11.901  0.1416 -0.0024 -0.7326
19493TIP3   OH279969   3.476   4.321  11.323  0.3976 -0.1203 -0.2603
19493TIP3    H179970   3.439   4.233  11.311 -0.9008  0.6146 -1.9779
19493TIP3    H279971   3.509   4.345  11.237  0.2223  1.2993  0.0510
19494TIP3   OH279972   3.746   0.134   5.553 -0.4980  0.4277 -0.2865
19494TIP3    H179973   3.830   0.128   5.509  0.1986  1.5422  0.8170
19494TIP3    H279974   3.711   0.045   5.550  0.0654  0.2201 -1.9595
19495TIP3   OH279975   5.252   3.840  12.430 -0.8611  0.4799 -0.1478
19495TIP3    H179976   5.168   3.811  12.466 -1.3771  1.7669 -0.2664
19495TIP3    H279977   5.237   3.931  12.404 -0.0506  0.1066 -2.1315
19496TIP3   OH279978   2.238   4.128   4.081  0.2962 -0.4133  0.2006
19496TIP3    H179979   2.289   4.095   4.007  1.4131  0.6611  0.4553
19496TIP3    H279980   2.280   4.092   4.158 -1.0019 -1.7105  0.3583
19497TIP3   OH279981   1.980   3.470  13.317  0.5662 -0.4090  0.4244
19497TIP3    H179982   2.001   3.563  13.318  0.1997 -0.1091 -3.5581
19497TIP3    H279983   2.055   3.428  13.360  1.0075  1.6209  1.7873
19498TIP3   OH279984   0.857   1.694   5.527  0.4015  0.0755  0.2629
19498TIP3    H179985   0.920   1.698   5.456 -0.5088 -2.2526 -0.7485
19498TIP3    H279986   0.829   1.785   5.539  0.2778  0.5278 -2.6659
19499TIP3   OH279987   0.745   0.415   0.077 -0.7654 -0.0057 -0.0521
19499TIP3    H179988   0.664   0.379   0.112 -0.9083  1.1166  0.8226
19499TIP3    H279989   0.772   0.481   0.141  0.3926  0.2311 -0.7489
19500TIP3   OH279990   0.358   4.707  14.258 -0.0034 -0.0128  0.2426
19500TIP3    H179991   0.325   4.618  14.271  0.9838 -0.5486 -0.7082
19500TIP3    H279992   0.419   4.721  14.330  1.2538 -0.8548 -0.6037
19501TIP3   OH279993   5.422   1.121  12.906 -0.3480  0.2731 -0.1858
19501TIP3    H179994   5.438   1.166  12.823 -0.6916 -0.6784 -0.7780
19501TIP3    H279995   5.508   1.091  12.935 -0.0178  1.7867  0.5207
19502TIP3   OH279996   3.402   5.756   3.932  0.4932  0.6078  0.1156
19502TIP3    H179997   3.497   5.765   3.924  0.6918 -0.1149  1.3369
19502TIP3    H279998   3.370   5.846   3.942  1.2083  0.7660  1.1165
19503TIP3   OH279999   6.687   4.415   6.172 -0.1012 -0.0507  0.0066
19503TIP3    H180000   6.645   4.499   6.150 -1.9599 -0.7908  0.5555
19503TIP3    H280001   6.746   4.437   6.244 -1.1989  0.6657  0.7257
19504TIP3   OH280002   4.783   0.708   3.090  0.3799 -0.1832  0.3966
19504TIP3    H180003   4.784   0.612   3.087 -0.1472 -0.1756 -0.3928
19504TIP3    H280004   4.875   0.734   3.081  0.4340 -0.5977 -0.3007
19505TIP3   OH280005   4.283   1.978  10.944 -0.0443 -0.1980 -0.0242
19505TIP3    H180006   4.241   2.011  10.865  2.1377  0.0301 -1.1569
19505TIP3    H280007   4.220   1.917  10.982 -1.3064  0.0172 -1.6918
19506TIP3   OH280008   5.616   3.691  11.566 -0.1570  0.1923 -0.2056
19506TIP3    H180009   5.699   3.733  11.586  1.1358 -1.6422 -1.3677
19506TIP3    H280010   5.614   3.614  11.623 -1.6830  0.8638  0.7000
19507TIP3   OH280011   1.912   2.977  12.380 -0.3380  0.3000 -0.3008
19507TIP3    H180012   1.893   2.938  12.465  1.4793  0.9100  0.4309
19507TIP3    H280013   1.847   2.939  12.321 -0.9783 -0.9270  1.1367
19508TIP3   OH280014   5.879   0.583   0.574 -0.0281 -0.5091 -0.0530
19508TIP3    H180015   5.974   0.575   0.560  0.3401  0.3134  1.7190
19508TIP3    H280016   5.857   0.669   0.538 -0.0341 -0.5258 -0.0899
19509TIP3   OH280017   5.228   1.488  12.226 -0.3956 -0.4438  0.2126
19509TIP3    H180018   5.316   1.453  12.211 -0.4856 -0.9022  0.7427
19509TIP3    H280019   5.238   1.582  12.213  0.2196 -0.4668  0.4774
19510TIP3   OH280020   5.094   6.636   0.543 -0.0927  0.2839  0.0092
19510TIP3    H180021   5.125   6.555   0.582 -0.7044  1.0375  2.2232
19510TIP3    H280022   5.066   6.611   0.455  2.1431 -1.3454 -0.3142
19511TIP3   OH280023   2.246   0.794   2.823  0.0640 -0.0847  0.1613
19511TIP3    H180024   2.245   0.818   2.730 -1.6860 -1.1352 -0.1408
19511TIP3    H280025   2.287   0.869   2.866 -0.3063  1.0323 -1.3137
19512TIP3   OH280026   6.075   6.284   4.083 -0.6728  0.3841 -0.4091
19512TIP3    H180027   6.111   6.363   4.122 -1.5856 -0.3650  2.2018
19512TIP3    H280028   6.150   6.225   4.075 -0.5290  0.3527  0.8963
19513TIP3   OH280029   1.785   2.826  15.192  0.1524  0.4218 -0.2399
19513TIP3    H180030   1.875   2.807  15.167  0.0470  0.5169 -0.7041
19513TIP3    H280031   1.791   2.908  15.241  0.1851  1.1105 -1.3414
19514TIP3   OH280032   4.924   0.437   4.430 -0.6465  0.3956  0.4337
19514TIP3    H180033   4.837   0.437   4.391 -1.0674  0.0204  1.3475
19514TIP3    H280034   4.917   0.498   4.503 -0.8046 -1.3084  1.9047
19515TIP3   OH280035   6.667   0.755  14.708  0.2160  0.3889 -0.0306
19515TIP3    H180036   6.633   0.742  14.797  0.1935 -0.5708 -0.1768
19515TIP3    H280037   6.602   0.713  14.651  0.7712  0.0690 -0.4327
19516TIP3   OH280038   5.329   0.383  16.524 -0.4503 -0.6731 -0.6085
19516TIP3    H180039   5.246   0.428  16.507 -1.0658 -1.0907  1.0619
19516TIP3    H280040   5.395   0.434  16.476 -1.5538  0.1531 -1.2859
19517TIP3   OH280041   4.917   5.882   3.307  0.2596  0.4769 -0.3204
19517TIP3    H180042   4.974   5.826   3.360  0.3829  1.0086  0.1151
19517TIP3    H280043   4.829   5.866   3.341 -0.0300 -1.1808 -1.7203
19518TIP3   OH280044   6.149   6.034  15.076  0.8383  0.5356 -0.4792
19518TIP3    H180045   6.225   6.053  15.022  0.0930 -0.8995 -2.1468
19518TIP3    H280046   6.183   6.032  15.165  2.2895  2.0876 -0.9452
19519TIP3   OH280047   3.621   5.961   6.233 -0.1056  0.4452 -0.9929
19519TIP3    H180048   3.703   6.010   6.229 -0.6239  1.6366  1.1857
19519TIP3    H280049   3.553   6.028   6.237 -0.8339 -0.3238  2.1062
19520TIP3   OH280050   2.937   1.010  11.332 -0.5326  0.6940 -0.4956
19520TIP3    H180051   3.006   1.076  11.334 -0.3174  0.5146  2.7134
19520TIP3    H280052   2.981   0.930  11.303  0.2565  0.9566 -0.0595
19521TIP3   OH280053   6.425   6.262   5.219  1.3797 -0.4726  0.0656
19521TIP3    H180054   6.436   6.258   5.314  2.2515 -3.0512 -0.0735
19521TIP3    H280055   6.487   6.330   5.191  0.4999  0.9286  1.3690
19522TIP3   OH280056   2.057   3.046   2.326 -0.8487 -0.4832  0.1188
19522TIP3    H180057   2.132   3.103   2.343 -1.7616  1.0490 -0.7887
19522TIP3    H280058   2.001   3.056   2.402 -0.3308 -1.3583  0.6367
19523TIP3   OH280059   6.028   3.258   1.616 -0.1399 -0.2665  0.0871
19523TIP3    H180060   6.012   3.208   1.535  0.4213 -1.0766  0.4587
19523TIP3    H280061   5.947   3.306   1.631 -0.3864 -0.4011 -0.7598
19524TIP3   OH280062   0.753   3.684   4.563 -0.4792  0.7829 -0.3827
19524TIP3    H180063   0.669   3.681   4.517 -1.2263 -0.7021  0.9577
19524TIP3    H280064   0.730   3.673   4.655  1.1799  0.3491  0.0231
19525TIP3   OH280065   3.907   6.639  13.373 -0.1833 -0.2581 -0.3757
19525TIP3    H180066   3.946   6.568  13.322  2.7406  0.6586  0.4335
19525TIP3    H280067   3.880   6.597  13.454  0.6896 -0.6396 -0.2687
19526TIP3   OH280068   6.710   5.309  16.249  0.7661 -0.2722 -0.1700
19526TIP3    H180069   6.633   5.365  16.239  1.4140  0.3917 -1.7854
19526TIP3    H280070   6.750   5.338  16.331 -0.5560 -0.4631  0.5590
19527TIP3   OH280071   3.226   5.954   2.545  0.2829 -0.3887  0.1152
19527TIP3    H180072   3.224   5.862   2.572  0.8656 -0.2549  0.6262
19527TIP3    H280073   3.144   5.966   2.497  0.2522 -1.2014 -0.0489
19528TIP3   OH280074   6.652   2.057  16.751  0.0020 -0.1631  0.2459
19528TIP3    H180075   6.609   2.039  16.668 -0.0860 -0.8116  0.4225
19528TIP3    H280076   6.602   2.129  16.790 -0.4062 -0.3474  0.0675
19529TIP3   OH280077   1.446   3.882  17.405  0.2851  0.1497 -0.6457
19529TIP3    H180078   1.530   3.903  17.447 -0.1098  0.7535 -0.1547
19529TIP3    H280079   1.402   3.966  17.396 -0.3894 -0.2017 -0.6504
19530TIP3   OH280080   1.052   3.453   2.425 -0.5119 -0.2012  0.0468
19530TIP3    H180081   1.112   3.526   2.443  0.6136 -1.2666  0.7901
19530TIP3    H280082   0.970   3.480   2.466 -0.0269  0.5264  0.5859
19531TIP3   OH280083   4.089   3.910   4.042  0.4299  0.4955 -0.0555
19531TIP3    H180084   4.005   3.868   4.059 -0.4056  2.4250  0.8831
19531TIP3    H280085   4.072   3.966   3.966  0.8960  0.8327  0.0880
19532TIP3   OH280086   0.228   0.396  11.891 -0.4671 -0.5236  0.9213
19532TIP3    H180087   0.248   0.384  11.798 -0.9433 -1.1163  0.8881
19532TIP3    H280088   0.229   0.491  11.903  1.2251 -0.4841  0.6900
19533TIP3   OH280089   4.769   1.507  11.395 -0.0153  0.3620 -0.3421
19533TIP3    H180090   4.686   1.554  11.400  0.3478  1.0205 -0.3710
19533TIP3    H280091   4.762   1.439  11.463 -0.5846  0.3846 -0.3697
19534TIP3   OH280092   3.371   1.822   0.076  1.2492  0.2443 -0.2646
19534TIP3    H180093   3.300   1.820   0.139 -1.4903 -1.2570 -3.1258
19534TIP3    H280094   3.349   1.894   0.017  2.0299 -0.2805 -1.2422
19535TIP3   OH280095   2.637   2.059  10.472  0.2178  0.1566 -0.0144
19535TIP3    H180096   2.544   2.070  10.495 -0.0255  0.1566 -0.9745
19535TIP3    H280097   2.650   1.964  10.472 -0.4257  0.0229 -2.2793
19536TIP3   OH280098   2.773   5.465  15.337 -0.2064 -0.0762 -0.2091
19536TIP3    H180099   2.863   5.486  15.311 -0.2112  0.3307  0.0954
19536TIP3    H280100   2.782   5.416  15.419 -0.1706 -1.6978 -1.1315
19537TIP3   OH280101   6.162   3.016   0.344  0.8338 -0.0106 -0.3136
19537TIP3    H180102   6.183   3.011   0.437  1.4824  1.0482 -0.3935
19537TIP3    H280103   6.243   2.991   0.299  1.2498  1.6962 -0.5965
19538TIP3   OH280104   0.752   3.319   2.153 -0.1480 -0.5911 -0.2491
19538TIP3    H180105   0.796   3.404   2.159 -1.1701 -0.1455  2.0011
19538TIP3    H280106   0.823   3.255   2.147  0.7155  0.2727  0.4695
19539TIP3   OH280107   5.644   0.223  13.095  0.2575  0.5087  0.4175
19539TIP3    H180108   5.644   0.127  13.101  0.6622  0.5611  1.6547
19539TIP3    H280109   5.554   0.248  13.112  0.4506  0.3930  1.7756
19540TIP3   OH280110   1.365   2.903  13.909  0.7022  0.4131  0.1800
19540TIP3    H180111   1.459   2.881  13.911  0.5391 -0.4502 -0.6845
19540TIP3    H280112   1.350   2.949  13.992  2.2105  1.9781 -0.3621
19541TIP3   OH280113   2.924   5.845  13.117 -0.3984 -0.1971  0.8392
19541TIP3    H180114   2.900   5.891  13.198 -1.9347 -1.0729  0.9172
19541TIP3    H280115   2.868   5.768  13.115  0.2722 -0.6968 -0.6141
19542TIP3   OH280116   0.741   2.988   2.920 -0.4203 -0.6635  0.1912
19542TIP3    H180117   0.668   3.015   2.976 -1.0108  2.0040 -1.6733
19542TIP3    H280118   0.704   2.920   2.864 -1.4417  0.4774 -0.5563
19543TIP3   OH280119   2.517   5.147  15.818  0.3214 -0.0230  0.0824
19543TIP3    H180120   2.428   5.183  15.824  0.6671  0.8564  0.0213
19543TIP3    H280121   2.504   5.052  15.811 -0.5547 -0.0914  1.9488
19544TIP3   OH280122   2.631   0.916   5.078 -0.1261 -0.8804  0.2301
19544TIP3    H180123   2.665   0.996   5.118  1.1882 -1.7143  0.8951
19544TIP3    H280124   2.581   0.874   5.148 -1.5198 -0.2647 -0.3700
19545TIP3   OH280125   3.750   3.773   5.464  0.3415  0.0138  0.7780
19545TIP3    H180126   3.689   3.714   5.420 -0.8905  2.0137 -0.3764
19545TIP3    H280127   3.760   3.737   5.552  1.2224 -2.9599 -0.4154
19546TIP3   OH280128   2.943   2.114   4.224  0.2667 -0.0840 -0.1671
19546TIP3    H180129   2.898   2.152   4.299 -0.9664 -0.2761 -0.7809
19546TIP3    H280130   2.969   2.189   4.171  0.1478  0.0091 -0.0948
19547TIP3   OH280131   5.166   0.937  15.644  0.0188  0.5664  0.8107
19547TIP3    H180132   5.097   0.908  15.704 -0.5704  0.2142 -0.0191
19547TIP3    H280133   5.243   0.886  15.669 -1.2221 -2.5556 -1.2327
19548TIP3   OH280134   0.331   4.938   0.296  0.2471 -0.0617 -0.6028
19548TIP3    H180135   0.290   5.007   0.245 -0.9073 -0.3444 -0.0877
19548TIP3    H280136   0.349   4.978   0.381 -0.5681 -0.4304 -0.2513
19549TIP3   OH280137   4.779   3.366  13.373  0.4717 -0.0607  0.2869
19549TIP3    H180138   4.721   3.293  13.396 -3.2973  2.5989  0.1383
19549TIP3    H280139   4.846   3.365  13.441 -1.1118 -1.9370  1.9605
19550TIP3   OH280140   2.365   1.356   0.823 -0.1194 -0.0663  0.0321
19550TIP3    H180141   2.433   1.394   0.879 -0.6095 -0.8901  1.2404
19550TIP3    H280142   2.411   1.288   0.773 -0.0231 -0.6340  0.8599
19551TIP3   OH280143   5.963   5.883   0.406 -0.3629 -0.5248  0.1472
19551TIP3    H180144   5.918   5.835   0.475 -0.3855 -0.2513  0.3278
19551TIP3    H280145   5.944   5.835   0.326 -1.7124  0.0716  0.0861
19552TIP3   OH280146   4.892   1.999   1.050  0.1992  0.2628  0.7545
19552TIP3    H180147   4.933   1.924   1.006  2.8732  1.3034  1.2959
19552TIP3    H280148   4.830   1.960   1.111  1.7460 -1.5862  1.2603
19553TIP3   OH280149   3.459   4.031  11.544  0.5410  0.0126 -0.5918
19553TIP3    H180150   3.370   4.057  11.521  0.8932  0.5965 -1.3486
19553TIP3    H280151   3.491   3.987  11.465  0.2457 -2.0223  0.3660
19554TIP3   OH280152   6.781   4.711  16.284 -0.0534  0.1098  0.5629
19554TIP3    H180153   6.776   4.782  16.220  2.6017  2.1961  2.4722
19554TIP3    H280154   6.751   4.749  16.366  2.0009 -0.7043  1.7727
19555TIP3   OH280155   5.342   4.265  15.183  0.1470 -0.3025 -0.0005
19555TIP3    H180156   5.379   4.328  15.121  0.4440 -0.1358  0.3512
19555TIP3    H280157   5.284   4.211  15.129  0.1314  0.0689 -0.3612
19556TIP3   OH280158   5.270   0.617   0.238  0.0079 -0.1451  0.1098
19556TIP3    H180159   5.247   0.594   0.328  0.6771 -2.3605 -0.2293
19556TIP3    H280160   5.186   0.641   0.198 -0.4312 -0.0314  1.0675
19557TIP3   OH280161   4.053   5.887  13.388  0.3616 -0.5124  0.0577
19557TIP3    H180162   4.115   5.814  13.397 -0.1906 -0.8675  1.0636
19557TIP3    H280163   3.986   5.854  13.329  1.0555 -0.1577 -0.9664
19558TIP3   OH280164   4.581   4.992  11.606 -0.0904 -0.4776 -0.6230
19558TIP3    H180165   4.628   4.937  11.545 -1.2675 -0.9169 -1.1652
19558TIP3    H280166   4.558   5.070  11.555 -1.1531 -0.8846 -0.7873
19559TIP3   OH280167   6.732   2.154   5.173 -0.3507 -0.0146  0.5255
19559TIP3    H180168   6.752   2.089   5.240 -0.9126  0.8571  1.5672
19559TIP3    H280169   6.810   2.209   5.168  0.4550 -1.2015 -0.9426
19560TIP3   OH280170   3.306   3.272  12.745 -0.5427 -0.1679  0.0844
19560TIP3    H180171   3.212   3.278  12.726 -0.7875  1.4586  1.5743
19560TIP3    H280172   3.313   3.201  12.809 -0.8592  0.1277  0.4555
19561TIP3   OH280173   6.193   2.999   5.800 -0.0681  0.2833  0.5126
19561TIP3    H180174   6.241   3.082   5.799 -0.4504  0.5170  0.8596
19561TIP3    H280175   6.107   3.022   5.766  0.3140 -0.3006 -0.8894
19562TIP3   OH280176   4.923   3.708   4.381 -0.1421 -0.1157 -0.4517
19562TIP3    H180177   4.901   3.664   4.299  1.4238 -1.7776 -0.0333
19562TIP3    H280178   4.876   3.658   4.449 -0.3907  0.4504 -0.1960
19563TIP3   OH280179   2.684   0.937  12.638 -0.5017  0.3739 -0.2415
19563TIP3    H180180   2.630   0.880  12.583 -0.2896  0.9381 -1.0588
19563TIP3    H280181   2.733   0.877  12.694 -1.8861 -0.1559  0.4544
19564TIP3   OH280182   1.531   5.549   2.219  1.0197  0.3170  0.8038
19564TIP3    H180183   1.605   5.591   2.263 -0.3750  2.3418  1.4092
19564TIP3    H280184   1.531   5.459   2.251  2.7980  0.4715  1.3147
19565TIP3   OH280185   0.182   1.879  12.422  0.3541  1.4296 -0.5834
19565TIP3    H180186   0.222   1.890  12.508 -2.3224 -0.0022  0.9835
19565TIP3    H280187   0.244   1.825  12.373  0.0415 -1.7437  2.1340
19566TIP3   OH280188   2.419   1.900  13.637  0.9065  0.6139 -0.2515
19566TIP3    H180189   2.383   1.948  13.562  0.1786  2.4785  1.2127
19566TIP3    H280190   2.430   1.811  13.605 -2.2459  0.6138 -1.7039
19567TIP3   OH280191   2.052   2.348   2.961 -0.3985  0.2755 -0.0150
19567TIP3    H180192   2.057   2.382   3.050 -1.8847  0.5618 -0.0063
19567TIP3    H280193   1.988   2.277   2.966  2.2634 -2.2835 -0.1467
19568TIP3   OH280194   0.949   5.423  15.061  0.9195  0.0041  0.1232
19568TIP3    H180195   0.869   5.464  15.028  0.3850 -0.6658  0.5392
19568TIP3    H280196   0.966   5.352  15.000 -0.0321 -1.1951  1.1867
19569TIP3   OH280197   0.299   3.714   1.073 -0.0109 -0.1576 -0.1469
19569TIP3    H180198   0.265   3.650   1.011  0.5156  0.1920 -0.8142
19569TIP3    H280199   0.387   3.684   1.094 -0.1819 -0.2688  0.4343
19570TIP3   OH280200   0.430   0.128  13.055  0.1686 -0.3781 -0.5866
19570TIP3    H180201   0.505   0.077  13.086 -0.5506 -0.8674  0.4090
19570TIP3    H280202   0.371   0.133  13.130 -0.8497 -0.0884 -1.3731
19571TIP3   OH280203   0.257   6.433   6.747 -0.2215 -0.1488 -0.0767
19571TIP3    H180204   0.221   6.513   6.710  0.7457 -0.2343 -1.2889
19571TIP3    H280205   0.250   6.444   6.842 -0.8676  0.9925 -0.2466
19572TIP3   OH280206   3.563   4.915   0.414 -0.2954 -0.1898 -0.2105
19572TIP3    H180207   3.469   4.923   0.403 -0.2286 -0.2034 -0.8509
19572TIP3    H280208   3.588   4.841   0.358  0.4925  1.7115 -2.5306
19573TIP3   OH280209   4.671   3.392  12.762 -0.3790 -0.0521  0.4671
19573TIP3    H180210   4.729   3.426  12.830  0.1848  2.1364 -0.9722
19573TIP3    H280211   4.595   3.451  12.764  0.7920  1.7679 -2.3683
19574TIP3   OH280212   6.251   3.645   1.642  0.3176 -0.3368  0.0244
19574TIP3    H180213   6.299   3.723   1.613 -0.0203  0.3253  1.1867
19574TIP3    H280214   6.295   3.573   1.598  0.8705  0.4747 -0.7932
19575TIP3   OH280215   3.136   1.816   6.322  0.2701 -0.0665  0.0124
19575TIP3    H180216   3.175   1.790   6.405 -1.1705  0.0908  0.7671
19575TIP3    H280217   3.096   1.901   6.340  1.0974  0.6264 -1.2301
19576TIP3   OH280218   1.550   1.517  11.250  0.3805  0.3720  0.7950
19576TIP3    H180219   1.623   1.520  11.189  1.0354  0.3364  1.5509
19576TIP3    H280220   1.474   1.544  11.199  1.2472  2.3094  0.4695
19577TIP3   OH280221   1.171   0.461   1.811  0.4087 -1.0116  0.3587
19577TIP3    H180222   1.146   0.429   1.898  0.7803 -2.4401 -0.0335
19577TIP3    H280223   1.157   0.387   1.753  0.7683 -0.2714 -0.7100
19578TIP3   OH280224   3.817   4.330   3.226  0.0795  0.4254 -0.1094
19578TIP3    H180225   3.821   4.424   3.208 -0.2564  0.9654  2.3277
19578TIP3    H280226   3.893   4.314   3.282  0.6140 -0.9655 -1.1705
19579TIP3   OH280227   1.571   3.311  17.314 -0.3152  0.4669 -0.2284
19579TIP3    H180228   1.578   3.270  17.400 -0.9654  0.5895 -0.1107
19579TIP3    H280229   1.622   3.255  17.256 -1.2009 -0.5305 -0.0733
19580TIP3   OH280230   3.767   0.307  10.559  0.1204  0.0473  0.3158
19580TIP3    H180231   3.679   0.282  10.587 -0.2889 -0.9592 -1.7056
19580TIP3    H280232   3.768   0.292  10.465  2.0433  1.3383  0.0627
19581TIP3   OH280233   4.657   3.284  16.844 -0.0343  0.4851  0.5610
19581TIP3    H180234   4.619   3.370  16.825 -1.1348  0.2194  1.4549
19581TIP3    H280235   4.631   3.265  16.934  2.3923  0.3208  1.3083
19582TIP3   OH280236   2.967   2.135  16.833  0.0785  0.5027  0.2532
19582TIP3    H180237   2.928   2.215  16.869 -3.8164 -1.1270  0.2121
19582TIP3    H280238   3.015   2.097  16.907  0.2478  1.8599  0.8711
19583TIP3   OH280239   0.601   3.739   5.182  0.3345 -0.5852 -0.0249
19583TIP3    H180240   0.647   3.723   5.264 -1.0421 -1.2672  0.6359
19583TIP3    H280241   0.514   3.702   5.195 -0.6259  1.1784 -1.0130
19584TIP3   OH280242   3.282   1.611   6.104 -0.0555 -0.7852 -0.3080
19584TIP3    H180243   3.375   1.628   6.090  0.5414 -1.9511  1.8087
19584TIP3    H280244   3.269   1.521   6.075 -0.4396 -0.7296 -0.3100
19585TIP3   OH280245   1.850   6.700  16.728  0.0817 -0.3918 -0.0377
19585TIP3    H180246   1.852   6.690  16.823  0.1694 -0.8036 -0.0793
19585TIP3    H280247   1.836   6.611  16.695 -1.0506 -0.1160 -0.3694
19586TIP3   OH280248   0.766   3.922   6.321  0.3243  0.1763 -0.3621
19586TIP3    H180249   0.791   3.994   6.264 -2.3593  1.0046 -0.6391
19586TIP3    H280250   0.690   3.954   6.368 -0.1325 -2.0154  0.5189
19587TIP3   OH280251   5.927   4.446   3.680  0.3344 -0.5387  0.0191
19587TIP3    H180252   6.005   4.442   3.626  0.0948 -1.3356 -0.2805
19587TIP3    H280253   5.865   4.385   3.639  0.2700 -1.4256  1.3515
19588TIP3   OH280254   5.733   3.118   3.269  0.0510 -0.0747 -0.3201
19588TIP3    H180255   5.664   3.084   3.211 -1.5125  1.9796  0.2000
19588TIP3    H280256   5.759   3.201   3.228 -0.0477  0.6931  1.1017
19589TIP3   OH280257   0.851   0.948   1.778  0.2414 -0.2570 -0.0216
19589TIP3    H180258   0.853   0.892   1.701  1.1856 -0.1025 -0.1257
19589TIP3    H280259   0.895   0.897   1.846  1.2277  0.3781 -0.1522
19590TIP3   OH280260   3.763   6.292   0.883  0.2170  0.4955 -0.1418
19590TIP3    H180261   3.709   6.215   0.899  0.6235  0.2620  0.1230
19590TIP3    H280262   3.814   6.303   0.964  1.8335 -0.3173 -1.0050
19591TIP3   OH280263   3.748   6.552   5.730  0.2918  0.2528 -0.3958
19591TIP3    H180264   3.711   6.525   5.814 -0.7585 -0.9880 -1.2367
19591TIP3    H280265   3.788   6.637   5.749  0.9920 -0.4475  1.6043
19592TIP3   OH280266   6.739   1.258  14.211  0.1419 -0.2314 -0.1857
19592TIP3    H180267   6.710   1.331  14.156 -0.4421 -0.6780 -0.4810
19592TIP3    H280268   6.660   1.206  14.227  0.0077  0.5936  2.2294
19593TIP3   OH280269   5.312   4.440  16.384  0.4896 -0.3953 -0.0580
19593TIP3    H180270   5.236   4.454  16.439 -0.4781  2.0453 -1.8270
19593TIP3    H280271   5.385   4.479  16.432  0.3443 -1.3149  0.9332
19594TIP3   OH280272   0.922   5.288   5.978 -0.2095 -0.0295  0.0827
19594TIP3    H180273   0.891   5.358   6.035  0.9589 -1.0049  2.0374
19594TIP3    H280274   0.877   5.303   5.894 -2.9997  0.7561  1.5852
19595TIP3   OH280275   1.161   6.563   4.325 -0.1892  0.2807  0.1953
19595TIP3    H180276   1.202   6.638   4.368 -0.3607  0.7765 -0.4907
19595TIP3    H280277   1.190   6.488   4.376  2.3629  0.4854 -0.8069
19596TIP3   OH280278   6.186   2.321   1.157 -0.6076  0.2454 -0.1348
19596TIP3    H180279   6.226   2.234   1.163 -1.1062  0.0116 -0.1823
19596TIP3    H280280   6.256   2.377   1.123 -0.3370 -0.1728 -0.2729
19597TIP3   OH280281   3.272   6.085   4.752  0.1024 -0.4875 -0.0446
19597TIP3    H180282   3.254   6.014   4.691  0.6744 -1.9251  1.3820
19597TIP3    H280283   3.363   6.072   4.778  0.3234  0.9864 -0.0066
19598TIP3   OH280284   3.724   6.426   4.352 -0.4030  0.5917  0.1391
19598TIP3    H180285   3.687   6.344   4.383  0.2253  0.1111 -0.3458
19598TIP3    H280286   3.805   6.400   4.306  0.4403  1.5844  1.0138
19599TIP3   OH280287   3.957   6.163  13.391  0.3254  0.0187  0.0890
19599TIP3    H180288   3.873   6.148  13.347 -0.3793  0.4415  1.2387
19599TIP3    H280289   4.011   6.089  13.363  0.0149  0.4099 -1.6742
19600TIP3   OH280290   4.998   1.169   5.806  0.6674 -0.3532 -0.0666
19600TIP3    H180291   5.011   1.257   5.771  1.0285 -0.2554  0.3021
19600TIP3    H280292   4.978   1.183   5.899 -0.0655 -0.6180 -0.1796
19601TIP3   OH280293   4.427   3.907   5.118  1.2871  0.4697 -0.1914
19601TIP3    H180294   4.382   3.992   5.115  1.2780  0.4419 -1.0254
19601TIP3    H280295   4.442   3.892   5.211 -1.5561 -0.1364  0.2722
19602TIP3   OH280296   0.704   3.045   2.216 -0.4636  0.4562 -0.5209
19602TIP3    H180297   0.699   3.123   2.161  1.7134  0.9839 -0.0812
19602TIP3    H280298   0.750   2.980   2.162 -2.3369 -0.6196 -0.9193
19603TIP3   OH280299   3.877   2.090  13.341  0.0193  0.1314  0.0093
19603TIP3    H180300   3.869   2.026  13.412  0.7523  0.0276  0.0057
19603TIP3    H280301   3.803   2.150  13.354  0.7079  0.7073  1.4723
19604TIP3   OH280302   5.860   5.773   1.212 -0.3229  0.2189 -0.3588
19604TIP3    H180303   5.893   5.862   1.229  0.7359 -0.1639 -0.3643
19604TIP3    H280304   5.822   5.746   1.296  0.7458  0.0993  0.1081
19605TIP3   OH280305   2.161   4.351  16.410 -0.1141  0.1517  0.8152
19605TIP3    H180306   2.193   4.312  16.491 -0.4559 -1.7693  0.0754
19605TIP3    H280307   2.069   4.324  16.405  0.2993 -1.1073 -0.9501
19606TIP3   OH280308   4.379   6.174   5.242 -0.0855 -0.1360  0.4381
19606TIP3    H180309   4.392   6.259   5.200  1.3394 -0.7608 -0.4610
19606TIP3    H280310   4.444   6.172   5.313 -1.6897  0.4348  1.9988
19607TIP3   OH280311   3.476   5.167   1.375 -0.0394  0.0341  0.5227
19607TIP3    H180312   3.390   5.125   1.380 -0.4901  0.4448 -2.2449
19607TIP3    H280313   3.538   5.095   1.363 -0.5277 -0.0686 -1.7273
19608TIP3   OH280314   1.548   4.513   5.513  0.4086 -0.3079 -0.1154
19608TIP3    H180315   1.486   4.586   5.509  0.1175 -0.5399  0.1402
19608TIP3    H280316   1.592   4.522   5.597  0.8763 -0.0227 -0.3859
19609TIP3   OH280317   0.281   0.327   3.130  0.3983  0.5900  0.0461
19609TIP3    H180318   0.344   0.278   3.183  1.2326 -2.1138 -3.0996
19609TIP3    H280319   0.198   0.281   3.144  0.3950  0.5271 -0.1833
19610TIP3   OH280320   3.433   6.521   4.385 -0.1775  0.3647  0.4676
19610TIP3    H180321   3.476   6.486   4.463 -2.1145 -0.8649  1.0592
19610TIP3    H280322   3.469   6.470   4.313  0.1145  0.0733  0.8117
19611TIP3   OH280323   1.824   3.484  11.411  0.4117 -0.4014 -0.1553
19611TIP3    H180324   1.788   3.554  11.356  0.7284 -0.2075 -0.1168
19611TIP3    H280325   1.790   3.503  11.498 -0.7081 -1.1356 -0.4125
19612TIP3   OH280326   2.069   3.970   1.244 -0.0503 -0.0073 -0.3837
19612TIP3    H180327   2.007   4.043   1.254 -0.3489 -0.1506 -1.1417
19612TIP3    H280328   2.133   3.984   1.313 -0.4984  0.5825 -0.0746
19613TIP3   OH280329   1.440   2.668   4.232 -0.3142  0.0026 -0.3455
19613TIP3    H180330   1.369   2.715   4.275 -0.0887 -0.6607  0.7631
19613TIP3    H280331   1.399   2.626   4.157 -1.3313 -1.2548  0.8773
19614TIP3   OH280332   5.769   2.923   1.628  0.7292 -0.1450 -0.2523
19614TIP3    H180333   5.689   2.940   1.679 -0.3146 -1.2545 -1.4326
19614TIP3    H280334   5.835   2.981   1.666 -0.6174  0.7558  0.8084
19615TIP3   OH280335   1.305   2.515  14.729 -0.0074 -0.2122 -0.8408
19615TIP3    H180336   1.336   2.603  14.752  0.4864 -1.1023  2.2802
19615TIP3    H280337   1.226   2.531  14.677 -1.1212  2.1679  1.3337
19616TIP3   OH280338   0.627   1.415   4.945 -0.4971 -0.4544 -0.5163
19616TIP3    H180339   0.651   1.378   5.030  2.0881 -0.1836 -1.0396
19616TIP3    H280340   0.668   1.501   4.945 -0.6347 -0.3758 -1.9685
19617TIP3   OH280341   0.028   5.962  17.222  0.1001  0.3183 -0.4195
19617TIP3    H180342   0.008   6.026  17.153  0.9467  0.8462 -0.1838
19617TIP3    H280343   0.091   6.006  17.279 -0.7800 -0.0178  0.8534
19618TIP3   OH280344   2.202   1.084   0.905  0.6798  0.0825 -0.6930
19618TIP3    H180345   2.174   1.171   0.878 -1.1543 -0.2619 -0.0180
19618TIP3    H280346   2.167   1.025   0.839 -2.6308 -0.6128  1.4120
19619TIP3   OH280347   1.652   5.640  15.468 -0.5565  0.1505 -0.0285
19619TIP3    H180348   1.725   5.676  15.518 -0.7836 -1.6838  1.7674
19619TIP3    H280349   1.599   5.716  15.445  0.8395  1.3059  0.4246
19620TIP3   OH280350   4.604   2.446   1.857 -0.2225  0.0623 -0.4039
19620TIP3    H180351   4.560   2.364   1.835 -1.3283  0.0939  1.4946
19620TIP3    H280352   4.535   2.512   1.854  0.0077  0.3948  1.0282
19621TIP3   OH280353   5.816   5.941  14.424  0.2302  0.0307  0.0356
19621TIP3    H180354   5.837   5.925  14.332  1.6658  0.1941  0.3193
19621TIP3    H280355   5.861   6.022  14.445  0.3562 -0.2848  1.0287
19622TIP3   OH280356   6.072   1.066   6.073  0.2209  0.4711  0.2517
19622TIP3    H180357   6.126   1.000   6.116  0.7749 -0.4895 -1.7836
19622TIP3    H280358   6.128   1.143   6.069  0.4808  0.2972  0.4831
19623TIP3   OH280359   6.249   4.256   0.387  0.7053  0.6261  0.1025
19623TIP3    H180360   6.282   4.235   0.300  0.0025 -0.0963  0.0083
19623TIP3    H280361   6.216   4.174   0.422  1.9452  0.6735  1.4946
19624TIP3   OH280362   6.497   1.841  10.899  0.1614 -0.1729  0.0334
19624TIP3    H180363   6.428   1.881  10.845  0.2882  1.3608  0.9385
19624TIP3    H280364   6.476   1.869  10.988  2.2979  0.9105  0.2573
19625TIP3   OH280365   3.342   5.592   5.959  0.8635 -0.0064 -0.3917
19625TIP3    H180366   3.362   5.633   6.044  1.1374 -0.1193 -0.4013
19625TIP3    H280367   3.249   5.610   5.946  0.4748 -1.1546  0.5774
19626TIP3   OH280368   6.185   4.594  15.822  0.1035  0.0090 -0.2926
19626TIP3    H180369   6.172   4.619  15.731 -1.5875  1.1982  0.2170
19626TIP3    H280370   6.279   4.606  15.837  0.0155  2.3640 -1.2029
19627TIP3   OH280371   0.507   3.328  14.420 -0.1150  0.0329  0.0508
19627TIP3    H180372   0.430   3.273  14.402  1.5893 -2.0184 -1.5136
19627TIP3    H280373   0.526   3.370  14.336  1.6216 -1.1046 -0.1668
19628TIP3   OH280374   4.695   0.013  12.893  0.2867 -0.0126 -0.7463
19628TIP3    H180375   4.637  -0.059  12.868  0.6727 -0.6790  0.1945
19628TIP3    H280376   4.713   0.060  12.812  0.8542 -1.5974 -1.5680
19629TIP3   OH280377   3.895   0.187   1.201 -0.1428 -0.0045  0.3014
19629TIP3    H180378   3.882   0.250   1.273 -1.6197 -1.3059  1.2464
19629TIP3    H280379   3.988   0.195   1.179  0.0430  1.4385  1.3857
19630TIP3   OH280380   0.277   0.931   2.594 -0.2236  0.1168 -0.0100
19630TIP3    H180381   0.219   0.925   2.669  1.5272  0.6927  1.4800
19630TIP3    H280382   0.226   0.976   2.527 -1.2155  1.3653  1.5155
19631TIP3   OH280383   5.510   0.324  12.729  0.5013 -0.1854 -0.7199
19631TIP3    H180384   5.550   0.285  12.652 -0.5087 -1.2668 -0.7231
19631TIP3    H280385   5.504   0.252  12.792  1.2837  0.6708  0.3655
19632TIP3   OH280386   2.422   4.947  12.410 -0.1616  0.1989  0.6482
19632TIP3    H180387   2.393   5.028  12.452 -0.8013  0.9087 -1.0458
19632TIP3    H280388   2.340   4.903  12.384  0.1802  0.4595 -1.0008
19633TIP3   OH280389   4.292   4.492  13.537 -0.2638 -0.2102  0.3960
19633TIP3    H180390   4.313   4.511  13.445 -1.2739  2.5740  0.6358
19633TIP3    H280391   4.206   4.451  13.533 -0.4612  0.2194  0.0902
19634TIP3   OH280392   3.554   1.825  11.938 -0.1217  0.2595 -0.0566
19634TIP3    H180393   3.588   1.831  12.027 -0.0557 -0.0944 -0.0573
19634TIP3    H280394   3.616   1.875  11.885  0.3054 -0.2305 -0.0285
19635TIP3   OH280395   4.982   5.881   1.807  0.0209  0.0846  0.1758
19635TIP3    H180396   4.957   5.910   1.719 -0.5779 -0.9113  0.0088
19635TIP3    H280397   4.900   5.856   1.848  0.4173 -0.4255  0.6633
19636TIP3   OH280398   3.005   0.406   3.221 -0.4185  0.1708 -0.7692
19636TIP3    H180399   2.932   0.392   3.162  1.1546  0.8476 -2.9912
19636TIP3    H280400   3.037   0.494   3.200 -0.0012  0.5955  1.3652
19637TIP3   OH280401   2.665   2.299  12.732  0.4692 -0.6386  0.5008
19637TIP3    H180402   2.703   2.293  12.820  1.4791  0.0582  0.1274
19637TIP3    H280403   2.707   2.229  12.682 -0.1983 -1.1175  0.5809
19638TIP3   OH280404   5.589   5.056  11.628  0.5380  0.5651 -0.0983
19638TIP3    H180405   5.632   5.123  11.575  0.9492  0.1095 -0.3476
19638TIP3    H280406   5.521   5.104  11.677  1.4695  1.3407  0.4848
19639TIP3   OH280407   5.788   2.146  12.161 -0.2295 -0.3397 -0.2241
19639TIP3    H180408   5.758   2.056  12.175  1.6133 -0.9957 -0.2542
19639TIP3    H280409   5.709   2.194  12.136 -1.1497 -2.0633 -0.7604
19640TIP3   OH280410   0.666   1.076  11.241  0.2433  0.2441  0.2913
19640TIP3    H180411   0.661   0.983  11.260  1.0977 -0.4485 -2.4639
19640TIP3    H280412   0.732   1.110  11.301  0.4599 -1.0460  0.8079
19641TIP3   OH280413   2.099   0.691  13.637 -0.3173  0.2968  0.1510
19641TIP3    H180414   2.029   0.714  13.698 -0.4696 -0.8932  0.4505
19641TIP3    H280415   2.088   0.752  13.564 -0.8865  0.9352  0.7546
19642TIP3   OH280416   2.660   1.040   5.765 -0.4580  0.4636 -0.3321
19642TIP3    H180417   2.616   1.039   5.850  0.8635 -0.6608  0.3881
19642TIP3    H280418   2.672   1.132   5.745  1.6746  0.8350  2.0889
19643TIP3   OH280419   3.872   1.574   5.005 -0.2509 -0.0458  0.1877
19643TIP3    H180420   3.943   1.552   4.944  0.0686 -2.6708  1.3832
19643TIP3    H280421   3.916   1.591   5.088 -0.8127  1.8946  0.1336
19644TIP3   OH280422   1.450   0.275   3.801  0.4397  0.7208  0.5394
19644TIP3    H180423   1.385   0.261   3.870 -0.7267  0.4341 -0.5917
19644TIP3    H280424   1.527   0.226   3.831  0.0013  0.7084  1.6948
19645TIP3   OH280425   5.158   1.829   2.480 -0.1771 -0.0420 -0.4413
19645TIP3    H180426   5.182   1.749   2.525  1.2228 -0.0362 -1.1123
19645TIP3    H280427   5.102   1.876   2.541  1.2391 -0.2637  1.0860
19646TIP3   OH280428   0.617   3.576  15.905  0.4209 -0.1421  0.4546
19646TIP3    H180429   0.705   3.606  15.929  0.9327 -1.2566  0.0351
19646TIP3    H280430   0.631   3.516  15.833 -0.5643 -1.3771  1.2560
19647TIP3   OH280431   2.027   1.501  14.969 -0.0033  0.1942  0.2952
19647TIP3    H180432   2.091   1.504  14.899 -1.4416  0.5795 -1.0692
19647TIP3    H280433   1.972   1.425  14.948 -0.4276  0.2860  1.0243
19648TIP3   OH280434   1.968   4.911   4.671  0.4835  0.3724  0.7553
19648TIP3    H180435   1.907   4.974   4.708  1.0645  0.8502  0.9173
19648TIP3    H280436   2.055   4.944   4.696  0.8795  0.5510 -0.7773
19649TIP3   OH280437   1.623   4.166  13.691 -0.4612 -0.3773 -0.2788
19649TIP3    H180438   1.630   4.154  13.597 -0.0001  0.5947 -0.3883
19649TIP3    H280439   1.714   4.173  13.721 -0.5984 -0.8783  0.2649
19650TIP3   OH280440   1.508   2.141   2.019 -0.0688 -0.2789 -0.2423
19650TIP3    H180441   1.482   2.052   1.998  0.0006 -0.2542 -0.4368
19650TIP3    H280442   1.548   2.135   2.106 -1.1583 -0.2369  0.2791
19651TIP3   OH280443   5.365   4.596   2.803  0.7070 -0.2866  0.3596
19651TIP3    H180444   5.446   4.629   2.842  1.4147 -0.9451 -0.5043
19651TIP3    H280445   5.389   4.575   2.713 -0.9457  1.4713 -0.5689
19652TIP3   OH280446   6.660   3.281  11.702 -0.3012 -0.1699  0.5784
19652TIP3    H180447   6.656   3.314  11.612  2.0422  0.8009  0.7627
19652TIP3    H280448   6.579   3.314  11.742 -1.4858 -0.7745 -1.1764
19653TIP3   OH280449   1.488   5.503  13.823 -0.5115  0.7552 -0.3564
19653TIP3    H180450   1.477   5.595  13.801 -1.8123  0.6130 -0.4079
19653TIP3    H280451   1.398   5.470  13.834 -0.0330 -0.0746  1.4685
19654TIP3   OH280452   2.002   4.962   1.922  0.1022 -0.4416 -0.0651
19654TIP3    H180453   1.927   4.930   1.873  0.4247 -0.0867 -0.7949
19654TIP3    H280454   1.969   4.972   2.012 -0.3987 -1.3930 -0.1311
19655TIP3   OH280455   0.595   1.606   4.580  0.0931 -0.1384 -0.0948
19655TIP3    H180456   0.539   1.563   4.645 -0.9296 -0.5222 -1.1837
19655TIP3    H280457   0.600   1.543   4.508  1.4263  0.1612 -0.2830
19656TIP3   OH280458   5.380   3.639  15.111 -0.0936 -0.0912 -0.4167
19656TIP3    H180459   5.313   3.662  15.046  0.6215 -0.8870 -1.4537
19656TIP3    H280460   5.374   3.544  15.119 -0.0271 -0.0258  0.5487
19657TIP3   OH280461   3.681   1.974  12.624  0.2083  0.6269  0.3497
19657TIP3    H180462   3.696   1.937  12.537  0.3160 -1.2302  1.1109
19657TIP3    H280463   3.739   1.925  12.682 -1.1926  0.5247  1.7408
19658TIP3   OH280464   6.657   3.052   3.200 -0.2934 -0.7695  0.4903
19658TIP3    H180465   6.692   3.089   3.119  0.4981 -3.0312 -0.3009
19658TIP3    H280466   6.672   3.119   3.266  1.8231  0.0032 -0.6690
19659TIP3   OH280467   4.863   2.748  12.394  0.3903 -0.1500  0.1650
19659TIP3    H180468   4.925   2.676  12.409 -0.2668 -0.6691  0.4664
19659TIP3    H280469   4.918   2.822  12.369  1.0724 -0.8066 -0.3456
19660TIP3   OH280470   4.093   3.526   2.289 -0.4702 -0.7616 -0.0865
19660TIP3    H180471   4.189   3.518   2.288 -0.2752  0.8045  1.2882
19660TIP3    H280472   4.063   3.451   2.340  0.0732 -0.9327 -0.0097
19661TIP3   OH280473   0.285   1.173  12.490 -0.2402 -0.4474  0.7493
19661TIP3    H180474   0.201   1.163  12.446 -0.2248 -2.2497  1.0193
19661TIP3    H280475   0.270   1.238  12.558 -0.4632  1.8407 -1.3501
19662TIP3   OH280476   1.228   3.467   3.078  0.2732 -0.0474 -0.0639
19662TIP3    H180477   1.227   3.372   3.063  0.3239  0.0214 -0.5278
19662TIP3    H280478   1.147   3.484   3.127  0.7636 -0.4642  0.9130
19663TIP3   OH280479   2.994   1.995  14.100 -0.3151  0.1086 -0.4886
19663TIP3    H180480   3.026   2.085  14.096 -0.4128  0.1898  0.3610
19663TIP3    H280481   3.018   1.958  14.015 -0.4705  0.9962 -0.9355
19664TIP3   OH280482   2.226   1.048  12.803 -0.3533  0.6406 -0.1064
19664TIP3    H180483   2.282   1.093  12.740 -0.8060  1.1899 -0.1224
19664TIP3    H280484   2.285   0.989  12.851 -0.2653 -1.1437 -2.2288
19665TIP3   OH280485   6.529   6.447   2.524 -0.0664 -0.0379  0.2294
19665TIP3    H180486   6.524   6.532   2.568 -0.6429 -0.0734  0.2464
19665TIP3    H280487   6.442   6.408   2.537 -0.1205 -0.2191 -0.5905
19666TIP3   OH280488   2.440   5.603   3.920 -0.1099  0.5144 -0.2330
19666TIP3    H180489   2.491   5.529   3.888 -0.9153 -0.1782  0.0395
19666TIP3    H280490   2.492   5.640   3.991 -0.4604 -0.8364  0.7452
19667TIP3   OH280491   3.616   3.548  12.293  0.2523 -0.0309 -0.0808
19667TIP3    H180492   3.658   3.464  12.309  1.0782  0.4752  0.4851
19667TIP3    H280493   3.679   3.613  12.326 -0.8527  0.7577  0.5576
19668TIP3   OH280494   0.168   5.579   4.989 -0.0181  0.3059  0.7271
19668TIP3    H180495   0.194   5.515   4.923  1.3804  1.4026  0.1435
19668TIP3    H280496   0.249   5.628   5.007 -0.5154  0.4401  2.8204
19669TIP3   OH280497   2.784   6.409   0.140 -0.3422 -0.6897 -0.0132
19669TIP3    H180498   2.725   6.356   0.086 -1.0431  2.1974 -2.3202
19669TIP3    H280499   2.730   6.480   0.173  0.7516 -0.8461  2.3339
19670TIP3   OH280500   5.675   1.718  11.885  0.0595  0.0036 -0.0792
19670TIP3    H180501   5.582   1.709  11.861  0.2843 -0.2386 -0.8789
19670TIP3    H280502   5.716   1.638  11.853  0.1434 -1.0486  2.4297
19671TIP3   OH280503   3.359   4.847  16.016 -0.0048  0.2609  0.0118
19671TIP3    H180504   3.354   4.882  16.105 -1.3378 -0.9755  0.4505
19671TIP3    H280505   3.314   4.913  15.962 -0.3235  0.4118  0.4539
19672TIP3   OH280506   1.540   5.075  14.133 -0.1696 -0.2631  0.3495
19672TIP3    H180507   1.574   5.152  14.088 -1.7339  0.5053  0.4324
19672TIP3    H280508   1.559   5.003  14.073  0.7912  0.2476  0.0097
19673TIP3   OH280509   4.251   5.602   2.487 -0.1787  0.2138  0.7909
19673TIP3    H180510   4.160   5.627   2.470  0.4557  1.9774 -0.2943
19673TIP3    H280511   4.281   5.564   2.404  0.5071  1.0795  0.6306
19674TIP3   OH280512   4.689   0.853   3.924  0.3167  0.3647  0.0443
19674TIP3    H180513   4.704   0.841   4.018  0.5155  0.0834 -0.0217
19674TIP3    H280514   4.734   0.779   3.883 -0.4205  0.0547 -0.2253
19675TIP3   OH280515   4.603   6.030   1.667  0.0703 -0.7213  0.1707
19675TIP3    H180516   4.545   6.067   1.600  0.8449 -0.0460 -0.1519
19675TIP3    H280517   4.586   6.084   1.745 -0.1794 -0.9227  0.2558
19676TIP3   OH280518   4.991   5.474  10.699  0.1067  0.2322  0.0399
19676TIP3    H180519   4.934   5.471  10.776 -1.2616  0.1754 -0.9495
19676TIP3    H280520   5.037   5.558  10.707 -0.4186  0.4744  0.6406
19677TIP3   OH280521   3.344   1.924   6.143 -0.2700 -0.0979  0.0778
19677TIP3    H180522   3.295   1.859   6.194  0.7681 -0.9225  0.0489
19677TIP3    H280523   3.435   1.908   6.166  0.1457  0.0540 -1.4187
19678TIP3   OH280524   5.392   3.209  13.455  0.1663 -0.0266  0.2122
19678TIP3    H180525   5.321   3.156  13.419  0.0402 -0.3832  0.9649
19678TIP3    H280526   5.470   3.154  13.446 -0.1961 -0.9760  2.2991
19679TIP3   OH280527   2.898   4.120   0.602  0.3129  0.1286 -0.6332
19679TIP3    H180528   2.923   4.104   0.693 -0.9758  1.0150 -0.0930
19679TIP3    H280529   2.944   4.201   0.579 -1.9041  1.7832  0.3750
19680TIP3   OH280530   1.774   6.657   3.557 -0.0604  0.0617  0.3540
19680TIP3    H180531   1.812   6.743   3.540  1.4039 -0.5840  0.2260
19680TIP3    H280532   1.847   6.603   3.585 -1.1332 -0.8823  1.4759
19681TIP3   OH280533   4.201   0.716   1.754  0.0282 -0.4100  0.0675
19681TIP3    H180534   4.113   0.721   1.791  0.0397  1.7171 -0.1057
19681TIP3    H280535   4.191   0.666   1.673 -1.0522 -0.0388 -0.0389
19682TIP3   OH280536   5.324   0.422   5.085  0.1050  0.4738 -0.3181
19682TIP3    H180537   5.394   0.487   5.092  0.0304  0.6529 -1.1645
19682TIP3    H280538   5.356   0.346   5.133  0.4321  0.9337  0.1937
19683TIP3   OH280539   6.496   4.144   5.302 -0.3527 -0.4195 -0.0947
19683TIP3    H180540   6.529   4.222   5.346 -3.5723 -0.0622  2.0411
19683TIP3    H280541   6.463   4.176   5.218  0.3454  0.0531 -0.2011
19684TIP3   OH280542   5.394   1.470  14.305  0.3368  0.2936  0.7759
19684TIP3    H180543   5.300   1.472  14.292  0.3320  0.6963  0.8663
19684TIP3    H280544   5.407   1.484  14.398  0.3549 -3.1012  1.3971
19685TIP3   OH280545   1.294   2.260  12.381  0.0116 -0.4703 -0.4479
19685TIP3    H180546   1.240   2.232  12.455  0.1607  0.4191  0.0196
19685TIP3    H280547   1.383   2.257  12.415 -0.0732  2.6657  0.4352
19686TIP3   OH280548   6.761   1.851   0.114  0.5930  0.6188  0.1867
19686TIP3    H180549   6.778   1.770   0.163 -1.2439 -0.5650 -1.0032
19686TIP3    H280550   6.800   1.920   0.168  0.2193 -0.8018  2.4183
19687TIP3   OH280551   3.243   2.128   6.603 -0.3705 -0.9348  0.5892
19687TIP3    H180552   3.217   2.038   6.586 -3.0791  0.1789 -2.3318
19687TIP3    H280553   3.161   2.175   6.615  0.7785  1.4856 -0.2697
19688TIP3   OH280554   6.265   3.089  11.555  0.0770  0.5436 -0.0282
19688TIP3    H180555   6.356   3.061  11.569 -0.2850 -1.5749 -1.4221
19688TIP3    H280556   6.259   3.107  11.462 -1.2376 -0.7612 -0.2405
19689TIP3   OH280557   0.927   2.265  17.247  0.2049 -0.5082  0.9795
19689TIP3    H180558   0.850   2.279  17.191  0.2966  0.6562  1.1223
19689TIP3    H280559   0.919   2.330  17.316  0.7255 -1.1471  1.6550
19690TIP3   OH280560   5.471   5.531   2.000  0.0152  0.3802  0.5423
19690TIP3    H180561   5.425   5.450   1.977  1.0599 -0.0445 -0.1766
19690TIP3    H280562   5.504   5.564   1.916  2.9998 -0.6182  1.2014
19691TIP3   OH280563   6.313   3.739   0.877 -0.7080 -0.0378  0.4126
19691TIP3    H180564   6.238   3.724   0.935 -0.1282  1.3603  1.5694
19691TIP3    H280565   6.278   3.722   0.789 -1.8995 -1.1150  1.0465
19692TIP3   OH280566   0.982   4.877   2.778 -0.2304  0.1437  0.4730
19692TIP3    H180567   1.057   4.882   2.837  0.9019  0.8296 -0.9535
19692TIP3    H280568   0.990   4.955   2.723  0.2431 -1.7002 -2.2783
19693TIP3   OH280569   2.193   3.044  16.503 -0.0791 -0.0021  0.1284
19693TIP3    H180570   2.271   3.100  16.500  0.7648 -1.0781  1.1800
19693TIP3    H280571   2.120   3.104  16.488  0.9068  1.1133 -0.3649
19694TIP3   OH280572   0.768   6.169   5.677 -0.0478  0.2112 -0.5273
19694TIP3    H180573   0.838   6.232   5.662  1.4995 -1.7002 -1.7934
19694TIP3    H280574   0.812   6.094   5.718 -1.9323  0.1056  1.4936
19695TIP3   OH280575   0.762   5.335  17.061  0.4691 -0.3705 -0.2720
19695TIP3    H180576   0.759   5.422  17.101 -1.5366 -0.1342 -0.8055
19695TIP3    H280577   0.853   5.323  17.035  0.8422  1.4410  0.0765
19696TIP3   OH280578   5.186   4.902   4.428  0.3442  0.3648 -0.2242
19696TIP3    H180579   5.213   4.810   4.429 -3.2701 -0.9117 -1.3838
19696TIP3    H280580   5.265   4.951   4.448  2.3193 -3.0070  1.0522
19697TIP3   OH280581   4.548   4.647  11.585 -0.8471 -0.2283 -0.4801
19697TIP3    H180582   4.625   4.703  11.583 -1.3367  0.4335 -1.1839
19697TIP3    H280583   4.580   4.563  11.618 -0.4280  0.9148  2.2929
19698TIP3   OH280584   4.732   5.684  17.081 -0.0557 -0.2377  0.3195
19698TIP3    H180585   4.638   5.698  17.072  0.1490 -0.0986 -2.9347
19698TIP3    H280586   4.771   5.751  17.026  1.9008 -0.9483  0.7650
19699TIP3   OH280587   0.680   0.180   3.476  0.1722 -0.0371  0.2700
19699TIP3    H180588   0.701   0.109   3.417 -0.3514  1.2765 -1.5876
19699TIP3    H280589   0.746   0.247   3.459 -1.9955  1.8165 -1.5347
19700TIP3   OH280590   0.084   0.183   5.921  0.4517  0.2663  0.0986
19700TIP3    H180591   0.100   0.227   6.004  1.1241  1.9118 -0.8548
19700TIP3    H280592   0.109   0.247   5.854 -4.4133  0.8883 -1.5604
19701TIP3   OH280593   0.662   3.594  15.314 -0.0716 -0.3380  0.3973
19701TIP3    H180594   0.716   3.561  15.385 -1.8742 -1.3333  1.3962
19701TIP3    H280595   0.646   3.517  15.259  0.6445  0.2506 -0.6666
19702TIP3   OH280596   3.044   3.756   0.682 -0.1547 -0.1945  0.2828
19702TIP3    H180597   3.064   3.815   0.609  0.7852 -1.6530 -0.6947
19702TIP3    H280598   3.117   3.766   0.742  0.5293 -1.0680 -0.3742
19703TIP3   OH280599   1.105   6.190   2.421 -0.6508 -0.1069  0.5457
19703TIP3    H180600   1.157   6.171   2.343 -0.9253  1.6412 -0.1033
19703TIP3    H280601   1.109   6.109   2.472  2.0583 -0.3082  0.1655
19704TIP3   OH280602   0.910   4.853  15.599  0.1413 -0.3455 -0.1705
19704TIP3    H180603   0.907   4.812  15.685  0.7502 -1.0691 -0.4827
19704TIP3    H280604   0.992   4.902  15.598 -1.0992  1.9418  0.6338
19705TIP3   OH280605   5.661   4.458   1.290  0.1612  0.1919 -0.1473
19705TIP3    H180606   5.612   4.480   1.370 -0.0174 -0.1770 -0.1501
19705TIP3    H280607   5.607   4.491   1.219 -0.2159 -0.4364 -0.1623
19706TIP3   OH280608   5.484   0.813   6.499  0.2129 -0.2547  0.0977
19706TIP3    H180609   5.502   0.752   6.571  1.1179  1.0694  1.0597
19706TIP3    H280610   5.392   0.835   6.509  0.1254 -0.7169  0.3487
19707TIP3   OH280611   2.926   0.695   3.850 -0.2487 -0.3695  0.0214
19707TIP3    H180612   2.853   0.649   3.809 -1.1751  0.5417  0.6020
19707TIP3    H280613   3.003   0.648   3.820 -1.1153 -1.9425  0.1205
19708TIP3   OH280614   2.746   5.827   2.566  0.0390 -0.8308 -0.0783
19708TIP3    H180615   2.813   5.883   2.528 -1.7686  2.4402  1.1307
19708TIP3    H280616   2.786   5.793   2.646 -0.0480  2.2773  1.4293
19709TIP3   OH280617   5.307   5.925   3.282  0.1248 -0.4993 -0.3093
19709TIP3    H180618   5.376   5.975   3.237 -0.4761 -0.4282 -1.1899
19709TIP3    H280619   5.244   5.992   3.310 -0.7922 -0.7497 -1.6838
19710TIP3   OH280620   6.567   3.152   4.207 -0.3719 -0.0986  0.0032
19710TIP3    H180621   6.630   3.084   4.228  1.1666  0.6606 -1.8036
19710TIP3    H280622   6.607   3.233   4.241 -1.4321  0.1337  0.7550
19711TIP3   OH280623   3.994   5.009  13.214 -0.0952  0.1491 -0.4127
19711TIP3    H180624   3.996   5.063  13.293 -2.5286 -0.5433  0.2144
19711TIP3    H280625   4.082   4.971  13.208  0.7154  1.7407  0.8467
19712TIP3   OH280626   0.457   0.780   5.531  0.1059 -0.1102  0.1192
19712TIP3    H180627   0.398   0.838   5.579  0.2860 -1.4171  2.0284
19712TIP3    H280628   0.525   0.757   5.593  0.4042 -1.8137 -0.7621
19713TIP3   OH280629   5.044   0.785   4.565  0.4157  0.0731 -0.2703
19713TIP3    H180630   5.096   0.828   4.497  0.5174 -0.2740 -0.4168
19713TIP3    H280631   5.103   0.719   4.602  1.1463  1.7063  1.7032
19714TIP3   OH280632   3.202   4.213  12.796 -0.0327  0.2064 -0.5594
19714TIP3    H180633   3.187   4.245  12.885 -0.5823 -1.0080 -0.1964
19714TIP3    H280634   3.256   4.135  12.808  2.3493  1.5767 -1.5042
19715TIP3   OH280635   5.916   3.054   3.699  0.1614  0.1819 -0.5160
19715TIP3    H180636   5.949   3.133   3.657 -0.8516  0.5699 -0.6014
19715TIP3    H280637   5.876   3.004   3.628 -0.0245  0.0243 -0.3014
19716TIP3   OH280638   1.549   2.892   0.927  0.1648  0.2876  0.2968
19716TIP3    H180639   1.503   2.828   0.873  0.7371 -0.5857  0.8077
19716TIP3    H280640   1.622   2.843   0.965  0.0541  0.9851  1.4814
19717TIP3   OH280641   0.874   5.791  15.442 -1.0400 -0.3354 -0.5185
19717TIP3    H180642   0.905   5.731  15.510  0.9464  0.2025 -0.8678
19717TIP3    H280643   0.790   5.755  15.414 -0.7079 -1.9733  0.4580
19718TIP3   OH280644   3.250   5.310  16.412  0.4988 -0.7569  0.0940
19718TIP3    H180645   3.237   5.402  16.433 -3.3552 -1.2875  0.7868
19718TIP3    H280646   3.253   5.308  16.316  0.1665  0.0636  0.0576
19719TIP3   OH280647   3.071   1.168   2.182 -0.2576  0.4176 -0.4882
19719TIP3    H180648   3.053   1.185   2.274  2.8791 -1.1016  0.5365
19719TIP3    H280649   3.151   1.219   2.163  0.1256 -0.6205 -1.8618
19720TIP3   OH280650   3.603   5.182  10.641 -0.7149 -0.9160 -0.4902
19720TIP3    H180651   3.674   5.131  10.602  0.4600 -1.1161  1.7582
19720TIP3    H280652   3.592   5.256  10.581  3.2473  0.5744  0.2909
19721TIP3   OH280653   1.393   3.030   4.210 -0.0427  0.2853 -0.1846
19721TIP3    H180654   1.301   3.054   4.215 -0.4693 -1.1536 -0.7807
19721TIP3    H280655   1.405   2.963   4.277  0.4485  0.0835 -0.4648
19722TIP3   OH280656   6.471   6.142   4.116  0.4588  0.1916 -0.1855
19722TIP3    H180657   6.467   6.069   4.055 -0.7872  0.1709 -0.1094
19722TIP3    H280658   6.405   6.204   4.084 -0.3214  0.1242  1.1899
19723TIP3   OH280659   1.710   6.090   2.434  0.2179  0.6858  0.1897
19723TIP3    H180660   1.689   6.098   2.341 -1.8597 -1.2956  0.3915
19723TIP3    H280661   1.765   6.011   2.439  2.3534  2.0971  0.4575
19724TIP3   OH280662   4.954   3.711  16.313 -0.5274 -0.3232 -0.2120
19724TIP3    H180663   4.911   3.637  16.357  2.0195 -1.7273  0.0755
19724TIP3    H280664   4.881   3.764  16.281 -2.4771 -2.0133  1.0949
19725TIP3   OH280665   4.883   2.131  15.966  0.0090 -0.0341  0.4018
19725TIP3    H180666   4.802   2.080  15.960  0.3577 -0.7422  1.4874
19725TIP3    H280667   4.940   2.093  15.899 -0.9904  1.3402 -1.2948
19726TIP3   OH280668   0.818   3.930   1.848  0.3109  0.4064  0.1063
19726TIP3    H180669   0.795   4.007   1.797 -0.0991  0.3618  0.2182
19726TIP3    H280670   0.734   3.889   1.869  0.5199 -0.0322  0.1068
19727TIP3   OH280671   3.576   0.538  17.138 -0.1326 -0.4518 -0.7567
19727TIP3    H180672   3.488   0.575  17.146  0.3582  0.5572  0.2805
19727TIP3    H280673   3.567   0.448  17.171 -0.8147 -0.4276 -0.8595
19728TIP3   OH280674   1.500   2.454   2.493  0.6120 -0.2130  0.1273
19728TIP3    H180675   1.572   2.511   2.521  0.8007 -0.2483 -0.2773
19728TIP3    H280676   1.468   2.413   2.573  0.4435  0.5005  0.4327
19729TIP3   OH280677   5.730   4.677   3.136  0.3176  0.3031 -0.4817
19729TIP3    H180678   5.742   4.754   3.192  1.5443  1.0491 -1.7043
19729TIP3    H280679   5.648   4.694   3.090  0.2671  0.6021 -0.2846
19730TIP3   OH280680   0.634   3.332  16.350  0.4624 -0.6608  0.3905
19730TIP3    H180681   0.711   3.309  16.401  2.0392 -0.0153 -1.5825
19730TIP3    H280682   0.665   3.395  16.285 -1.0546 -2.5232 -2.3672
19731TIP3   OH280683   0.888   0.370  16.597 -0.2234  0.7517 -0.1910
19731TIP3    H180684   0.866   0.311  16.669 -1.0501  0.8296 -0.3763
19731TIP3    H280685   0.984   0.379  16.602 -0.0401 -0.8366 -0.3469
19732TIP3   OH280686   6.379   4.460   4.897 -0.0898  0.6939 -0.0554
19732TIP3    H180687   6.443   4.506   4.841  1.8577 -2.2557 -0.4957
19732TIP3    H280688   6.310   4.433   4.836  0.3763  0.2865 -0.4104
19733TIP3   OH280689   0.675   4.983  16.572  0.4719  0.1255  0.6445
19733TIP3    H180690   0.677   5.044  16.498  0.3591  0.4628  0.9167
19733TIP3    H280691   0.635   5.032  16.643 -2.3393 -1.1816  0.0777
19734TIP3   OH280692   1.269   0.121  15.070  0.0822  0.4405 -0.0105
19734TIP3    H180693   1.285   0.107  14.976 -0.9462  1.9671 -0.4505
19734TIP3    H280694   1.206   0.053  15.094  1.2341 -0.7081 -0.1110
19735TIP3   OH280695   0.570   3.570   4.754  0.0670 -0.0001  0.5597
19735TIP3    H180696   0.578   3.481   4.721  0.5802 -0.5455  2.0953
19735TIP3    H280697   0.477   3.592   4.743  0.2256 -0.0979 -1.2956
19736TIP3   OH280698   2.839   6.346   1.394  0.3456  0.3631  0.4259
19736TIP3    H180699   2.889   6.419   1.356  0.3852  2.3024  3.7774
19736TIP3    H280700   2.748   6.365   1.371  0.5464  0.3529 -0.3897
19737TIP3   OH280701   0.376   5.968   6.675  0.6030  0.0743 -0.5291
19737TIP3    H180702   0.403   5.966   6.767  2.5977  0.0829 -1.0688
19737TIP3    H280703   0.281   5.980   6.679  0.5969 -0.1703  1.5225
19738TIP3   OH280704   1.876   3.454   1.179 -0.5856  0.7391  0.4924
19738TIP3    H180705   1.942   3.454   1.249 -1.0518 -2.3097  1.0383
19738TIP3    H280706   1.921   3.495   1.105  1.0391  1.0547  1.5909
19739TIP3   OH280707   2.111   0.953  17.278 -0.8543  0.3266 -0.0146
19739TIP3    H180708   2.074   1.041  17.271 -1.6401  0.4978  3.9337
19739TIP3    H280709   2.204   0.966  17.294 -0.9612  0.4735  0.5121
19740TIP3   OH280710   3.169   2.090   4.815  0.6860 -0.2211 -0.0193
19740TIP3    H180711   3.123   2.023   4.865  1.3046 -2.4996 -2.3141
19740TIP3    H280712   3.146   2.072   4.724 -0.0651  3.4706 -0.7234
19741TIP3   OH280713   3.921   3.326   2.209 -0.3830  0.4048 -0.0744
19741TIP3    H180714   3.972   3.274   2.146 -1.8983  1.2302 -2.0886
19741TIP3    H280715   3.920   3.414   2.171 -0.8686  1.0653  1.4315
19742TIP3   OH280716   4.734   4.943   4.896  0.2874  0.5670  0.0696
19742TIP3    H180717   4.806   4.918   4.953 -1.2454 -0.0335  1.8182
19742TIP3    H280718   4.670   4.873   4.905  0.2461  0.0855 -2.9699
19743TIP3   OH280719   5.132   5.700  11.505  0.0229  0.0924  0.3806
19743TIP3    H180720   5.195   5.765  11.474 -0.9905  0.1772 -1.6481
19743TIP3    H280721   5.047   5.730  11.471 -0.8458 -0.9722  1.5182
19744TIP3   OH280722   5.643   0.084   2.764 -0.6230  0.1972  0.4014
19744TIP3    H180723   5.588   0.145   2.815 -0.8585 -0.2186  0.6518
19744TIP3    H280724   5.726   0.130   2.753 -1.7302  1.8270 -1.9721
19745TIP3   OH280725   3.293   1.360   5.990  0.5997  0.3898 -0.4367
19745TIP3    H180726   3.280   1.359   5.895 -1.1163  1.3979 -0.2564
19745TIP3    H280727   3.220   1.309   6.025  1.5304 -0.4517  0.3255
19746TIP3   OH280728   5.982   0.468  15.882  0.2060  0.0489  0.1666
19746TIP3    H180729   6.020   0.381  15.877 -0.3182 -0.2796  1.5083
19746TIP3    H280730   5.941   0.481  15.797 -0.2198 -1.2526  0.1539
19747TIP3   OH280731   5.291   5.636   4.204 -0.0485 -0.5719  0.7820
19747TIP3    H180732   5.230   5.696   4.161  0.1143 -0.9899 -0.0492
19747TIP3    H280733   5.273   5.647   4.298 -1.7138 -1.0028  0.5485
19748TIP3   OH280734   2.638   3.993   4.774  0.1709 -0.7408 -0.2395
19748TIP3    H180735   2.594   4.015   4.692  0.1817  0.4078  0.0375
19748TIP3    H280736   2.568   3.983   4.837  0.2318  2.3574  0.5023
19749TIP3   OH280737   3.261   5.944  16.287  0.2817 -0.5494 -0.2830
19749TIP3    H180738   3.203   5.888  16.235 -1.1891  0.5598  0.0810
19749TIP3    H280739   3.239   5.924  16.377  0.4270 -0.0677 -0.1388
19750TIP3   OH280740   4.171   6.790   4.796 -0.0677 -0.4002  0.0665
19750TIP3    H180741   4.138   6.776   4.885 -1.0874 -2.1291 -0.5462
19750TIP3    H280742   4.116   6.734   4.741 -1.0888  2.3818 -2.0054
19751TIP3   OH280743   3.906   6.322   5.119  0.6757  0.0823  0.0001
19751TIP3    H180744   3.921   6.369   5.201  0.1301 -0.8452  0.6460
19751TIP3    H280745   3.865   6.386   5.061 -1.7714 -0.0554  1.4821
19752TIP3   OH280746   3.802   0.318  14.928  0.3271  0.1725 -0.0283
19752TIP3    H180747   3.783   0.360  14.844 -0.4832 -2.1190 -1.0657
19752TIP3    H280748   3.850   0.239  14.905  0.3758 -0.3421  1.7136
19753TIP3   OH280749   1.808   1.472  12.047  0.4989 -0.6050  0.9778
19753TIP3    H180750   1.875   1.446  12.109  0.1738 -0.6804  1.3028
19753TIP3    H280751   1.845   1.547  12.000  1.7545 -2.0730 -0.4854
19754TIP3   OH280752   2.790   3.756  12.306 -0.4797 -0.1433  0.2394
19754TIP3    H180753   2.824   3.805  12.380  1.0437 -0.5059 -0.1867
19754TIP3    H280754   2.856   3.766  12.238 -2.0419  0.5632 -1.2593
19755TIP3   OH280755   6.412   1.601   2.769 -0.1367 -0.0663 -0.4723
19755TIP3    H180756   6.438   1.610   2.861 -1.7439 -0.3615  0.0407
19755TIP3    H280757   6.342   1.537   2.770 -0.7490  0.5444 -1.8062
19756TIP3   OH280758   0.407   0.551  16.662  0.1085  0.1542  0.1511
19756TIP3    H180759   0.471   0.508  16.605  1.5513  0.2109  1.6815
19756TIP3    H280760   0.327   0.555  16.609  1.2527 -0.2385 -1.6774
19757TIP3   OH280761   6.008   1.994  12.995  0.0118  0.1613 -0.4376
19757TIP3    H180762   6.068   2.014  13.067  1.3905 -0.6930 -1.2987
19757TIP3    H280763   5.928   1.962  13.038  0.2818  1.0147  0.7324
19758TIP3   OH280764   0.841   6.162   3.138  0.4312  0.0365 -0.1648
19758TIP3    H180765   0.893   6.238   3.113  0.3597 -0.0260 -0.5153
19758TIP3    H280766   0.889   6.087   3.103 -0.5700  0.0648 -1.7374
19759TIP3   OH280767   6.763   3.387   1.237  0.3734 -0.0450 -0.3961
19759TIP3    H180768   6.725   3.416   1.154 -0.5093 -0.0117  0.0164
19759TIP3    H280769   6.688   3.370   1.294  0.9684 -0.0519  0.4065
19760TIP3   OH280770   3.981   6.757  16.814  0.2032 -0.0822 -0.1028
19760TIP3    H180771   4.047   6.720  16.755 -1.2414 -0.2404 -1.7305
19760TIP3    H280772   3.936   6.681  16.850  0.3629  0.0379  0.3567
19761TIP3   OH280773   3.277   0.611   2.494  0.2099  0.0049  0.3822
19761TIP3    H180774   3.349   0.673   2.510  0.2168  0.1559 -0.1780
19761TIP3    H280775   3.301   0.568   2.412 -0.4574  0.2342  0.0582
19762TIP3   OH280776   5.323   0.190   1.847  0.1629 -0.6303 -0.1700
19762TIP3    H180777   5.287   0.278   1.851 -1.1273 -1.0975 -0.9639
19762TIP3    H280778   5.403   0.198   1.794 -0.8426 -0.1996 -1.6720
19763TIP3   OH280779   6.558   0.543   5.193  0.2027  0.5791 -0.3993
19763TIP3    H180780   6.560   0.450   5.216  1.1118  0.6936  0.0381
19763TIP3    H280781   6.647   0.562   5.164  0.7785  1.9280  2.0479
19764TIP3   OH280782   5.516   5.278  12.563  0.5473  0.5335  0.5771
19764TIP3    H180783   5.603   5.307  12.535  0.9497  1.8436  2.8872
19764TIP3    H280784   5.513   5.185  12.541  2.0069  0.7685 -0.7603
19765TIP3   OH280785   2.985   6.554  16.290  0.4606 -0.3761  0.0267
19765TIP3    H180786   2.940   6.636  16.270  3.3345  0.8487 -1.9750
19765TIP3    H280787   3.010   6.563  16.382  0.4876  0.8968 -0.0788
19766TIP3   OH280788   4.457   1.962  12.635  0.1005  0.0009  0.4764
19766TIP3    H180789   4.540   1.990  12.595  0.1932 -2.2621 -1.1646
19766TIP3    H280790   4.396   2.033  12.617  0.2722 -0.6115 -3.5424
19767TIP3   OH280791   2.260   3.406  15.678 -0.1890  0.1532 -0.3239
19767TIP3    H180792   2.230   3.442  15.595 -1.3120  0.6131  0.2557
19767TIP3    H280793   2.231   3.314  15.676  0.9650 -0.2179 -0.9821
19768TIP3   OH280794   0.992   4.582   3.043 -1.0068 -0.3741  0.1490
19768TIP3    H180795   0.975   4.587   2.949 -2.3961 -1.3880  0.3199
19768TIP3    H280796   1.087   4.580   3.049 -0.8782  0.1555 -1.2041
19769TIP3   OH280797   5.014   2.462  16.386  0.1130 -0.0757 -0.2586
19769TIP3    H180798   5.017   2.498  16.297  0.6752 -1.4403 -0.8176
19769TIP3    H280799   5.104   2.432  16.402  0.0102  0.1603  0.7756
19770TIP3   OH280800   4.840   2.918  13.120  0.2480 -0.1061 -0.3910
19770TIP3    H180801   4.774   2.981  13.090 -1.0719 -1.5458 -0.6560
19770TIP3    H280802   4.834   2.922  13.216  0.3715  0.3540 -0.3976
19771TIP3   OH280803   5.378   5.573  17.271 -0.1629  0.3058 -0.0526
19771TIP3    H180804   5.370   5.517  17.194 -1.0068 -1.3439  1.1922
19771TIP3    H280805   5.373   5.514  17.346  1.9455  1.6933  1.3172
19772TIP3   OH280806   1.219   1.593   4.448  0.4017 -0.1271  0.0444
19772TIP3    H180807   1.301   1.560   4.411  0.3727 -2.9401  2.1377
19772TIP3    H280808   1.244   1.625   4.535 -0.2426  2.0366 -0.5175
19773TIP3   OH280809   2.429   2.935  15.255  0.1790  0.1192 -0.1760
19773TIP3    H180810   2.480   3.015  15.259  2.3370 -1.1397 -0.7937
19773TIP3    H280811   2.422   2.916  15.161  1.0542 -1.2063  0.0079
19774TIP3   OH280812   0.665   0.685  15.408  0.1356  0.3459 -0.0979
19774TIP3    H180813   0.662   0.592  15.385 -0.2484  0.6292 -1.2681
19774TIP3    H280814   0.595   0.697  15.472  0.3894 -0.2188  0.2995
19775TIP3   OH280815   1.867   0.128   4.122 -0.3473 -0.3334  0.0754
19775TIP3    H180816   1.856   0.080   4.204  0.9050 -0.7145  0.0482
19775TIP3    H280817   1.907   0.211   4.149  0.2153 -0.5252 -0.1537
19776TIP3   OH280818   2.738   2.758  10.751 -0.1119  0.4755  0.0358
19776TIP3    H180819   2.820   2.767  10.801  0.3170  0.0181 -0.5741
19776TIP3    H280820   2.708   2.848  10.739  1.5207  0.8399 -1.7083
19777TIP3   OH280821   4.151   0.313  10.397  0.1013 -0.3947 -0.3898
19777TIP3    H180822   4.231   0.356  10.426 -0.9537  1.1690  0.3405
19777TIP3    H280823   4.179   0.225  10.371  1.5831 -1.0772  2.9473
19778TIP3   OH280824   3.270   0.315   2.566 -0.8248 -0.5755  0.0542
19778TIP3    H180825   3.325   0.290   2.641  0.1268 -2.7138 -1.2789
19778TIP3    H280826   3.284   0.410   2.557  2.4621 -0.9493 -0.0091
19779TIP3   OH280827   4.494   3.723  13.155  0.4824 -0.4527 -0.4072
19779TIP3    H180828   4.549   3.728  13.233  2.4705 -3.2816 -1.5087
19779TIP3    H280829   4.428   3.657  13.177 -1.0436  1.0852 -0.0502
19780TIP3   OH280830   3.832   5.655  13.435 -0.2260 -0.1986  0.0039
19780TIP3    H180831   3.874   5.678  13.352 -0.6969  0.1573 -0.1454
19780TIP3    H280832   3.884   5.583  13.470  1.7826  1.5728  0.8588
19781TIP3   OH280833   0.110   4.943  16.428  0.2253  0.2594 -1.0037
19781TIP3    H180834   0.023   4.973  16.402  0.0746  1.6123  0.8796
19781TIP3    H280835   0.096   4.904  16.515  1.3305 -0.4875 -1.1481
19782TIP3   OH280836   4.734   0.242   5.135  0.1303  0.0523  0.3785
19782TIP3    H180837   4.702   0.225   5.046  0.2827  0.4113  0.2546
19782TIP3    H280838   4.798   0.173   5.151 -1.9758 -1.8124  1.3133
19783TIP3   OH280839   5.203   0.075  10.854  0.3452  0.1394  0.1670
19783TIP3    H180840   5.123   0.098  10.807  0.0069 -0.3208  0.5032
19783TIP3    H280841   5.257   0.153  10.850 -1.4865  1.7085  2.8647
19784TIP3   OH280842   6.402   0.283  12.841  0.0316  0.1183 -0.4424
19784TIP3    H180843   6.472   0.272  12.778  0.5080 -1.6155  0.3164
19784TIP3    H280844   6.324   0.299  12.788  0.1693 -2.5226 -1.6256
19785TIP3   OH280845   4.571   2.912  15.931 -0.2678 -0.2233 -0.2733
19785TIP3    H180846   4.517   2.840  15.961 -1.8024  0.7076 -0.6875
19785TIP3    H280847   4.526   2.946  15.854 -0.3943  2.0620  0.7130
19786TIP3   OH280848   5.328   6.568  15.283  0.3871 -0.3077  0.5417
19786TIP3    H180849   5.357   6.545  15.195  0.3035 -0.6805  0.6109
19786TIP3    H280850   5.409   6.585  15.331  0.3898  1.4456 -0.0143
19787TIP3   OH280851   2.752   3.877  13.279  0.4873  0.3623  0.1811
19787TIP3    H180852   2.657   3.870  13.280  0.5431 -1.0718 -0.6323
19787TIP3    H280853   2.782   3.810  13.341  0.9665  1.0054  0.6544
19788TIP3   OH280854   5.506   0.072   6.211 -0.3321 -0.3756 -1.2451
19788TIP3    H180855   5.570   0.142   6.198  2.3146 -2.3270  0.2519
19788TIP3    H280856   5.441   0.110   6.270  1.1741  0.8014 -0.2723
19789TIP3   OH280857   1.621   5.419  14.584 -0.1956  0.2590 -0.0179
19789TIP3    H180858   1.693   5.446  14.526 -1.2234 -0.8473 -1.9465
19789TIP3    H280859   1.589   5.500  14.622  1.5442  0.8568  0.2600
19790TIP3   OH280860   3.534   3.153   3.595  1.0457  0.2359  0.4903
19790TIP3    H180861   3.541   3.241   3.632  1.3635 -0.2119  1.5256
19790TIP3    H280862   3.584   3.098   3.655 -1.6557 -1.1844  1.5976
19791TIP3   OH280863   0.123   4.266   3.529  0.3041  0.5590 -0.2704
19791TIP3    H180864   0.188   4.332   3.555 -0.4045  1.2316 -0.1629
19791TIP3    H280865   0.040   4.313   3.530 -0.3447 -0.5652  0.6643
19792TIP3   OH280866   4.231   2.166  11.952  0.3099  0.1489 -0.1686
19792TIP3    H180867   4.227   2.086  11.900 -1.1169 -0.3761  0.7016
19792TIP3    H280868   4.139   2.189  11.968  0.6748  2.0158 -0.4701
19793TIP3   OH280869   2.868   4.979  10.409 -0.1163  0.2915 -0.3547
19793TIP3    H180870   2.949   5.004  10.364  0.1408 -0.0415 -0.0772
19793TIP3    H280871   2.877   4.886  10.426 -0.2503  0.3890  0.2985
19794TIP3   OH280872   5.012   6.268   0.304 -0.4249  0.0514 -0.0383
19794TIP3    H180873   4.932   6.314   0.330 -0.9580 -2.2163  2.9765
19794TIP3    H280874   4.981   6.200   0.244 -0.3040  0.8172 -0.9908
19795TIP3   OH280875   4.662   3.268   4.539  0.0821 -0.0315  0.2066
19795TIP3    H180876   4.644   3.347   4.489  1.6284  0.5839  0.5477
19795TIP3    H280877   4.675   3.200   4.473  0.9525  0.5115 -0.2037
19796TIP3   OH280878   1.752   1.937  13.007  0.2807  0.3908  0.1130
19796TIP3    H180879   1.697   2.015  13.015  0.2923  0.3873  0.2430
19796TIP3    H280880   1.840   1.971  12.990  0.2626  0.4020  0.0429
19797TIP3   OH280881   2.345   3.660  15.708  0.1044  0.1546 -0.2830
19797TIP3    H180882   2.327   3.566  15.703  0.3972 -0.0549  1.9557
19797TIP3    H280883   2.260   3.699  15.728  0.0249  0.3741 -1.0080
19798TIP3   OH280884   0.362   4.823  16.721  0.0216 -0.4383 -0.0959
19798TIP3    H180885   0.373   4.890  16.653  0.7274  0.2593  0.6812
19798TIP3    H280886   0.402   4.862  16.799 -0.3335 -1.4269  0.5905
19799TIP3   OH280887   2.526   0.616  15.159  0.2653 -0.4860  0.2316
19799TIP3    H180888   2.592   0.674  15.121 -0.3334  0.2494  0.2982
19799TIP3    H280889   2.444   0.642  15.117 -0.2753 -0.2078  1.4163
19800TIP3   OH280890   6.157   5.115  16.496 -0.2697  0.5816  0.3425
19800TIP3    H180891   6.113   5.113  16.582 -3.2906  1.6069 -1.0240
19800TIP3    H280892   6.097   5.068  16.438 -0.0973  2.9368 -1.8933
19801TIP3   OH280893   3.067   6.598   5.812 -0.1700  0.3588 -0.1643
19801TIP3    H180894   3.055   6.586   5.717 -0.5005  0.3305 -0.1221
19801TIP3    H280895   2.977   6.606   5.846 -0.0164  1.9623 -0.0687
19802TIP3   OH280896   5.487   5.275   5.728 -0.1994 -0.1354 -0.4676
19802TIP3    H180897   5.491   5.222   5.649  0.5636 -2.4950  1.0369
19802TIP3    H280898   5.412   5.241   5.776  1.2845 -1.1015  1.3047
19803TIP3   OH280899   4.025   6.162  11.973  0.3406 -0.3661 -0.4194
19803TIP3    H180900   3.999   6.210  12.051  0.5143  1.1197 -1.2318
19803TIP3    H280901   3.943   6.129  11.937  0.2834 -1.2544  0.4963
19804TIP3   OH280902   5.880   6.619  14.581 -0.5681  0.0076 -0.5507
19804TIP3    H180903   5.846   6.706  14.601 -0.0583 -0.4314  2.6669
19804TIP3    H280904   5.812   6.579  14.527 -2.7460  1.0239  1.2649
19805TIP3   OH280905   1.526   6.032  12.579  0.3785  0.1619 -0.2208
19805TIP3    H180906   1.580   6.014  12.656 -0.7926 -0.8103  0.4110
19805TIP3    H280907   1.588   6.056  12.511  1.5310 -0.0481  0.7301
19806TIP3   OH280908   4.960   3.410  16.647 -0.3195  0.0643  0.2632
19806TIP3    H180909   5.037   3.434  16.594 -0.0445 -0.1939  0.5409
19806TIP3    H280910   4.985   3.432  16.737  0.4735 -2.4164  0.7339
19807TIP3   OH280911   3.202   5.426  13.323 -0.4903  0.2666  0.1151
19807TIP3    H180912   3.138   5.437  13.252 -3.0577 -1.7529  1.9091
19807TIP3    H280913   3.197   5.508  13.372 -2.7737 -0.2520  0.9113
19808TIP3   OH280914   4.103   0.205  14.501 -0.0971  0.2074  0.2897
19808TIP3    H180915   4.099   0.140  14.432 -2.0417 -1.5707  1.9185
19808TIP3    H280916   4.149   0.161  14.573 -0.5702  0.9462  1.0729
19809TIP3   OH280917   1.352   2.565   6.073  0.4021  0.3653  0.1965
19809TIP3    H180918   1.434   2.610   6.050  0.1478  0.3174 -0.8410
19809TIP3    H280919   1.288   2.600   6.012  0.2472 -1.6096 -0.8222
19810TIP3   OH280920   5.150   3.151  13.145 -0.2022 -0.2136  0.1669
19810TIP3    H180921   5.221   3.100  13.186  1.3587 -1.9428 -4.0816
19810TIP3    H280922   5.193   3.231  13.115 -1.2245  0.8540  1.4343
19811TIP3   OH280923   5.321   5.131   4.061  0.1824 -0.3272  0.0419
19811TIP3    H180924   5.313   5.167   4.149  0.7700 -0.5941  0.2143
19811TIP3    H280925   5.342   5.038   4.075 -0.6385 -0.5876 -0.3898
19812TIP3   OH280926   0.492   1.744  17.328 -0.0805 -0.0909 -0.0353
19812TIP3    H180927   0.525   1.655  17.321 -0.1189 -0.0841 -0.3140
19812TIP3    H280928   0.399   1.738  17.308 -0.0072  0.0649 -0.4532
19813TIP3   OH280929   4.698   2.001   4.672 -0.1993  0.7240  0.5637
19813TIP3    H180930   4.713   1.913   4.707 -1.5995  0.7831  1.3708
19813TIP3    H280931   4.758   2.057   4.722 -0.3812  0.4389  1.1128
19814TIP3   OH280932   2.382   1.069   1.196  0.0888  0.0962 -0.1326
19814TIP3    H180933   2.319   1.040   1.130 -0.0797 -0.3381  0.2153
19814TIP3    H280934   2.461   1.017   1.178 -0.2568 -0.6997  0.5744
19815TIP3   OH280935   1.542   4.155   5.238  0.0477  0.3271  0.1733
19815TIP3    H180936   1.501   4.223   5.291  1.6415  1.0826  0.5188
19815TIP3    H280937   1.471   4.117   5.188 -1.2961  0.5400  1.8337
19816TIP3   OH280938   6.510   5.820   3.254  0.1454 -0.0157 -0.8493
19816TIP3    H180939   6.600   5.825   3.286  0.0322  2.5580 -0.7621
19816TIP3    H280940   6.520   5.803   3.160  0.7104 -0.0713 -0.7840
19817TIP3   OH280941   6.584   2.688  11.764  0.2936  0.4262  0.4501
19817TIP3    H180942   6.609   2.606  11.807 -1.7092  0.0138  0.9721
19817TIP3    H280943   6.488   2.684  11.762  0.2471  1.4881 -2.0501
19818TIP3   OH280944   3.347   2.710  12.061 -0.7097  0.8760 -0.1871
19818TIP3    H180945   3.420   2.740  12.115  0.2372  0.8198 -1.3971
19818TIP3    H280946   3.314   2.789  12.019 -0.2761  0.6928 -0.8973
19819TIP3   OH280947   3.308   1.006   4.555  0.8217 -0.0008 -0.3224
19819TIP3    H180948   3.338   1.082   4.505  0.0513 -0.0284 -0.8250
19819TIP3    H280949   3.271   1.043   4.635 -2.2371  0.4420 -1.8009
19820TIP3   OH280950   0.493   0.465   4.036  0.3432 -0.3956  0.3341
19820TIP3    H180951   0.466   0.492   3.948 -0.2242 -1.0102  0.3094
19820TIP3    H280952   0.555   0.394   4.022 -0.8435 -1.4894  0.4261
19821TIP3   OH280953   6.542   5.591   6.345  0.0325  0.8118  0.5382
19821TIP3    H180954   6.554   5.522   6.280 -0.6642 -1.4091  2.5906
19821TIP3    H280955   6.447   5.606   6.346  0.0032  0.5999  1.2355
19822TIP3   OH280956   4.594   5.423   0.214 -0.2325 -0.1439  0.7425
19822TIP3    H180957   4.514   5.474   0.201  0.3788  0.5157 -0.6904
19822TIP3    H280958   4.664   5.482   0.186  0.6334 -1.2179  0.5810
19823TIP3   OH280959   0.613   2.521  14.666  0.3412  0.3582  0.0975
19823TIP3    H180960   0.589   2.592  14.606 -1.5988 -1.0322 -0.8809
19823TIP3    H280961   0.551   2.528  14.738 -2.0384 -2.0929 -1.5084
19824TIP3   OH280962   1.770   0.531  15.671 -0.0447  0.5197  0.3260
19824TIP3    H180963   1.865   0.544  15.669 -0.2311  2.1541  0.6132
19824TIP3    H280964   1.755   0.475  15.747  0.6970  0.0661  0.1512
19825TIP3   OH280965   4.662   5.461   4.932  0.0400 -0.7428  0.0411
19825TIP3    H180966   4.654   5.484   5.024  0.5521 -1.0659  0.1703
19825TIP3    H280967   4.649   5.366   4.930 -1.3747 -0.5696 -0.3986
19826TIP3   OH280968   3.021   5.554  15.096 -0.4109  0.4344 -0.1973
19826TIP3    H180969   3.089   5.615  15.127 -0.1877 -0.7981  1.9533
19826TIP3    H280970   2.980   5.599  15.023  0.9533  2.3758  0.1509
19827TIP3   OH280971   2.240   2.748   0.526 -0.2637 -0.3101 -0.0581
19827TIP3    H180972   2.249   2.672   0.469 -1.8601 -0.2703 -0.4217
19827TIP3    H280973   2.309   2.737   0.592  1.3950 -0.5351 -1.7571
19828TIP3   OH280974   5.522   5.010  16.270  0.8828 -0.4014  0.0111
19828TIP3    H180975   5.510   5.041  16.180  0.2885  0.2812  0.3120
19828TIP3    H280976   5.595   5.062  16.304  0.6264 -0.1377  0.1582
19829TIP3   OH280977   2.377   5.492  14.342  0.3102  0.0512  0.3749
19829TIP3    H180978   2.321   5.569  14.354  2.0373  1.2188  1.2283
19829TIP3    H280979   2.318   5.418  14.357 -1.0290  1.2089  1.1303
19830TIP3   OH280980   3.504   2.358   0.564 -0.2089  0.1171 -0.1390
19830TIP3    H180981   3.520   2.415   0.488  0.8195  0.2437  0.1664
19830TIP3    H280982   3.491   2.271   0.526  0.2023  0.1959 -0.4634
19831TIP3   OH280983   1.147   2.959  11.596 -0.1686 -0.3612 -0.3123
19831TIP3    H180984   1.157   3.036  11.540  0.4122 -1.0399 -1.1646
19831TIP3    H280985   1.213   2.970  11.664 -1.6606  1.0693  1.0159
19832TIP3   OH280986   1.508   3.875   0.477 -0.1122  0.8324  0.1576
19832TIP3    H180987   1.480   3.926   0.553 -3.8962  0.7095 -0.9463
19832TIP3    H280988   1.495   3.933   0.403 -1.1987 -0.5734 -0.8127
19833TIP3   OH280989   6.622   3.305  15.772  0.0256 -0.3221 -0.4114
19833TIP3    H180990   6.701   3.338  15.729  0.5768  0.4460  1.1276
19833TIP3    H280991   6.550   3.353  15.732  0.6344  1.2478  0.3149
19834TIP3   OH280992   4.046   1.544   1.617  0.5182 -0.4638 -0.0136
19834TIP3    H180993   3.958   1.511   1.598  0.9311 -1.3208 -0.5114
19834TIP3    H280994   4.084   1.563   1.532  0.9871 -0.5701  0.1680
19835TIP3   OH280995   1.157   5.154   5.084 -0.3545 -0.7941  0.0729
19835TIP3    H180996   1.225   5.211   5.118 -1.2075 -0.1870  0.8244
19835TIP3    H280997   1.117   5.116   5.162 -0.6029 -1.4660 -0.3733
19836TIP3   OH280998   1.683   3.236  12.399 -0.0071  0.3250  0.5194
19836TIP3    H180999   1.749   3.261  12.464  0.1201  0.6671  0.2620
19836TIP3    H281000   1.668   3.143  12.415 -1.7571  0.8913  2.6584
19837TIP3   OH281001   0.688   2.212  16.936  0.2873  0.2337  0.2537
19837TIP3    H181002   0.768   2.259  16.916  1.2048 -0.8364  1.2218
19837TIP3    H281003   0.646   2.198  16.851  2.4605 -1.4611 -0.6611
19838TIP3   OH281004   5.109   0.551  11.238 -0.2475  0.6734 -0.2471
19838TIP3    H181005   5.066   0.591  11.314 -0.5765  1.5807 -0.8831
19838TIP3    H281006   5.192   0.519  11.271  0.4027  2.6353  0.1504
19839TIP3   OH281007   2.843   0.856  11.534  0.0134 -0.0538  0.6990
19839TIP3    H181008   2.790   0.906  11.595 -1.7941 -1.6583  0.5478
19839TIP3    H281009   2.854   0.913  11.458 -0.3380  0.8150  1.2981
19840TIP3   OH281010   5.205   4.580   2.097 -0.1179  0.5933 -0.1010
19840TIP3    H181011   5.198   4.539   2.011 -1.9187  0.0222  0.2784
19840TIP3    H281012   5.253   4.662   2.080 -0.5604  0.5685 -1.6802
19841TIP3   OH281013   0.323   2.026  14.571 -0.3566 -0.2859  0.8247
19841TIP3    H181014   0.349   1.975  14.494 -0.8625  0.0718  0.4071
19841TIP3    H281015   0.248   1.979  14.607  0.9837 -1.4793  2.1998
19842TIP3   OH281016   4.281   4.150  16.907  0.2457 -0.2561  0.7786
19842TIP3    H181017   4.320   4.186  16.827  3.6974 -1.8145  1.5416
19842TIP3    H281018   4.283   4.223  16.970  4.4199 -0.6790  1.4499
19843TIP3   OH281019   0.884   1.489   3.956 -0.1259  0.4705  0.1649
19843TIP3    H181020   0.978   1.473   3.957 -0.5194 -2.7239  1.9496
19843TIP3    H281021   0.859   1.477   3.864  0.9232 -1.2785  0.0652
19844TIP3   OH281022   4.068   2.273   1.762 -0.1756 -0.0365 -0.2733
19844TIP3    H181023   4.011   2.349   1.771  0.0399  0.1434 -0.4356
19844TIP3    H281024   4.106   2.261   1.849 -0.7970 -0.4242 -0.0464
19845TIP3   OH281025   3.139   2.832  16.376 -0.6255 -0.1193 -0.1143
19845TIP3    H181026   3.070   2.775  16.408  0.2977 -0.4862  1.3326
19845TIP3    H281027   3.104   2.870  16.296 -1.1905 -2.8812 -1.2809
19846TIP3   OH281028   1.445   2.505  12.782 -0.2657  0.4756 -0.2520
19846TIP3    H181029   1.508   2.435  12.800  0.1229  1.2199  1.4430
19846TIP3    H281030   1.483   2.583  12.821 -2.4788  0.8327  1.4157
19847TIP3   OH281031   4.162   4.538  11.904  0.2931 -0.1961  0.0308
19847TIP3    H181032   4.216   4.508  11.831  1.7414 -0.2011  1.0514
19847TIP3    H281033   4.079   4.565  11.864 -0.2876 -3.4142 -1.2063
19848TIP3   OH281034   0.641   5.284   1.630  0.1470 -0.4237 -0.0949
19848TIP3    H181035   0.585   5.328   1.566  0.8481  1.7692  0.7200
19848TIP3    H281036   0.605   5.310   1.715  0.4950 -1.6104  0.4373
19849TIP3   OH281037   4.416   4.163   3.878  0.2009 -0.6472  0.2871
19849TIP3    H181038   4.395   4.150   3.786 -0.4708 -2.7156  0.6786
19849TIP3    H281039   4.341   4.209   3.914  0.5473  0.3319 -0.2123
19850TIP3   OH281040   3.362   2.472  14.041  0.1038 -0.5353 -0.2441
19850TIP3    H181041   3.361   2.526  13.962  0.3016 -0.1033  0.0428
19850TIP3    H281042   3.294   2.511  14.097 -0.7126 -1.4278 -0.5818
19851TIP3   OH281043   6.615   4.250  12.206  0.4570 -0.1760  0.5530
19851TIP3    H181044   6.636   4.165  12.245 -0.9155 -1.1146 -0.5957
19851TIP3    H281045   6.522   4.261  12.223  0.8691  1.7360  1.7691
19852TIP3   OH281046   1.786   0.492  12.875  0.2774 -0.2808  0.5609
19852TIP3    H181047   1.853   0.535  12.928  2.0411 -1.5845 -0.4677
19852TIP3    H281048   1.817   0.504  12.785 -0.3793 -1.6993  0.1284
19853TIP3   OH281049   5.208   1.704   3.560 -0.4506 -0.0265  0.1225
19853TIP3    H181050   5.239   1.793   3.544 -0.2883 -0.2125 -0.6755
19853TIP3    H281051   5.265   1.649   3.507 -0.5476 -0.6106  0.6085
19854TIP3   OH281052   2.443   5.557  17.272  0.2572 -0.2432 -0.0744
19854TIP3    H181053   2.393   5.545  17.192  0.2101  2.2342 -0.5072
19854TIP3    H281054   2.489   5.474  17.285 -1.5325 -1.5007 -1.3537
19855TIP3   OH281055   1.953   5.968  13.180 -0.1544 -0.1703  0.2733
19855TIP3    H181056   1.948   6.017  13.262 -1.7472 -1.0004  0.7234
19855TIP3    H281057   1.967   5.877  13.207 -0.1821 -0.3820 -0.3977
19856TIP3   OH281058   4.528   3.692  17.031  0.2520  0.5477  0.1554
19856TIP3    H181059   4.605   3.690  17.087  0.9709 -0.3291 -0.8183
19856TIP3    H281060   4.560   3.725  16.947 -0.2813 -0.3754 -0.4415
19857TIP3   OH281061   1.659   2.824   2.076  0.0167 -0.1141  0.2971
19857TIP3    H181062   1.719   2.838   2.150  0.4478  1.3043 -0.2981
19857TIP3    H281063   1.576   2.862   2.105 -0.0411 -0.2793  0.3512
19858TIP3   OH281064   6.285   6.469  14.127 -0.0586 -0.1463  0.4766
19858TIP3    H181065   6.346   6.514  14.185  0.6751  1.2909 -1.3088
19858TIP3    H281066   6.340   6.437  14.055 -1.4326  2.1061 -1.7322
19859TIP3   OH281067   5.220   0.659   1.020  0.3669  0.2695  0.3308
19859TIP3    H181068   5.276   0.612   1.082 -1.4592 -2.1220  0.3194
19859TIP3    H281069   5.264   0.649   0.935  0.0305 -1.5095  0.3277
19860TIP3   OH281070   5.313   2.448   1.464 -0.2067 -0.5838  0.0612
19860TIP3    H181071   5.316   2.420   1.556  0.2058 -1.1057 -0.1052
19860TIP3    H281072   5.380   2.516   1.458  0.6430 -1.4172 -0.1276
19861TIP3   OH281073   6.359   3.657  11.541  0.8777 -0.2079  0.0320
19861TIP3    H181074   6.359   3.673  11.447  0.7104  1.8864  0.3208
19861TIP3    H281075   6.288   3.595  11.555  0.1026  0.3791 -1.1111
19862TIP3   OH281076   6.346   0.887   1.154 -0.0500  0.3816  0.4979
19862TIP3    H181077   6.354   0.837   1.235  4.4947 -0.7963 -0.3923
19862TIP3    H281078   6.396   0.967   1.171 -0.5627  0.9537 -0.5862
19863TIP3   OH281079   3.462   2.584   5.979 -0.0267 -0.0160  0.0907
19863TIP3    H181080   3.368   2.565   5.984  0.1503 -0.6894  3.0943
19863TIP3    H281081   3.501   2.502   5.947 -0.4132  0.0737 -0.6160
19864TIP3   OH281082   5.786   1.781  13.560 -0.1719  0.2126 -0.1636
19864TIP3    H181083   5.807   1.874  13.551  2.1679 -0.2056  0.3295
19864TIP3    H281084   5.843   1.737  13.496 -0.0668 -0.9692  0.6947
19865TIP3   OH281085   5.165   5.617   3.728  0.0929  0.4516 -0.3701
19865TIP3    H181086   5.136   5.638   3.639  0.6107  0.1382 -0.6258
19865TIP3    H281087   5.196   5.526   3.721  1.0383  0.7397 -0.1076
19866TIP3   OH281088   6.395   4.899   5.160  0.6500  0.1561  0.8152
19866TIP3    H181089   6.405   4.947   5.242  0.8884 -0.2876  1.0523
19866TIP3    H281090   6.363   4.964   5.098 -3.3522 -0.2716  2.1557
19867TIP3   OH281091   4.373   5.143  14.666  0.1569  0.8415 -0.8370
19867TIP3    H181092   4.377   5.073  14.600 -0.1003 -0.2968  0.3210
19867TIP3    H281093   4.377   5.224  14.615 -0.0215 -0.0083 -2.2529
19868TIP3   OH281094   6.052   4.119   0.769 -0.0735  0.9160  0.2212
19868TIP3    H181095   6.049   4.083   0.858  0.4499  1.0291  0.2876
19868TIP3    H281096   6.037   4.043   0.712 -1.7551  1.0591  0.4298
19869TIP3   OH281097   2.602   1.511   3.594 -0.0087 -0.4734  0.2221
19869TIP3    H181098   2.676   1.569   3.609  0.8867 -0.9299 -2.0483
19869TIP3    H281099   2.580   1.476   3.680  1.9739  0.2003  1.0423
19870TIP3   OH281100   3.709   0.488  16.680  0.7525 -0.6370 -0.1886
19870TIP3    H181101   3.660   0.448  16.751 -0.5330  2.0890  0.6029
19870TIP3    H281102   3.694   0.431  16.605 -0.0365 -2.1789  1.0880
19871TIP3   OH281103   4.183   6.353  11.222  0.8003 -0.2844 -0.1222
19871TIP3    H181104   4.230   6.278  11.185  0.5041 -0.6383  0.2042
19871TIP3    H281105   4.245   6.393  11.283  1.4014  0.4871 -1.2039
19872TIP3   OH281106   3.101   0.773   4.425  0.6153  0.3031 -0.0004
19872TIP3    H181107   3.115   0.845   4.364 -1.4505  1.3942  0.7006
19872TIP3    H281108   3.135   0.807   4.509  0.9969 -0.1339  0.0242
19873TIP3   OH281109   6.174   2.756   2.195  0.6857  0.5424  0.2724
19873TIP3    H181110   6.174   2.842   2.237  1.6312  1.2931 -1.1690
19873TIP3    H281111   6.082   2.729   2.194  0.3981  1.4633  0.8560
19874TIP3   OH281112   4.826   5.850   0.308 -0.1013 -0.4969 -0.2701
19874TIP3    H181113   4.871   5.808   0.381  0.1602  1.0680  0.5260
19874TIP3    H281114   4.741   5.875   0.344  0.3705  1.0920 -0.1830
19875TIP3   OH281115   6.130   1.010   0.596  0.3511  0.3450 -0.2888
19875TIP3    H181116   6.091   0.942   0.652  3.3963 -0.9142  0.5163
19875TIP3    H281117   6.090   1.092   0.627 -0.9255 -0.7142  1.0576
19876TIP3   OH281118   4.539   5.488  14.222 -0.2037  0.3224  0.5018
19876TIP3    H181119   4.474   5.445  14.276 -0.2618  0.4604  0.5438
19876TIP3    H281120   4.588   5.544  14.282  0.2499 -0.1246  0.5471
19877TIP3   OH281121   0.399   2.430  14.877 -0.0675  0.3731 -0.0775
19877TIP3    H181122   0.337   2.500  14.853 -0.3091 -0.1625 -1.0896
19877TIP3    H281123   0.377   2.358  14.817  0.9362 -0.1532  0.1780
19878TIP3   OH281124   0.093   3.143   5.108  0.3266 -0.4815 -0.0963
19878TIP3    H181125   0.077   3.221   5.055 -0.0379 -2.3103 -2.9270
19878TIP3    H281126   0.022   3.083   5.084 -0.0880 -1.3117  2.8732
19879TIP3   OH281127   5.590   3.382  16.318  0.4459 -0.1257 -0.4002
19879TIP3    H181128   5.655   3.312  16.319  0.3824 -0.2674 -2.6992
19879TIP3    H281129   5.508   3.338  16.296 -0.1552  0.3061  0.8430
19880TIP3   OH281130   0.791   6.318  16.700 -0.1059 -0.1871 -0.1248
19880TIP3    H181131   0.856   6.249  16.712  1.1166  1.3261  2.9190
19880TIP3    H281132   0.841   6.399  16.704 -1.9751  0.9859  0.5441
19881TIP3   OH281133   2.479   2.336   4.819 -0.4922 -0.1844 -0.3294
19881TIP3    H181134   2.502   2.375   4.904 -1.1813  0.5018 -0.4493
19881TIP3    H281135   2.487   2.408   4.757  0.5165 -0.8054 -0.9493
19882TIP3   OH281136   2.545   0.439   1.117 -0.1370 -0.1596 -0.2851
19882TIP3    H181137   2.601   0.388   1.058 -1.6096 -1.9314 -0.2088
19882TIP3    H281138   2.456   0.425   1.084 -0.8138  0.3625  1.2309
19883TIP3   OH281139   3.348   1.354   6.467 -0.1808  0.6182  0.3609
19883TIP3    H181140   3.416   1.321   6.527 -1.0128  0.3829  1.2070
19883TIP3    H281141   3.322   1.277   6.417  0.0694  0.6747  0.1435
19884TIP3   OH281142   4.827   4.959   6.250 -0.0328  0.1069  0.4844
19884TIP3    H181143   4.886   4.941   6.177  0.5740 -0.9439  1.2125
19884TIP3    H281144   4.884   4.963   6.327 -0.8609 -0.6654  1.1642
19885TIP3   OH281145   1.372   5.999   5.990  0.1695  0.1857 -0.5788
19885TIP3    H181146   1.408   5.927   6.043  1.0792  1.1786  0.2009
19885TIP3    H281147   1.449   6.046   5.958 -0.4022  1.4300 -0.1932
19886TIP3   OH281148   6.431   5.506  15.916 -0.1452  0.8144  0.3097
19886TIP3    H181149   6.518   5.514  15.876 -0.1949  1.8149  0.3790
19886TIP3    H281150   6.441   5.435  15.980 -0.0538 -0.7861 -1.3977
19887TIP3   OH281151   5.126   1.428   5.597  0.3503  0.4317  0.6688
19887TIP3    H181152   5.128   1.501   5.659 -1.3792 -0.5380  1.9710
19887TIP3    H281153   5.059   1.453   5.533 -0.8064 -0.2733  1.5523
19888TIP3   OH281154   3.358   6.103   5.674 -0.1967  0.3747 -0.0392
19888TIP3    H181155   3.321   6.029   5.722 -1.8190  1.9157  1.2502
19888TIP3    H281156   3.430   6.134   5.729 -0.1046  0.3041 -0.1200
19889TIP3   OH281157   3.116   3.410   2.643 -0.5127  0.7850  0.3387
19889TIP3    H181158   3.026   3.414   2.675 -0.8753  2.5777 -0.7483
19889TIP3    H281159   3.132   3.317   2.628 -2.6428  0.5347 -0.6921
19890TIP3   OH281160   3.661   2.935  11.712 -0.5515 -0.0682  0.1794
19890TIP3    H181161   3.699   2.959  11.797 -0.3200 -2.6091  0.8717
19890TIP3    H281162   3.728   2.960  11.648  0.6296 -0.8882  1.0490
19891TIP3   OH281163   3.897   0.376  13.853  0.6859 -0.0828 -0.0855
19891TIP3    H181164   3.911   0.436  13.779  1.3750 -0.8436 -0.5867
19891TIP3    H281165   3.979   0.381  13.902  0.0178  0.8641  0.9759
19892TIP3   OH281166   3.322   0.355  14.219  0.0841  0.0752 -0.3344
19892TIP3    H181167   3.234   0.322  14.234  0.2722 -0.0142  0.6061
19892TIP3    H281168   3.310   0.449  14.200 -0.1213  0.3236  0.9680
19893TIP3   OH281169   2.929   0.414   0.417 -0.8009  0.3071 -0.7356
19893TIP3    H181170   3.006   0.432   0.471 -0.6159 -0.2995 -0.7826
19893TIP3    H281171   2.964   0.363   0.343 -1.3316 -0.4942 -0.4485
19894TIP3   OH281172   0.015   1.754   1.838  0.2887  0.4442  0.0770
19894TIP3    H181173  -0.073   1.717   1.827  1.1346 -1.6532 -0.2424
19894TIP3    H281174   0.017   1.786   1.929 -0.1759 -1.4205  0.7907
19895TIP3   OH281175   0.651   4.392  15.417 -0.0327 -0.0380  0.4032
19895TIP3    H181176   0.669   4.483  15.441 -1.4877  0.2033  0.7032
19895TIP3    H281177   0.693   4.340  15.486  0.1360  0.4414  0.6669
19896TIP3   OH281178   5.540   1.158  15.705 -0.5494  0.5751 -1.5499
19896TIP3    H181179   5.494   1.126  15.783  1.2920 -1.7254 -1.3149
19896TIP3    H281180   5.491   1.120  15.631 -0.4565  0.1289 -1.3865
19897TIP3   OH281181   4.102   0.987  14.631  0.0469  0.3944  0.4354
19897TIP3    H181182   4.145   1.013  14.550 -0.1891  0.5429  0.3562
19897TIP3    H281183   4.150   1.034  14.700  0.3418  0.1507  0.3972
19898TIP3   OH281184   6.458   4.135   3.701 -0.0175 -0.3679  0.5121
19898TIP3    H181185   6.464   4.194   3.776 -2.0739  0.8439 -0.1758
19898TIP3    H281186   6.546   4.101   3.689  0.6351  0.4404  2.6367
19899TIP3   OH281187   3.618   0.131  11.240 -0.2457 -0.1472  0.5954
19899TIP3    H181188   3.644   0.039  11.231 -1.0011 -0.3543  0.4873
19899TIP3    H281189   3.649   0.172  11.159  2.0010  0.1786  1.5395
19900TIP3   OH281190   4.281   4.021   5.479 -0.1831  0.3968  0.3562
19900TIP3    H181191   4.209   4.032   5.417  0.9248  1.4225 -0.7837
19900TIP3    H281192   4.242   4.041   5.564 -1.8741 -1.5914  0.1509
19901TIP3   OH281193   6.630   6.721  16.126  0.4224  0.7080 -0.1313
19901TIP3    H181194   6.705   6.738  16.068 -0.5337  1.8609 -1.0942
19901TIP3    H281195   6.557   6.766  16.083 -0.4435  1.1236  1.6998
19902TIP3   OH281196   2.012   1.555  13.645 -0.3355  0.1864  0.0695
19902TIP3    H181197   1.972   1.638  13.671  0.4518  0.0196  2.0162
19902TIP3    H281198   2.072   1.579  13.574 -1.0948  1.0350 -0.3157
19903TIP3   OH281199   4.273   4.962   0.084 -0.3497 -1.0431  0.1516
19903TIP3    H181200   4.266   4.950   0.178 -2.4789  3.6475  0.8678
19903TIP3    H281201   4.217   4.894   0.047 -1.2929 -1.5906  2.4282
19904TIP3   OH281202   2.416   4.319   4.549 -0.2497 -0.0714  0.1539
19904TIP3    H181203   2.501   4.335   4.508 -0.0990 -1.3758 -0.1121
19904TIP3    H281204   2.354   4.368   4.496  0.4811  2.1527  1.2567
19905TIP3   OH281205   3.354   2.277  12.995  1.0690 -0.4149 -0.1174
19905TIP3    H181206   3.282   2.233  12.951  1.3461 -1.8945  0.8360
19905TIP3    H281207   3.431   2.256  12.942  1.4635 -2.5040  1.1677
19906TIP3   OH281208   5.086   4.216  16.656 -0.3312 -0.3604  0.3263
19906TIP3    H181209   5.155   4.180  16.712  1.1676  3.3864  1.1616
19906TIP3    H281210   5.008   4.216  16.711  0.1930 -0.2126  1.0891
19907TIP3   OH281211   3.711   2.176  14.401 -0.4198 -0.2717 -0.4801
19907TIP3    H181212   3.692   2.122  14.325  0.7854  0.2336 -1.1580
19907TIP3    H281213   3.772   2.124  14.453 -0.0395  0.0126 -0.6366
19908TIP3   OH281214   4.270   4.794   3.774  0.0217 -0.2306  0.1063
19908TIP3    H181215   4.209   4.865   3.754 -0.1625 -0.1349  0.9687
19908TIP3    H281216   4.332   4.794   3.702 -0.7752 -0.0794 -0.6000
19909TIP3   OH281217   6.117   0.800   3.879 -0.0543  0.5234 -0.5269
19909TIP3    H181218   6.031   0.798   3.921 -0.3464 -0.1177 -1.1418
19909TIP3    H281219   6.132   0.893   3.858  0.8551  1.1859  2.4747
19910TIP3   OH281220   2.314   3.999  16.432 -0.1457 -0.4768 -0.3533
19910TIP3    H181221   2.228   4.030  16.404  0.2432  0.5853 -0.4190
19910TIP3    H281222   2.296   3.933  16.499 -1.0458 -1.7350 -1.7851
19911TIP3   OH281223   6.171   1.000   3.434  0.0668 -0.0808  0.0261
19911TIP3    H181224   6.187   1.057   3.509 -0.9772  0.4213 -0.1294
19911TIP3    H281225   6.211   0.917   3.460 -0.4210  0.0275  1.2158
19912TIP3   OH281226   0.825   5.006   2.245  0.0896  0.3410  0.1191
19912TIP3    H181227   0.730   4.995   2.240 -0.0512  1.4291  0.0967
19912TIP3    H281228   0.857   4.987   2.157 -0.4908  3.0716 -0.7735
19913TIP3   OH281229   5.755   3.621  15.948  0.0837 -0.1908 -0.2232
19913TIP3    H181230   5.724   3.595  16.034  0.3734  0.3018  0.0337
19913TIP3    H281231   5.676   3.642  15.899 -0.0881 -0.5731 -0.1190
19914TIP3   OH281232   0.006   6.395   2.983  0.7743  0.1173  0.4830
19914TIP3    H181233   0.016   6.301   3.000  1.5702  0.2542  0.7969
19914TIP3    H281234   0.047   6.408   2.897 -0.7381 -0.0791 -0.3141
19915TIP3   OH281235   4.768   3.647   0.264 -0.3843  0.0687  0.3861
19915TIP3    H181236   4.858   3.658   0.232  0.5010 -1.1916  2.2103
19915TIP3    H281237   4.729   3.582   0.206  0.0538  0.2200 -0.0884
19916TIP3   OH281238   1.216   2.602  13.457 -0.4113 -0.0713 -0.2481
19916TIP3    H181239   1.206   2.599  13.361  1.5835  2.0058 -0.5904
19916TIP3    H281240   1.268   2.680  13.474  1.3254 -1.6315  2.3826
19917TIP3   OH281241   3.919   6.112  17.330 -0.1219 -0.4401  0.1122
19917TIP3    H181242   3.837   6.122  17.378 -0.1054  0.6326 -0.0423
19917TIP3    H281243   3.970   6.050  17.382 -0.3289  0.2505  1.1840
19918TIP3   OH281244   0.305   4.498  13.959 -0.5216  1.0150 -0.1412
19918TIP3    H181245   0.221   4.540  13.978 -0.0729  0.7184  2.9668
19918TIP3    H281246   0.308   4.421  14.016  2.2792  1.6135  0.6917
19919TIP3   OH281247   1.833   0.756  11.836  0.1478  0.6171  0.1010
19919TIP3    H181248   1.851   0.713  11.752  3.1230  0.6852  0.6123
19919TIP3    H281249   1.847   0.687  11.902  2.3633  1.6272  0.7654
19920TIP3   OH281250   1.993   4.662  11.997  0.7227 -0.1289 -0.0595
19920TIP3    H181251   1.917   4.635  11.944 -0.0701  0.3472  0.8008
19920TIP3    H281252   2.059   4.687  11.933 -0.1859  0.3620 -0.8332
19921TIP3   OH281253   5.867   4.109   4.668 -0.0236 -0.1776 -0.5874
19921TIP3    H181254   5.937   4.076   4.725  1.8493  0.7887 -2.1930
19921TIP3    H281255   5.894   4.084   4.580 -1.1548  1.1533 -1.3582
19922TIP3   OH281256   6.775   5.241   4.955  0.0226 -0.5246 -0.1950
19922TIP3    H181257   6.765   5.298   5.032 -1.2697 -1.7555  0.5950
19922TIP3    H281258   6.868   5.248   4.933 -0.0513  1.7794 -0.0818
19923TIP3   OH281259   3.888   3.010   2.136 -0.3415  0.4928 -0.1208
19923TIP3    H181260   3.904   3.017   2.042 -2.3534  0.4835 -0.4941
19923TIP3    H281261   3.793   3.013   2.145 -0.2424 -0.5841  1.8331
19924TIP3   OH281262   5.450   0.292   1.053 -0.0563  1.2972  0.0643
19924TIP3    H181263   5.512   0.365   1.050 -0.0333  1.2786  0.0976
19924TIP3    H281264   5.426   0.285   1.145  0.1761  1.0627  0.1072
19925TIP3   OH281265   2.416   1.957  15.553 -0.2512 -0.2579 -0.0888
19925TIP3    H181266   2.339   1.906  15.529 -1.5488  1.9618 -0.8835
19925TIP3    H281267   2.449   1.992  15.470  0.4545  0.4064  0.4553
19926TIP3   OH281268   1.074   3.154   6.289  0.3667 -0.3308  0.0820
19926TIP3    H181269   1.047   3.145   6.381 -2.9595  1.9086 -0.4773
19926TIP3    H281270   1.021   3.089   6.243  1.9056 -1.3321 -0.3490
19927TIP3   OH281271   2.174   2.332  13.569  0.0896  0.4762 -0.7608
19927TIP3    H181272   2.142   2.421  13.586  0.5220  0.3682  0.7545
19927TIP3    H281273   2.263   2.332  13.604 -0.9378 -1.4094  2.1967
19928TIP3   OH281274   6.489   0.571   5.747 -0.2484 -0.2944 -0.0244
19928TIP3    H181275   6.471   0.665   5.743 -2.1545 -0.6162 -0.4305
19928TIP3    H281276   6.413   0.531   5.703 -0.0308 -2.0639  1.1119
19929TIP3   OH281277   0.142   0.722  11.089  0.1610 -0.1700 -0.3060
19929TIP3    H181278   0.199   0.794  11.061  0.7582 -0.0406  1.1513
19929TIP3    H281279   0.061   0.735  11.039  0.0416  1.8590  0.3109
19930TIP3   OH281280   0.956   2.392   2.680 -0.1330 -0.1593 -0.1349
19930TIP3    H181281   0.971   2.356   2.767  0.7852  0.3453 -0.0688
19930TIP3    H281282   0.871   2.357   2.654 -1.4343  1.3923  1.8076
19931TIP3   OH281283   5.790   4.312   0.792 -0.1326  0.1349  0.3387
19931TIP3    H181284   5.722   4.324   0.726 -0.1460 -0.5618  0.2167
19931TIP3    H281285   5.797   4.217   0.803  1.0399  0.1730  0.1025
19932TIP3   OH281286   1.822   6.189   1.973  0.1573  0.1864  0.2504
19932TIP3    H181287   1.826   6.284   1.987 -1.4928  0.1799  1.0194
19932TIP3    H281288   1.837   6.151   2.059 -1.7428 -0.1277  0.4966
19933TIP3   OH281289   1.929   2.301  13.133  0.1176 -0.2950  0.5427
19933TIP3    H181290   1.990   2.341  13.195  2.1993 -2.0835 -0.2075
19933TIP3    H281291   1.860   2.264  13.187  1.3009 -0.8454  1.7123
19934TIP3   OH281292   0.183   4.981   5.630  0.3298  0.1903  0.1213
19934TIP3    H181293   0.128   4.908   5.600 -0.7478  1.3925 -0.9781
19934TIP3    H281294   0.161   4.990   5.722  1.3802 -1.6046  0.6080
19935TIP3   OH281295   5.102   2.557   6.548 -0.4301  0.1405  0.2319
19935TIP3    H181296   5.191   2.590   6.544 -0.4487  0.1201 -0.7056
19935TIP3    H281297   5.058   2.599   6.473 -1.0794 -0.1881  0.4241
19936TIP3   OH281298   3.179   2.976  11.602 -0.2591 -0.1897  0.1752
19936TIP3    H181299   3.253   2.978  11.662  0.4685 -1.1603 -0.6480
19936TIP3    H281300   3.216   2.942  11.520 -1.4300  0.1554 -0.5190
19937TIP3   OH281301   5.899   0.035  11.995 -0.0477 -0.7414  0.1071
19937TIP3    H181302   5.883   0.073  12.082  0.3527 -1.2646  0.4085
19937TIP3    H281303   5.811   0.015  11.962 -0.2064 -0.4603  0.3478
19938TIP3   OH281304   5.370   6.498  11.104 -0.2562  0.0111 -0.0361
19938TIP3    H181305   5.351   6.571  11.045  1.2951  2.1523  1.9246
19938TIP3    H281306   5.438   6.448  11.060 -1.0204 -0.0341 -1.2063
19939TIP3   OH281307   2.970   3.810   5.666 -0.0909  0.2603  0.2288
19939TIP3    H181308   3.063   3.818   5.645 -0.4802  1.3526 -1.2969
19939TIP3    H281309   2.958   3.863   5.745  0.4766  0.6339  0.0718
19940TIP3   OH281310   1.421   3.325   1.790  0.2927  0.6688  0.1273
19940TIP3    H181311   1.365   3.263   1.837  0.5230 -0.6561 -1.2732
19940TIP3    H281312   1.361   3.394   1.761 -0.0307  0.9412  1.3931
19941TIP3   OH281313   1.814   0.653  16.835  0.4171 -0.3150  0.1626
19941TIP3    H181314   1.728   0.671  16.797  0.7289  1.8193  0.3763
19941TIP3    H281315   1.876   0.668  16.763  0.8089  1.0787  0.7692
19942TIP3   OH281316   3.455   4.386   2.136 -0.7812 -0.1572  0.1454
19942TIP3    H181317   3.532   4.338   2.105 -0.0308 -0.1075  1.8389
19942TIP3    H281318   3.404   4.322   2.185 -0.4589  0.4271  1.2724
19943TIP3   OH281319   3.136   6.319   5.209  0.2241 -0.0068  0.0468
19943TIP3    H181320   3.072   6.386   5.231  0.5073  0.9535 -1.8415
19943TIP3    H281321   3.205   6.328   5.275  0.4818  1.8838 -0.4425
19944TIP3   OH281322   4.889   0.271  15.189 -0.2866 -0.1753 -0.4578
19944TIP3    H181323   4.932   0.186  15.199  0.1815  0.1126 -0.0102
19944TIP3    H281324   4.944   0.319  15.127 -0.9286 -0.4405 -1.2602
19945TIP3   OH281325   6.768   0.797  13.301  0.1547 -0.3027 -0.3952
19945TIP3    H181326   6.729   0.734  13.241 -0.2343  0.1161 -0.5886
19945TIP3    H281327   6.748   0.763  13.388 -0.3448 -0.2748 -0.4975
19946TIP3   OH281328   1.930   5.348   0.237 -0.5319  0.1489 -0.0455
19946TIP3    H181329   2.012   5.395   0.222 -1.2846  1.1078 -1.4290
19946TIP3    H281330   1.865   5.417   0.254 -1.3233 -0.4972 -0.3706
19947TIP3   OH281331   4.306   3.522  13.191 -0.4504 -0.1816  0.5099
19947TIP3    H181332   4.280   3.485  13.106 -1.0292  0.3523  0.4544
19947TIP3    H281333   4.229   3.513  13.246 -0.4741  0.5959  0.6127
19948TIP3   OH281334   5.842   5.941  17.166 -0.0924  0.1423 -0.1068
19948TIP3    H181335   5.875   5.878  17.230 -0.8263 -1.1187 -0.9373
19948TIP3    H281336   5.750   5.918  17.155 -0.9932  2.6923  1.1265
19949TIP3   OH281337   1.057   6.683  12.447  0.3557  0.1085 -0.1441
19949TIP3    H181338   1.074   6.770  12.411 -1.4262  1.3270  1.7475
19949TIP3    H281339   0.973   6.657  12.408  0.3411 -0.2900  0.1475
19950TIP3   OH281340   2.190   4.484  17.307  0.5811 -0.4747 -0.5954
19950TIP3    H181341   2.273   4.436  17.299  0.6144 -0.6450  0.6320
19950TIP3    H281342   2.206   4.567  17.262  0.8782 -1.1639 -1.8022
19951TIP3   OH281343   6.201   6.714  15.994  0.1302 -0.4831  0.2965
19951TIP3    H181344   6.288   6.711  15.955 -0.3908 -1.1269 -0.8686
19951TIP3    H281345   6.187   6.806  16.016  1.4527 -0.5045  1.3545
19952TIP3   OH281346   4.758   2.219   1.061 -0.0169  0.0670  0.0202
19952TIP3    H181347   4.805   2.138   1.041 -0.4695 -0.5012  1.1791
19952TIP3    H281348   4.666   2.197   1.052 -0.2684 -0.2303  2.5044
19953TIP3   OH281349   5.637   5.107   1.308 -0.2627 -0.0150 -0.7772
19953TIP3    H181350   5.585   5.069   1.238 -0.0251 -0.5801 -0.6542
19953TIP3    H281351   5.695   5.169   1.264  0.7839 -1.2828 -1.2857
19954TIP3   OH281352   5.366   3.933  14.716  0.7158  0.0826 -0.0695
19954TIP3    H181353   5.273   3.917  14.695  0.7808 -1.1633  0.5272
19954TIP3    H281354   5.365   4.015  14.764 -0.2747 -0.6082  1.1605
19955TIP3   OH281355   5.196   0.331  14.134 -0.3760 -0.2378 -0.3781
19955TIP3    H181356   5.140   0.300  14.063  0.6295 -1.8973 -0.5028
19955TIP3    H281357   5.156   0.295  14.214 -0.7355  0.4753 -0.2292
19956TIP3   OH281358   0.311   6.490  10.670  0.3359 -0.5768 -0.3786
19956TIP3    H181359   0.284   6.449  10.589 -0.2077 -0.7652 -0.1077
19956TIP3    H281360   0.371   6.560  10.643  0.2994 -0.7543 -0.9237
19957TIP3   OH281361   0.890   1.914   3.121 -0.4752  0.0038  0.7210
19957TIP3    H181362   0.868   1.858   3.195  0.1072 -0.7139  0.3670
19957TIP3    H281363   0.870   2.003   3.151 -0.1460 -0.2621  1.7727
19958TIP3   OH281364   1.948   1.010  11.960 -0.0063 -0.1785 -0.0635
19958TIP3    H181365   2.036   1.006  11.996 -0.3949  1.0469  1.0697
19958TIP3    H281366   1.929   0.920  11.933  0.9754 -0.7792  1.1723
19959TIP3   OH281367   0.952   5.615   1.540 -0.1640  0.2044  0.2012
19959TIP3    H181368   1.040   5.611   1.579 -0.4574  0.8279  0.9436
19959TIP3    H281369   0.934   5.708   1.530 -0.6090  0.0731 -0.2750
19960TIP3   OH281370   3.643   1.965   1.816 -0.0609 -0.9711 -0.2396
19960TIP3    H181371   3.630   1.983   1.723 -0.5949 -0.9223 -0.1569
19960TIP3    H281372   3.737   1.945   1.823 -0.2537 -2.3246 -1.0225
19961TIP3   OH281373   6.617   3.397  13.485 -0.4034 -0.7033 -0.0203
19961TIP3    H181374   6.528   3.377  13.513 -0.9476  0.4881 -0.7801
19961TIP3    H281375   6.614   3.490  13.462  1.3999 -0.2706  1.2704
19962TIP3   OH281376   1.065   6.432   5.933  0.2226 -0.3011 -0.0215
19962TIP3    H181377   1.031   6.438   5.844  1.0347 -0.7233 -0.3664
19962TIP3    H281378   1.110   6.347   5.936 -1.6602 -1.3446  1.4495
19963TIP3   OH281379   1.825   4.050   0.329  0.2743 -0.6039 -0.4150
19963TIP3    H181380   1.762   4.029   0.398 -0.6180  0.0069 -1.0330
19963TIP3    H281381   1.858   4.137   0.351  0.0904 -0.4651 -0.6850
19964TIP3   OH281382   3.616   1.146   0.825  0.2360  0.3806 -0.0234
19964TIP3    H181383   3.580   1.162   0.738 -1.0799  0.9885  0.6052
19964TIP3    H281384   3.574   1.211   0.881  0.1219 -0.7782  1.2947
19965TIP3   OH281385   5.939   0.423  11.904  0.2603 -0.2358  0.6737
19965TIP3    H181386   5.944   0.432  11.999  3.4139  1.2936  0.5064
19965TIP3    H281387   6.020   0.376  11.881  0.4603  0.9954 -1.3529
19966TIP3   OH281388   6.389   2.804  16.831 -0.2817 -0.4558 -0.5262
19966TIP3    H181389   6.328   2.878  16.830 -1.5285 -1.3205  2.2226
19966TIP3    H281390   6.475   2.844  16.844 -0.6370  0.6099 -1.3299
19967TIP3   OH281391   3.811   2.316   5.793  0.0278  0.2622 -0.4842
19967TIP3    H181392   3.801   2.385   5.728 -0.0253  0.1504 -0.5947
19967TIP3    H281393   3.789   2.236   5.746 -0.5235  0.2385 -0.1891
19968TIP3   OH281394   5.657   1.872  15.120 -0.0275 -0.3895 -0.2993
19968TIP3    H181395   5.618   1.960  15.124  1.0755  0.0648  1.9556
19968TIP3    H281396   5.634   1.832  15.203  2.5008 -0.8804  0.2391
19969TIP3   OH281397   4.858   2.315   5.243  0.0945  0.1683  0.8225
19969TIP3    H181398   4.874   2.262   5.322 -0.1264 -0.5355  0.3981
19969TIP3    H281399   4.836   2.252   5.175 -0.3401  0.8210  0.3412
19970TIP3   OH281400   4.259   0.197  11.758 -0.0458 -0.2672 -0.0095
19970TIP3    H181401   4.240   0.264  11.824 -1.5147  3.1032 -3.4400
19970TIP3    H281402   4.341   0.159  11.786 -0.4046  1.1348  3.5359
19971TIP3   OH281403   3.328   1.775  16.889  0.1648 -0.6069 -0.4180
19971TIP3    H181404   3.255   1.715  16.876 -0.6910  0.8971 -3.2722
19971TIP3    H281405   3.393   1.749  16.824  0.5904  0.3683 -0.4096
19972TIP3   OH281406   2.354   1.688  12.771  0.2519  0.2441 -0.1702
19972TIP3    H181407   2.323   1.598  12.777 -0.0830  0.3809  0.2203
19972TIP3    H281408   2.441   1.686  12.810 -0.4057  0.3895  1.3791
19973TIP3   OH281409   6.772   1.426  15.989  0.1639  0.0814  0.4021
19973TIP3    H181410   6.703   1.360  15.986  2.3402 -2.2898 -1.0422
19973TIP3    H281411   6.733   1.503  15.946 -1.7805 -0.9215  0.2505
19974TIP3   OH281412   1.058   1.668   5.339 -0.6288 -0.4369  0.7917
19974TIP3    H181413   1.150   1.648   5.325 -0.6167 -1.1369  1.7650
19974TIP3    H281414   1.029   1.707   5.257  0.1479 -1.5880 -0.0479
19975TIP3   OH281415   1.069   5.804   0.809  0.3819  0.3890  0.0167
19975TIP3    H181416   0.986   5.847   0.830  0.0703  0.0251 -0.4454
19975TIP3    H281417   1.129   5.831   0.879 -0.5892 -0.7532  1.3428
19976TIP3   OH281418   1.178   1.841   5.799 -0.1185  0.1144  0.0950
19976TIP3    H181419   1.202   1.793   5.878  1.3428  0.8140  0.1115
19976TIP3    H281420   1.234   1.804   5.730 -0.2102  0.6091 -0.2510
19977TIP3   OH281421   3.360   5.595  12.301 -0.2288  0.0612  0.0477
19977TIP3    H181422   3.353   5.562  12.211 -1.0414 -0.9242  0.4574
19977TIP3    H281423   3.433   5.546  12.339 -1.8716 -1.8990  0.8733
19978TIP3   OH281424   4.254   0.749   5.050 -0.3412 -0.1812  0.2087
19978TIP3    H181425   4.216   0.830   5.018 -0.7271 -0.2492  0.4896
19978TIP3    H281426   4.334   0.776   5.096  1.1265 -0.2007 -2.1184
19979TIP3   OH281427   6.565   3.919  15.333  0.2976 -0.1675  0.1822
19979TIP3    H181428   6.548   3.908  15.427 -0.9869 -0.7403 -0.1029
19979TIP3    H281429   6.630   3.990  15.329 -0.6308  0.8053  1.4486
19980TIP3   OH281430   5.315   6.047   2.397 -0.0060  1.0226 -0.2109
19980TIP3    H181431   5.293   5.982   2.464  2.7174 -0.3128 -0.4786
19980TIP3    H281432   5.299   6.003   2.314 -1.2892  1.9102 -0.4636
19981TIP3   OH281433   5.966   4.675   4.478  0.5049  0.0594 -0.2107
19981TIP3    H181434   5.925   4.619   4.544  0.4172  0.1847 -0.1579
19981TIP3    H281435   5.933   4.763   4.497  0.5360  0.1076 -0.3760
19982TIP3   OH281436   6.484   0.696   2.253  0.0312  0.4605  0.2794
19982TIP3    H181437   6.452   0.606   2.260 -0.4518  0.1684 -3.4324
19982TIP3    H281438   6.572   0.687   2.217 -0.4128  1.4040 -1.1525
19983TIP3   OH281439   0.823   5.218  11.863 -0.6946 -0.1609 -0.7679
19983TIP3    H181440   0.750   5.208  11.925 -1.5442  0.4240 -1.6601
19983TIP3    H281441   0.876   5.139  11.877 -0.3292  0.3913  1.3856
19984TIP3   OH281442   2.534   5.206   0.228 -0.3157  0.2977  0.2765
19984TIP3    H181443   2.457   5.257   0.256 -1.1788 -1.5126  1.4017
19984TIP3    H281444   2.609   5.262   0.249 -1.1973  0.9671  1.8255
19985TIP3   OH281445   2.307   1.474   0.516  0.0896  0.2280 -0.1429
19985TIP3    H181446   2.279   1.488   0.606 -0.6054 -0.9925 -0.1416
19985TIP3    H281447   2.401   1.460   0.521 -0.2736 -2.4159  0.7689
19986TIP3   OH281448   3.122   0.687   4.149  0.0445 -0.0368 -0.3263
19986TIP3    H181449   3.161   0.672   4.235  1.5245 -0.9133 -1.1106
19986TIP3    H281450   3.083   0.603   4.125  1.1257 -0.3064 -1.2120
19987TIP3   OH281451   0.321   2.168  14.297  0.6057 -0.2837 -0.2128
19987TIP3    H181452   0.315   2.143  14.389 -1.1558 -2.2087 -0.7826
19987TIP3    H281453   0.381   2.103  14.259 -2.4190 -2.6795 -1.2952
19988TIP3   OH281454   2.778   1.254  16.321 -0.5298 -0.3272 -0.4022
19988TIP3    H181455   2.725   1.286  16.394  0.5725  1.2635 -0.2507
19988TIP3    H281456   2.739   1.293  16.244 -0.4851 -0.3808 -0.4527
19989TIP3   OH281457   2.368   4.794   3.633  0.2737 -0.2243  0.2246
19989TIP3    H181458   2.299   4.735   3.603  1.1755 -0.4265 -1.5740
19989TIP3    H281459   2.340   4.821   3.721 -0.1634 -3.2992  1.1449
19990TIP3   OH281460   0.135   1.927   6.059  0.2015  0.3834  0.2399
19990TIP3    H181461   0.070   1.889   6.000  0.8654  0.5978 -0.6578
19990TIP3    H281462   0.085   1.951   6.137 -0.9961  1.4206 -0.7860
19991TIP3   OH281463   3.510   1.829  13.092 -0.3254  0.6304  0.0247
19991TIP3    H181464   3.492   1.757  13.032  0.0285  0.9831 -0.5144
19991TIP3    H281465   3.424   1.868  13.109 -0.4337  0.5059 -0.2276
19992TIP3   OH281466   2.606   5.669  12.078  0.1707  0.3415  0.2743
19992TIP3    H181467   2.674   5.729  12.110  0.8600  0.1175 -0.7111
19992TIP3    H281468   2.649   5.584  12.074 -0.0951  0.2341 -0.5469
19993TIP3   OH281469   6.110   6.292  14.709 -0.2741  0.0456  0.0861
19993TIP3    H181470   6.076   6.358  14.648  2.2743  1.0156 -0.4016
19993TIP3    H281471   6.086   6.324  14.796  0.3794  1.3189 -0.1833
19994TIP3   OH281472   0.391   5.873   1.405  0.0770 -0.5057  0.1033
19994TIP3    H181473   0.374   5.947   1.347  0.9799 -0.7869 -0.5466
19994TIP3    H281474   0.345   5.800   1.365 -0.6506 -0.3550  0.6390
19995TIP3   OH281475   5.246   6.068   0.975 -0.6968  0.2606  0.4835
19995TIP3    H181476   5.227   6.133   1.042 -2.1171 -1.3326  1.7251
19995TIP3    H281477   5.192   5.993   0.999  0.6975 -1.3055 -1.0229
19996TIP3   OH281478   4.984   6.712   6.419 -0.1169  0.2349 -0.4645
19996TIP3    H181479   4.898   6.748   6.395  0.2134  1.5009  0.1926
19996TIP3    H281480   5.042   6.788   6.423  1.0073 -0.5798 -0.7148
19997TIP3   OH281481   0.092   2.926   0.757 -0.1708  0.6438  0.6310
19997TIP3    H181482   0.182   2.938   0.787  0.3623  1.1396 -1.0435
19997TIP3    H281483   0.100   2.914   0.662 -2.0298  2.8299  0.1133
19998TIP3   OH281484   2.852   1.763  16.983 -0.3930  0.5904  0.0597
19998TIP3    H181485   2.812   1.807  17.058 -1.7364 -2.0051  0.9737
19998TIP3    H281486   2.942   1.795  16.982 -0.5882  1.3576  2.2323
19999TIP3   OH281487   5.808   0.233  11.506 -0.2118 -0.4904 -0.1588
19999TIP3    H181488   5.897   0.197  11.502 -0.6590 -1.5314 -1.0436
19999TIP3    H281489   5.757   0.166  11.550 -0.9565 -0.7623 -1.3947
20000TIP3   OH281490   4.019   0.918   1.022  0.4282 -0.1693 -0.1889
20000TIP3    H181491   4.045   0.825   1.023 -2.1544 -0.9669  0.9245
20000TIP3    H281492   4.032   0.945   0.931  1.7636 -1.4313 -0.4205
20001TIP3   OH281493   6.346   5.279  16.584  0.9281  0.3884 -0.1225
20001TIP3    H181494   6.285   5.224  16.536  0.7917 -1.5396  2.1034
20001TIP3    H281495   6.291   5.326  16.647  1.4891  0.0121  0.6669
20002TIP3   OH281496   6.318   2.136  11.693  0.4636 -0.1813  0.1207
20002TIP3    H181497   6.336   2.082  11.616  2.7472 -2.1193  1.8612
20002TIP3    H281498   6.401   2.180  11.711  0.5100 -1.0547  2.3457
20003TIP3   OH281499   1.215   1.751  15.994 -0.1755  0.5273  0.1836
20003TIP3    H181500   1.300   1.760  15.951  0.2546 -0.1513  0.8643
20003TIP3    H281501   1.204   1.833  16.042  0.4585  0.3052  0.7162
20004TIP3   OH281502   1.279   6.473   0.866  0.0688 -0.1512  0.1735
20004TIP3    H181503   1.282   6.475   0.770  0.0148 -0.5135  0.1627
20004TIP3    H281504   1.370   6.456   0.892  0.1064  0.0724  0.1919
20005TIP3   OH281505   0.722   0.538  11.752  1.2636  1.2453  0.1612
20005TIP3    H181506   0.743   0.574  11.838  0.0913  3.1039 -0.2630
20005TIP3    H281507   0.626   0.534  11.751  1.2830  0.7489 -0.8680
20006TIP3   OH281508   0.109   2.636   1.263 -0.1420  0.9397  0.1022
20006TIP3    H181509   0.048   2.575   1.306  0.8903 -0.5373 -0.4638
20006TIP3    H281510   0.057   2.676   1.194 -0.4641 -0.4324 -0.4851
20007TIP3   OH281511   5.534   1.453   1.473  0.0901  0.2372  0.3525
20007TIP3    H181512   5.502   1.543   1.486 -0.9475 -0.1636  0.6917
20007TIP3    H281513   5.496   1.427   1.389  2.1638  0.8457 -0.8363
20008TIP3   OH281514   0.692   1.272  16.762 -0.0263  0.0224 -0.1964
20008TIP3    H181515   0.755   1.252  16.693 -0.9570 -0.5731 -0.8926
20008TIP3    H281516   0.652   1.354  16.735 -0.0455  0.0376 -0.1210
20009TIP3   OH281517   2.346   1.786  14.826  0.0353  0.5547  0.0461
20009TIP3    H181518   2.374   1.773  14.735 -0.1304  0.6063 -0.0132
20009TIP3    H281519   2.422   1.763  14.878  1.1272  3.2191 -0.1858
20010TIP3   OH281520   5.900   5.214   3.912  0.5481 -0.3521 -0.2100
20010TIP3    H181521   5.850   5.135   3.935 -1.8402  1.0227 -0.3835
20010TIP3    H281522   5.874   5.233   3.822  2.7905 -0.5370 -0.9466
20011TIP3   OH281523   6.357   1.951   4.129 -0.2406  0.1208  0.4419
20011TIP3    H181524   6.437   1.912   4.165  0.9754  1.0271 -1.1843
20011TIP3    H281525   6.302   1.967   4.206  0.6867 -1.4903  1.4891
20012TIP3   OH281526   5.391   3.113   3.453  0.6775 -0.2888 -0.1553
20012TIP3    H181527   5.457   3.043   3.454  0.8664 -0.1543 -1.3755
20012TIP3    H281528   5.309   3.069   3.475  0.8591 -0.8316 -0.5307
20013TIP3   OH281529   1.578   5.631  12.414 -0.4895  0.0144 -0.5346
20013TIP3    H181530   1.637   5.693  12.372  1.1704 -0.9219  0.3111
20013TIP3    H281531   1.584   5.552  12.360  0.8836 -0.8611  0.8032
20014TIP3   OH281532   3.105   4.553  12.707  0.4130 -0.2411  0.3737
20014TIP3    H181533   3.027   4.508  12.740  0.5881 -1.1317 -0.3958
20014TIP3    H281534   3.129   4.505  12.628  0.4839  1.3523 -0.6181
20015TIP3   OH281535   3.281   3.860  15.686  0.5944 -0.1899 -0.8183
20015TIP3    H181536   3.197   3.848  15.641 -0.5756 -2.1931  1.6479
20015TIP3    H281537   3.328   3.779  15.670 -0.3045 -1.4395  2.2459
20016TIP3   OH281538   0.909   6.108  12.518  0.1063  0.0915  0.4151
20016TIP3    H181539   0.990   6.151  12.490  0.1124  0.4975  1.0380
20016TIP3    H281540   0.855   6.103  12.439  0.6651 -0.0216  0.0338
20017TIP3   OH281541   2.153   0.602  12.317 -0.1445  0.1084  0.2633
20017TIP3    H181542   2.092   0.664  12.358  0.6693  0.7418  0.5509
20017TIP3    H281543   2.207   0.571  12.389 -0.4824 -0.8806  0.1013
20018TIP3   OH281544   3.453   3.266   1.453 -0.0604  0.5602 -0.9611
20018TIP3    H181545   3.419   3.351   1.424 -0.4876  0.6684 -0.1698
20018TIP3    H281546   3.487   3.283   1.541  0.9744  0.1814 -1.2755
20019TIP3   OH281547   0.485   1.612   1.443  0.8523  0.0125  0.0638
20019TIP3    H181548   0.553   1.556   1.405  1.5029  0.1646  0.9637
20019TIP3    H281549   0.406   1.590   1.394  1.3938 -0.6834 -0.5307
20020TIP3   OH281550   6.711   6.526   1.752  0.2339 -0.3470  0.1521
20020TIP3    H181551   6.646   6.560   1.814 -0.4222  0.1017 -0.7586
20020TIP3    H281552   6.659   6.494   1.679  1.0549  0.6631 -0.9082
20021TIP3   OH281553   5.358   5.382   4.916  0.4366  0.1100 -0.6916
20021TIP3    H181554   5.295   5.371   4.988  0.7062 -0.6945 -0.5663
20021TIP3    H281555   5.348   5.473   4.890 -0.2480  0.1987 -0.1727
20022TIP3   OH281556   6.670   6.180   1.985  0.2408  0.0714 -0.4118
20022TIP3    H181557   6.635   6.232   2.058  1.7554  2.3313 -1.1694
20022TIP3    H281558   6.763   6.170   2.006  0.3646 -0.6891 -1.2546
20023TIP3   OH281559   3.387   0.606   1.090 -0.0291  0.0067  0.5086
20023TIP3    H181560   3.439   0.529   1.064  0.5252  0.6981 -0.4619
20023TIP3    H281561   3.441   0.681   1.066 -0.5922  0.7231  1.3946
20024TIP3   OH281562   4.542   6.321   4.865  0.2995 -0.0092  0.2415
20024TIP3    H181563   4.608   6.376   4.822  0.2174 -0.9111 -1.1136
20024TIP3    H281564   4.516   6.370   4.943 -0.8643  2.6416 -1.6436
20025TIP3   OH281565   0.664   5.666  14.751 -0.2242 -0.7469 -0.0928
20025TIP3    H181566   0.703   5.748  14.780 -0.3738 -0.2695 -1.1927
20025TIP3    H281567   0.695   5.655  14.661 -1.0843 -1.3322 -0.3288
20026TIP3   OH281568   5.646   3.562   0.867 -0.1917  0.2148 -0.1294
20026TIP3    H181569   5.642   3.485   0.810 -1.0268  0.0657  0.1241
20026TIP3    H281570   5.611   3.532   0.951 -2.1474  1.2986 -0.5071
20027TIP3   OH281571   0.846   4.252   4.224 -0.1668  0.1200 -0.3507
20027TIP3    H181572   0.906   4.187   4.258  0.6275  1.6307  1.3035
20027TIP3    H281573   0.824   4.307   4.300 -3.5507 -0.2705 -0.9073
20028TIP3   OH281574   1.820   3.177  12.663  0.1362  0.2267 -0.6728
20028TIP3    H181575   1.753   3.238  12.693 -1.3536 -1.6318 -0.0721
20028TIP3    H281576   1.901   3.211  12.702 -1.1204  0.0939  2.3439
20029TIP3   OH281577   3.020   1.733   2.487  0.4772 -0.0526  0.9764
20029TIP3    H181578   3.103   1.782   2.493  1.2762 -0.7351 -2.4753
20029TIP3    H281579   3.038   1.651   2.532  1.8411 -0.3186  0.0102
20030TIP3   OH281580   1.581   4.032  14.526  0.4330 -0.5431  0.2931
20030TIP3    H181581   1.552   4.051  14.615 -0.6288 -0.7239 -0.0057
20030TIP3    H281582   1.667   3.991  14.538  0.3105 -0.5629  1.2375
20031TIP3   OH281583   3.503   6.727   5.847  0.4076  0.2370  0.6417
20031TIP3    H181584   3.576   6.672   5.819  0.5933  1.0653 -0.6189
20031TIP3    H281585   3.542   6.791   5.906  0.6244  0.4047  0.3206
20032TIP3   OH281586   3.630   0.302   2.716 -0.2119  0.8966 -0.7551
20032TIP3    H181587   3.648   0.396   2.706 -0.6119  1.1683  0.8596
20032TIP3    H281588   3.551   0.298   2.770  0.3460 -0.3725  0.0182
20033TIP3   OH281589   0.436   4.000  16.671 -0.4228 -0.0166 -0.2223
20033TIP3    H181590   0.343   3.994  16.648  0.0419 -0.5314 -2.1356
20033TIP3    H281591   0.479   4.022  16.589  0.9491  2.5587  1.0725
20034TIP3   OH281592   3.957   4.680  16.000  0.3719  0.2464 -0.6936
20034TIP3    H181593   3.902   4.629  15.941 -0.2991  1.6085 -1.2867
20034TIP3    H281594   4.045   4.646  15.986 -0.0000 -0.4829 -1.3490
20035TIP3   OH281595   1.335   0.565   0.760 -0.0852 -0.0286  0.3615
20035TIP3    H181596   1.274   0.496   0.787 -2.9615  0.1577 -4.4624
20035TIP3    H281597   1.386   0.525   0.689  1.8088  1.4266  0.8254
20036TIP3   OH281598   6.205   3.233  11.962 -0.2004 -0.2525  0.1553
20036TIP3    H181599   6.253   3.250  12.043  1.3293 -0.4387 -0.6647
20036TIP3    H281600   6.200   3.137  11.956  0.4449 -0.2630 -0.3676
20037TIP3   OH281601   4.462   6.660  10.449 -0.1551 -0.3615  0.1555
20037TIP3    H181602   4.466   6.756  10.456  1.1654 -0.4837  1.5822
20037TIP3    H281603   4.370   6.639  10.464 -0.4613  0.6834 -0.1782
20038TIP3   OH281604   3.365   6.484   5.673  0.2467  0.5458 -0.2693
20038TIP3    H181605   3.343   6.392   5.691  1.9382 -0.0126 -0.8045
20038TIP3    H281606   3.370   6.525   5.760 -1.1591  0.3131 -0.0606
20039TIP3   OH281607   0.853   0.944   4.973  0.0992  0.0691 -0.1034
20039TIP3    H181608   0.861   0.922   5.066 -2.0613  0.9215  0.3585
20039TIP3    H281609   0.876   1.037   4.968  0.4945 -0.0445 -0.4917
20040TIP3   OH281610   3.233   1.019  16.295  0.0502  0.2826  0.2683
20040TIP3    H181611   3.288   0.951  16.256 -0.2892 -0.7519  1.5547
20040TIP3    H281612   3.294   1.089  16.317  0.4688  0.2201 -0.6378
20041TIP3   OH281613   4.930   5.704  14.028  0.1279 -0.0140  0.4409
20041TIP3    H181614   4.950   5.798  14.028 -0.8233  0.2085  1.3073
20041TIP3    H281615   4.836   5.700  14.017 -0.2074 -0.7299  3.0084
20042TIP3   OH281616   4.484   6.696  13.928 -0.1187 -0.3535 -0.4827
20042TIP3    H181617   4.448   6.774  13.970  1.4632 -0.0390  0.3557
20042TIP3    H281618   4.469   6.626  13.992 -0.7044 -0.5704 -0.8451
20043TIP3   OH281619   5.018   6.488   5.784 -0.0714  0.8281 -0.0250
20043TIP3    H181620   5.012   6.430   5.860  0.4066  0.6732 -0.1030
20043TIP3    H281621   5.042   6.573   5.821  1.9238  0.3603 -0.1448
20044TIP3   OH281622   3.883   1.142  16.451 -1.0338  0.1309  0.5072
20044TIP3    H181623   3.816   1.080  16.479 -0.6267 -0.0147  1.1740
20044TIP3    H281624   3.923   1.173  16.532  0.2043 -0.3366  0.0882
20045TIP3   OH281625   6.157   4.120   1.460  0.2214  0.8161  0.0675
20045TIP3    H181626   6.133   4.095   1.549 -1.4349 -0.8957 -0.7709
20045TIP3    H281627   6.177   4.213   1.465  0.6465  0.6439  2.3048
20046TIP3   OH281628   6.224   5.243   2.671  0.0902 -0.4816  0.2049
20046TIP3    H181629   6.218   5.325   2.720 -0.1249  0.0312 -0.6657
20046TIP3    H281630   6.210   5.268   2.580  2.0745 -1.1901 -0.3297
20047TIP3   OH281631   6.096   4.896  12.308  0.5562  0.7150  1.0417
20047TIP3    H181632   6.006   4.923  12.292  0.7487  0.5233 -0.4951
20047TIP3    H281633   6.093   4.800  12.308  1.1898  0.5737 -2.2718
20048TIP3   OH281634   0.579   3.345  11.231 -0.0864  0.3448 -0.3001
20048TIP3    H181635   0.574   3.253  11.207 -0.9288  0.3840 -0.2996
20048TIP3    H281636   0.656   3.378  11.184  0.0108 -0.2732 -0.5786
20049TIP3   OH281637   5.429   5.887  14.861  0.4114  0.7106 -0.0192
20049TIP3    H181638   5.503   5.947  14.853 -0.9360  2.8187  1.9870
20049TIP3    H281639   5.354   5.938  14.830 -0.6977 -0.1571  1.1401
20050TIP3   OH281640   2.160   3.224   0.638 -0.2730  0.3365 -0.0891
20050TIP3    H181641   2.174   3.178   0.721 -2.5514  1.0410  0.7314
20050TIP3    H281642   2.242   3.272   0.625  1.2288 -1.9267  0.2755
20051TIP3   OH281643   0.119   4.839   1.538 -0.2222  0.0755  0.2135
20051TIP3    H181644   0.158   4.916   1.497  0.0437 -0.4410 -0.5249
20051TIP3    H281645   0.044   4.873   1.587 -0.5347  0.7173 -0.6898
20052TIP3   OH281646   0.569   1.173  12.845  0.2376  0.1101  0.1266
20052TIP3    H181647   0.555   1.166  12.940 -0.0566 -0.1530  0.0652
20052TIP3    H281648   0.544   1.263  12.824 -1.5795 -0.3848  0.0003
20053TIP3   OH281649   1.211   2.797   1.578  0.6299 -0.6667  0.8023
20053TIP3    H181650   1.264   2.877   1.582  1.6521 -1.3029  0.5959
20053TIP3    H281651   1.165   2.793   1.661  0.5502  0.1460  0.8015
20054TIP3   OH281652   0.092   2.755  10.605 -0.8435  0.1155  0.5739
20054TIP3    H181653   0.152   2.773  10.678 -0.7449  0.0869  0.5012
20054TIP3    H281654   0.117   2.667  10.576 -0.0765  0.5911 -0.2628
20055TIP3   OH281655   2.506   0.367   3.553 -0.3845 -0.3991 -0.4508
20055TIP3    H181656   2.511   0.323   3.468 -1.2993  0.2670 -0.8712
20055TIP3    H281657   2.428   0.331   3.594 -1.7017  1.4373 -1.2030
20056TIP3   OH281658   1.469   1.825   5.004 -0.0570  0.3555  0.1213
20056TIP3    H181659   1.554   1.781   4.993 -0.2918 -0.6815  2.0612
20056TIP3    H281660   1.488   1.917   4.984  0.9577 -0.2148 -1.8087
20057TIP3   OH281661   0.964   0.748   3.895  0.0170 -0.0052  0.7022
20057TIP3    H181662   0.907   0.688   3.847  0.1380  1.7312 -1.7942
20057TIP3    H281663   1.044   0.754   3.842  0.5563  1.3198  1.5974
20058TIP3   OH281664   5.501   0.625  15.246 -0.4819  1.1009 -0.2180
20058TIP3    H181665   5.432   0.589  15.302 -1.1627  0.8258 -1.2027
20058TIP3    H281666   5.474   0.601  15.157  1.0477  0.7082 -0.6011
20059TIP3   OH281667   4.514   6.489  15.465 -0.4884 -0.2402 -0.3165
20059TIP3    H181668   4.572   6.562  15.487 -0.5980 -0.8193  2.1336
20059TIP3    H281669   4.499   6.498  15.371  2.2096  0.9056 -0.7339
20060TIP3   OH281670   0.815   2.068  11.280 -0.2860  0.1148  0.1534
20060TIP3    H181671   0.773   1.983  11.295  0.1338  0.0353  0.9010
20060TIP3    H281672   0.851   2.093  11.365  0.5868  0.5050 -0.3195
20061TIP3   OH281673   1.848   2.329  15.904  0.3965 -0.0118  0.1533
20061TIP3    H181674   1.816   2.352  15.817  0.4717  0.0954  0.1530
20061TIP3    H281675   1.914   2.395  15.924 -0.8797  1.0407  1.0396
20062TIP3   OH281676   3.841   1.184  11.446  0.2435 -0.4903  0.0721
20062TIP3    H181677   3.899   1.159  11.374  0.9308  1.2643 -0.0347
20062TIP3    H281678   3.798   1.264  11.416  1.4899  1.0146  2.0364
20063TIP3   OH281679   6.554   0.267   3.301  0.6790 -0.2259 -0.1583
20063TIP3    H181680   6.480   0.212   3.279 -0.3304  0.8605  0.3984
20063TIP3    H281681   6.565   0.325   3.226 -0.6140  1.2219  0.7117
20064TIP3   OH281682   5.163   1.085  12.264  0.2634 -0.0080 -0.0192
20064TIP3    H181683   5.198   1.120  12.183 -1.6089  1.3765 -0.2798
20064TIP3    H281684   5.096   1.022  12.237 -1.6239  1.7347  0.3470
20065TIP3   OH281685   4.206   3.513  14.504  0.1106  0.7064 -0.6744
20065TIP3    H181686   4.301   3.508  14.504  0.0693 -1.5679 -1.1651
20065TIP3    H281687   4.178   3.429  14.467 -2.1018 -0.0207  2.2166
20066TIP3   OH281688   1.455   5.990   5.190  0.4993 -0.3189  0.3444
20066TIP3    H181689   1.494   5.905   5.168  2.5397  0.4971  0.6307
20066TIP3    H281690   1.406   6.014   5.111  0.6660 -1.3239 -0.0884
20067TIP3   OH281691   3.779   4.475  15.527  0.5202 -0.1596 -0.5451
20067TIP3    H181692   3.689   4.485  15.560  0.3697 -0.2790 -0.9063
20067TIP3    H281693   3.830   4.539  15.575 -0.0368  0.9564 -1.3888
20068TIP3   OH281694   3.007   1.410  10.497  0.3330  0.6388 -0.1883
20068TIP3    H181695   3.049   1.351  10.560 -0.5640  0.8482  0.6398
20068TIP3    H281696   3.018   1.367  10.412  0.8140 -0.0845  0.2322
20069TIP3   OH281697   4.036   2.995   1.055  0.4563  0.4645  0.0593
20069TIP3    H181698   3.998   3.039   1.130  1.1156  0.2854  0.5074
20069TIP3    H281699   3.961   2.971   1.000 -0.1677 -0.7633  1.3866
20070TIP3   OH281700   3.966   5.243   4.221  0.3831 -0.4097  0.5580
20070TIP3    H181701   4.051   5.282   4.241  1.1988 -1.3123 -0.9277
20070TIP3    H281702   3.903   5.297   4.270  1.6644  1.1727  0.5770
20071TIP3   OH281703   6.156   0.730  13.269 -0.2530  0.8545  0.0511
20071TIP3    H181704   6.211   0.809  13.274 -0.8603  1.2307  0.9996
20071TIP3    H281705   6.067   0.763  13.268 -0.4987  0.1936 -0.0702
20072TIP3   OH281706   3.259   3.891  14.202 -0.4042  0.2897  0.2069
20072TIP3    H181707   3.186   3.829  14.207 -1.0377  1.0671  0.7410
20072TIP3    H281708   3.337   3.836  14.200 -1.0277 -0.6216 -1.8652
20073TIP3   OH281709   5.417   0.273  13.761  0.2573  0.2812  0.5205
20073TIP3    H181710   5.507   0.301  13.743  0.5440 -1.3948 -0.9904
20073TIP3    H281711   5.363   0.343  13.725  0.9668  0.3092 -0.5506
20074TIP3   OH281712   6.258   6.664   0.218 -0.0858  0.2450 -0.0157
20074TIP3    H181713   6.298   6.746   0.190 -2.4626  1.6638  0.5375
20074TIP3    H281714   6.164   6.680   0.216 -0.5802 -1.7116  2.2766
20075TIP3   OH281715   4.487   0.563   1.393  0.5048  0.0453 -0.0496
20075TIP3    H181716   4.434   0.509   1.450  0.7368 -0.4524 -0.2963
20075TIP3    H281717   4.498   0.646   1.440  1.1929 -0.5659  0.8865
20076TIP3   OH281718   5.290   0.339   4.207 -0.2889  0.1536 -0.5464
20076TIP3    H181719   5.232   0.276   4.163 -1.3734  0.8359 -0.1328
20076TIP3    H281720   5.263   0.336   4.299  0.5804  0.2283 -0.2800
20077TIP3   OH281721   3.214   6.395  17.226  0.0419  0.7059  0.2383
20077TIP3    H181722   3.249   6.335  17.291 -0.6670 -0.4690 -0.4408
20077TIP3    H281723   3.226   6.350  17.142 -1.5750  0.9925 -0.1735
20078TIP3   OH281724   4.443   3.871   3.291  0.3487 -1.0202  0.4592
20078TIP3    H181725   4.492   3.805   3.242  1.0715 -0.1297 -0.0581
20078TIP3    H281726   4.432   3.833   3.378  1.5491 -1.4668  0.4409
20079TIP3   OH281727   6.179   4.677  14.507  0.1714 -0.1047  0.0253
20079TIP3    H181728   6.269   4.705  14.496  0.9248 -2.2973  0.1043
20079TIP3    H281729   6.161   4.689  14.600 -0.6832  3.0588 -0.4245
20080TIP3   OH281730   3.251   2.329   2.136  0.5645 -0.0864 -0.1517
20080TIP3    H181731   3.238   2.234   2.137  1.6607 -0.2627  1.2962
20080TIP3    H281732   3.168   2.366   2.165  0.0181 -0.5610 -1.0584
20081TIP3   OH281733   6.276   3.385  15.754  0.2512 -0.3881  0.3976
20081TIP3    H181734   6.344   3.436  15.710  0.4127 -0.6111  0.3833
20081TIP3    H281735   6.195   3.430  15.735  0.5502  0.7455  1.6532
20082TIP3   OH281736   0.284   1.266   2.837 -0.2945 -0.4087 -0.2635
20082TIP3    H181737   0.246   1.319   2.907  2.1140 -0.0850  0.9168
20082TIP3    H281738   0.232   1.185   2.837 -0.3687 -0.4153  1.9197
20083TIP3   OH281739   6.011   1.843   0.120  0.5768  0.0380 -0.0877
20083TIP3    H181740   5.965   1.802   0.047  0.4355  2.2855 -1.3698
20083TIP3    H281741   6.103   1.829   0.102  0.5229 -1.0000  0.3411
20084TIP3   OH281742   3.219   1.714  12.452 -0.0456  0.1629  0.1986
20084TIP3    H181743   3.134   1.715  12.495  0.0099 -0.0548  0.3151
20084TIP3    H281744   3.207   1.765  12.372 -0.1648  0.5328  0.4469
20085TIP3   OH281745   0.234   2.490  16.488  0.3656 -0.2114  0.3679
20085TIP3    H181746   0.152   2.538  16.479 -0.0942 -1.0573 -0.1076
20085TIP3    H281747   0.242   2.475  16.582 -0.1829 -0.3879  0.3930
20086TIP3   OH281748   3.673   2.666  15.515 -0.3335  0.6335  0.1752
20086TIP3    H181749   3.708   2.610  15.446  1.4472  1.2713  0.5146
20086TIP3    H281750   3.599   2.711  15.474 -1.3823 -1.3981 -0.2988
20087TIP3   OH281751   4.233   0.522   1.525  0.1223 -0.3554 -0.8562
20087TIP3    H181752   4.145   0.554   1.502 -0.1347 -0.2961  0.1842
20087TIP3    H281753   4.223   0.428   1.533  0.3731 -0.4572 -1.6692
20088TIP3   OH281754   1.198   5.903   5.800  0.4671 -0.3390 -0.4361
20088TIP3    H181755   1.145   5.856   5.865  0.1332 -0.1418 -0.5600
20088TIP3    H281756   1.266   5.947   5.851 -1.0149  1.5428  0.0710
20089TIP3   OH281757   6.282   5.906   3.402  0.0128 -0.4440  0.3835
20089TIP3    H181758   6.251   5.997   3.404 -0.7673 -0.6473 -0.8970
20089TIP3    H281759   6.377   5.913   3.414  0.4122  0.8510 -2.6159
20090TIP3   OH281760   3.713   4.658   3.869  0.2729  0.2645  0.1528
20090TIP3    H181761   3.681   4.673   3.958  1.4759 -2.9069  1.2823
20090TIP3    H281762   3.634   4.657   3.815 -0.8067 -0.4095  1.6595
20091TIP3   OH281763   4.651   2.332  12.432  0.4382  0.4477  0.0722
20091TIP3    H181764   4.740   2.357  12.456 -0.2106  1.4038  1.6169
20091TIP3    H281765   4.631   2.386  12.356  0.7234  1.1743  0.5090
20092TIP3   OH281766   4.712   4.217   3.410  0.6189  0.3734  0.2173
20092TIP3    H181767   4.661   4.168   3.346 -1.1885  1.0263  1.1077
20092TIP3    H281768   4.678   4.189   3.495  2.2452  0.3202  0.8963
20093TIP3   OH281769   1.096   1.948   2.536 -0.1881  0.8534  0.1292
20093TIP3    H181770   1.058   1.943   2.624  3.2432 -0.5032  1.7249
20093TIP3    H281771   1.098   1.858   2.506 -1.8396  1.3635 -1.7089
20094TIP3   OH281772   1.557   6.303  11.935 -0.0782  0.5432  0.0347
20094TIP3    H181773   1.614   6.361  11.986 -0.2390  0.1118  0.7070
20094TIP3    H281774   1.480   6.290  11.990 -0.0416 -0.3224 -0.1127
20095TIP3   OH281775   0.619   0.216   4.025  0.3328 -0.2931  0.0860
20095TIP3    H181776   0.636   0.156   4.098 -0.6728 -2.2618 -1.1889
20095TIP3    H281777   0.665   0.176   3.951  0.2206  0.9171 -0.6516
20096TIP3   OH281778   1.805   3.965  10.751  0.2008  0.1098  0.1725
20096TIP3    H181779   1.756   3.998  10.827  0.9892 -0.8406  1.1134
20096TIP3    H281780   1.871   3.907  10.788  1.7251  0.9668 -1.1256
20097TIP3   OH281781   2.253   5.406  12.052 -0.5259  0.0008  0.2235
20097TIP3    H181782   2.205   5.423  12.132  0.6474  0.7488  0.7899
20097TIP3    H281783   2.316   5.337  12.076  1.6949  2.0680  0.7731
20098TIP3   OH281784   6.614   1.873  11.721  0.2200  0.2906  0.3728
20098TIP3    H181785   6.614   1.807  11.790 -2.4103  1.4176  1.6122
20098TIP3    H281786   6.560   1.944  11.756 -1.2013  0.9603 -2.8003
20099TIP3   OH281787   5.609   0.086   4.453 -0.1009  0.3055 -0.0849
20099TIP3    H181788   5.587   0.168   4.410  0.0314 -0.3127 -1.3958
20099TIP3    H281789   5.656   0.111   4.533 -1.7895  1.5305  0.5802
20100TIP3   OH281790   1.720   3.449  14.044 -0.6633 -0.2161  0.0745
20100TIP3    H181791   1.811   3.464  14.070 -0.9538  0.0077  0.9643
20100TIP3    H281792   1.688   3.536  14.019 -1.1288  0.0099  1.3783
20101TIP3   OH281793   3.127   6.239   5.607 -0.6901  0.3038  0.4277
20101TIP3    H181794   3.200   6.180   5.623  0.1978  1.2182 -0.1696
20101TIP3    H281795   3.080   6.241   5.691  0.6504  0.6273  1.1968
20102TIP3   OH281796   0.481   4.202   1.524  0.2301 -0.3430 -0.1761
20102TIP3    H181797   0.489   4.297   1.525 -2.6601 -0.0004  1.7208
20102TIP3    H281798   0.417   4.184   1.454  0.6506 -0.9137 -0.4275
20103TIP3   OH281799   2.466   2.834   2.582  0.3813 -0.3170 -0.4064
20103TIP3    H181800   2.412   2.795   2.651  1.2438 -1.9144 -0.5807
20103TIP3    H281801   2.484   2.762   2.521  2.2768  0.2669 -0.6246
20104TIP3   OH281802   4.589   0.911   0.124  0.4415  0.5687 -0.2621
20104TIP3    H181803   4.539   0.960   0.189  0.8942  1.3441 -0.4872
20104TIP3    H281804   4.538   0.831   0.110 -0.6367  1.2545 -0.3483
20105TIP3   OH281805   3.656   2.191  11.874  0.7600  0.0566  0.2126
20105TIP3    H181806   3.676   2.136  11.798  1.8757 -3.3165  2.6682
20105TIP3    H281807   3.571   2.160  11.904 -0.8159  2.9934 -0.8258
20106TIP3   OH281808   6.613   4.655   1.878 -0.1016 -0.1629  0.3856
20106TIP3    H181809   6.622   4.560   1.881  0.2601 -0.2562 -1.8428
20106TIP3    H281810   6.523   4.672   1.906  0.1065 -1.0543  1.6942
20107TIP3   OH281811   5.569   4.576  12.993 -0.7278  0.2081 -0.2581
20107TIP3    H181812   5.603   4.617  13.073 -1.9700  2.0479 -0.6131
20107TIP3    H281813   5.519   4.501  13.024  2.1094 -1.5637  0.3859
20108TIP3   OH281814   4.975   5.831  15.089 -0.0826  0.1387 -0.2143
20108TIP3    H181815   5.063   5.853  15.120  0.9376 -1.9118 -1.4414
20108TIP3    H281816   4.936   5.915  15.068  1.3995  1.1486  0.8180
20109TIP3   OH281817   5.634   4.042   0.253 -0.1895  0.4893 -0.0078
20109TIP3    H181818   5.654   3.988   0.177 -1.2416 -1.8858  1.3014
20109TIP3    H281819   5.551   4.084   0.232 -0.4790 -0.1668 -0.1990
20110TIP3   OH281820   3.504   5.695  15.638  0.3430 -0.8117 -0.2284
20110TIP3    H181821   3.552   5.683  15.555 -0.5382 -0.1048 -0.8655
20110TIP3    H281822   3.472   5.786  15.633 -0.8292 -1.1820  0.2935
20111TIP3   OH281823   0.864   4.081  13.644  0.4884 -0.0761 -0.4454
20111TIP3    H181824   0.772   4.094  13.620  0.4415  0.2754 -0.0949
20111TIP3    H281825   0.905   4.047  13.564 -0.0863 -0.9103 -0.3995
20112TIP3   OH281826   6.325   2.030   0.785 -0.2398 -0.1063 -0.4863
20112TIP3    H181827   6.294   1.973   0.715 -1.2707  0.0242 -0.1425
20112TIP3    H281828   6.331   1.973   0.861 -0.2710  0.0165 -0.3921
20113TIP3   OH281829   5.682   6.636  11.389  0.2605  0.5085 -0.3023
20113TIP3    H181830   5.762   6.587  11.371 -0.0482 -0.8299  1.6332
20113TIP3    H281831   5.667   6.688  11.311  1.3891 -1.4567 -1.9130
20114TIP3   OH281832   3.886   2.501   1.753  0.5961 -0.2461 -0.2274
20114TIP3    H181833   3.918   2.531   1.668 -1.0987  0.9446 -0.5209
20114TIP3    H281834   3.904   2.574   1.813  2.7140 -1.4754  0.7335
20115TIP3   OH281835   4.771   2.870  16.464  0.1045 -0.0350  0.1344
20115TIP3    H181836   4.776   2.925  16.542 -0.4202  0.2194 -0.0094
20115TIP3    H281837   4.848   2.813  16.470  2.0382  2.2864 -0.9560
20116TIP3   OH281838   5.410   5.306  14.684  0.3680  0.3393 -0.3006
20116TIP3    H181839   5.328   5.310  14.734  1.5029 -2.3160  2.0727
20116TIP3    H281840   5.475   5.345  14.743  1.4200 -1.0685 -0.4784
20117TIP3   OH281841   5.366   6.790  13.749  0.7263  0.1278  0.4429
20117TIP3    H181842   5.460   6.772  13.742  0.4325 -0.9359 -1.1446
20117TIP3    H281843   5.360   6.886  13.749  1.7399  0.2203 -0.8269
20118TIP3   OH281844   6.782   6.426   1.052  0.0610  0.3177  0.0908
20118TIP3    H181845   6.703   6.479   1.059 -0.3535 -0.3603  0.8173
20118TIP3    H281846   6.753   6.345   1.010 -0.0521 -0.6736  1.9633
20119TIP3   OH281847   3.440   1.788  12.661 -0.5188  0.3011 -0.1975
20119TIP3    H181848   3.377   1.823  12.723 -2.0661  2.7360 -2.9390
20119TIP3    H281849   3.490   1.864  12.632 -0.3026 -0.6037 -2.3833
20120TIP3   OH281850   2.911   5.509   6.206  0.0462  0.1303  0.0613
20120TIP3    H181851   2.896   5.505   6.111  0.6851  0.8879 -0.0844
20120TIP3    H281852   2.937   5.599   6.222 -0.5066  0.1276  1.0390
20121TIP3   OH281853   2.276   1.104   0.585  0.1721 -0.2698 -0.3047
20121TIP3    H181854   2.338   1.109   0.657 -0.2150  0.9324 -0.0273
20121TIP3    H281855   2.331   1.101   0.506  0.6561  2.4507 -0.1673
20122TIP3   OH281856   4.026   4.639  15.487  0.6726 -0.1677 -0.1031
20122TIP3    H181857   4.082   4.564  15.505 -0.5382 -0.7812  1.3263
20122TIP3    H281858   4.010   4.678  15.573 -0.7318  0.2256 -0.5168
20123TIP3   OH281859   4.937   4.349  14.884 -0.0635 -0.1394  0.3365
20123TIP3    H181860   4.862   4.384  14.835 -0.4021 -0.8810  0.3086
20123TIP3    H281861   4.898   4.309  14.962  0.5138  1.4271  1.4665
20124TIP3   OH281862   1.255   0.744  14.574  0.0217  0.5745 -0.4087
20124TIP3    H181863   1.302   0.827  14.575 -1.2329  1.3070 -0.3376
20124TIP3    H281864   1.264   0.710  14.663  0.2084  0.8230 -0.3329
20125TIP3   OH281865   6.484   5.174   6.237 -0.8262 -0.1161  0.1363
20125TIP3    H181866   6.514   5.155   6.326 -1.0922  1.2211  0.5262
20125TIP3    H281867   6.395   5.208   6.248  0.0592  2.5852 -0.3561
20126TIP3   OH281868   0.101   2.408   3.501 -0.0816  0.0573  0.0503
20126TIP3    H181869   0.133   2.425   3.412  0.4413  0.9990  0.4070
20126TIP3    H281870   0.008   2.387   3.489 -0.4053  1.6778 -0.6016
20127TIP3   OH281871   6.271   2.562   2.752  0.6825 -0.4850  0.2734
20127TIP3    H181872   6.341   2.595   2.697  1.1252 -1.8415 -0.0324
20127TIP3    H281873   6.226   2.497   2.697 -0.5865  0.0771  0.5929
20128TIP3   OH281874   0.846   6.625  12.654 -0.1342  0.5179 -0.3894
20128TIP3    H181875   0.879   6.583  12.575  2.2494  1.9051 -0.2276
20128TIP3    H281876   0.782   6.689  12.622 -0.3859 -0.0216 -1.0080
20129TIP3   OH281877   1.092   5.347   0.143  0.0909 -0.3341  0.3709
20129TIP3    H181878   1.052   5.362   0.057  2.0073 -0.8571 -0.6928
20129TIP3    H281879   1.041   5.399   0.204 -0.3987  1.2909 -1.3396
20130TIP3   OH281880   5.308   5.281   1.104 -0.2419 -0.8367 -0.7300
20130TIP3    H181881   5.333   5.223   1.032  0.6737 -0.6582 -0.5644
20130TIP3    H281882   5.380   5.344   1.111  0.5762 -1.8965  1.4565
20131TIP3   OH281883   0.992   5.859   1.741  0.4703 -0.2022  0.0489
20131TIP3    H181884   0.994   5.779   1.793 -0.8138  0.1798  0.7112
20131TIP3    H281885   0.900   5.872   1.720  0.6591  1.0856 -0.0778
20132TIP3   OH281886   3.406   5.463   4.979 -0.2832  0.6840 -0.1150
20132TIP3    H181887   3.439   5.551   4.999  0.5152  0.4972 -0.5581
20132TIP3    H281888   3.484   5.413   4.956 -0.6972 -0.2112  0.3489
20133TIP3   OH281889   5.606   0.773   2.127 -0.2960 -0.1721  0.4892
20133TIP3    H181890   5.549   0.736   2.059  0.3131  0.4128 -0.3683
20133TIP3    H281891   5.545   0.809   2.192 -0.8849 -1.4035  0.6465
20134TIP3   OH281892   3.136   6.373  13.853  0.4590 -0.3831 -0.3251
20134TIP3    H181893   3.139   6.282  13.824 -2.9589 -0.1025 -1.9471
20134TIP3    H281894   3.052   6.381  13.899  0.3317  2.1156 -0.8741
20135TIP3   OH281895   4.284   1.591  17.058  0.0825 -0.1528  0.2259
20135TIP3    H181896   4.324   1.553  17.136  0.5646  0.3364  0.2184
20135TIP3    H281897   4.306   1.530  16.988  0.4532 -0.1042  0.2996
20136TIP3   OH281898   6.521   1.376   3.818 -0.2075 -0.0773  0.3864
20136TIP3    H181899   6.573   1.444   3.860 -1.3887  1.7478 -0.9763
20136TIP3    H281900   6.576   1.344   3.746 -0.5287  1.1081 -0.4080
20137TIP3   OH281901   1.972   0.287  15.794 -0.0439 -0.0039 -0.0973
20137TIP3    H181902   1.999   0.202  15.829  0.0661 -0.3209 -0.9375
20137TIP3    H281903   2.050   0.320  15.749  0.1257  0.8605  0.7977
20138TIP3   OH281904   1.085   2.701   3.198  0.2109 -0.2778  0.1469
20138TIP3    H181905   1.049   2.760   3.265 -1.0578 -0.7177 -0.1257
20138TIP3    H281906   1.105   2.759   3.124  1.6954  0.2243  0.8989
20139TIP3   OH281907   3.307   1.559   5.732 -0.1540  0.7239 -0.2433
20139TIP3    H181908   3.376   1.528   5.791  0.4022  1.3711 -0.5445
20139TIP3    H281909   3.317   1.654   5.732  0.3450  0.6901 -1.9831
20140TIP3   OH281910   5.744   0.434   4.614  1.0442  0.2047 -0.0079
20140TIP3    H181911   5.704   0.437   4.527  0.5069 -1.3744  0.1527
20140TIP3    H281912   5.676   0.467   4.673 -0.4185 -3.0880  0.3506
20141TIP3   OH281913   2.421   5.463  11.212 -0.2643 -0.1993 -0.5668
20141TIP3    H181914   2.513   5.487  11.218 -0.3997  0.2316 -0.2206
20141TIP3    H281915   2.408   5.445  11.119 -0.1113  0.8745 -0.8073
20142TIP3   OH281916   3.716   1.866   2.785 -0.2540  0.0762 -0.2046
20142TIP3    H181917   3.704   1.779   2.746  0.1474 -0.2834  0.4589
20142TIP3    H281918   3.788   1.854   2.847 -1.5163  0.3874  1.3742
20143TIP3   OH281919   5.417   4.099   6.219  0.5074 -0.5986  0.0008
20143TIP3    H181920   5.461   4.172   6.262  0.1966 -0.7863  0.6690
20143TIP3    H281921   5.370   4.138   6.146 -0.4044  0.0198  0.8945
20144TIP3   OH281922   4.070   2.569  15.527  0.2722 -0.2048 -0.0128
20144TIP3    H181923   4.047   2.553  15.435 -0.2187 -0.8330  0.2084
20144TIP3    H281924   4.053   2.662  15.540  1.3618  0.1395 -0.8346
20145TIP3   OH281925   4.366   2.945   1.745 -0.1608  0.6993  0.2769
20145TIP3    H181926   4.437   2.901   1.698 -0.2350  1.3816 -0.4971
20145TIP3    H281927   4.314   2.985   1.676 -0.1237  1.9565  0.9586
20146TIP3   OH281928   3.340   5.644  15.135 -0.6963  0.2512  0.1310
20146TIP3    H181929   3.346   5.724  15.188  2.0982  0.2309  0.0259
20146TIP3    H281930   3.368   5.673  15.048  0.6351 -0.8380  0.1633
20147TIP3   OH281931   1.151   4.818  14.916 -0.4521 -0.1185  0.3254
20147TIP3    H181932   1.096   4.871  14.973 -1.0070 -0.2932 -0.0366
20147TIP3    H281933   1.139   4.729  14.947 -0.8374 -0.2260 -0.1282
20148TIP3   OH281934   4.318   3.377   6.293  0.3392  0.1111  0.1566
20148TIP3    H181935   4.327   3.286   6.266  2.9485 -0.1720  1.6307
20148TIP3    H281936   4.284   3.373   6.382  0.2264  0.5869  0.1405
20149TIP3   OH281937   0.199   4.120   2.768 -0.3273  0.1490  0.0842
20149TIP3    H181938   0.206   4.089   2.858 -1.7180 -0.2370  0.0737
20149TIP3    H281939   0.198   4.040   2.715 -0.1352  0.3533 -0.2362
20150TIP3   OH281940   1.307   0.659   4.344  0.7609 -0.5641 -0.0489
20150TIP3    H181941   1.265   0.666   4.259 -0.3109 -1.6355  0.3627
20150TIP3    H281942   1.400   0.650   4.325  0.5807 -0.2904 -1.0782
20151TIP3   OH281943   6.295   0.495   2.128 -0.3386 -0.5779 -0.0533
20151TIP3    H181944   6.279   0.452   2.044  0.0284  0.9335 -0.9281
20151TIP3    H281945   6.281   0.426   2.193 -2.8738 -1.2391 -1.1927
20152TIP3   OH281946   5.819   4.168   6.513 -0.2479 -0.0058  0.5092
20152TIP3    H181947   5.810   4.260   6.488 -0.4014  0.8537  3.3881
20152TIP3    H281948   5.907   4.162   6.550 -0.7260 -0.6810  1.5858
20153TIP3   OH281949   5.215   6.666  11.392  0.3556 -0.6076 -0.2966
20153TIP3    H181950   5.150   6.629  11.332 -1.4058  3.0280 -0.9098
20153TIP3    H281951   5.164   6.698  11.466  1.7508  0.2686  0.3345
20154TIP3   OH281952   1.000   5.583   2.381 -0.2525 -0.0723 -0.1825
20154TIP3    H181953   0.995   5.676   2.402 -0.4180 -0.3098  0.9235
20154TIP3    H281954   0.909   5.555   2.372 -0.2766 -0.3806  0.8048
20155TIP3   OH281955   4.262   6.675  13.258 -0.0431 -0.1651 -0.3359
20155TIP3    H181956   4.279   6.658  13.351  1.2426 -1.5073 -0.7745
20155TIP3    H281957   4.281   6.768  13.247  1.5935 -0.3660  0.4108
20156TIP3   OH281958   5.957   4.183   3.029 -0.2026  0.3441  0.9527
20156TIP3    H181959   5.944   4.141   3.114 -0.1439 -0.7830  0.4213
20156TIP3    H281960   5.924   4.120   2.965  0.0819  1.0202  0.1107
20157TIP3   OH281961   3.830   5.876   5.734 -0.1463  0.0236  0.6320
20157TIP3    H181962   3.821   5.898   5.827  0.0306  1.8490  0.2546
20157TIP3    H281963   3.924   5.870   5.719 -0.0799  1.5965  0.2145
20158TIP3   OH281964   5.722   5.965   5.126  0.1905  0.0201 -0.0035
20158TIP3    H181965   5.702   6.036   5.065  1.2883  0.4409  0.1047
20158TIP3    H281966   5.785   6.003   5.187  0.6248 -0.9775  0.1861
20159TIP3   OH281967   6.748   6.487   4.261  0.2582  0.0606 -0.4634
20159TIP3    H181968   6.840   6.502   4.284  1.0004 -1.7340 -1.9819
20159TIP3    H281969   6.752   6.437   4.179 -2.0537 -1.1466  0.0870
20160TIP3   OH281970   3.481   1.168  16.295 -0.2570 -0.4150 -0.1262
20160TIP3    H181971   3.549   1.124  16.345 -0.3819  0.4602  0.8467
20160TIP3    H281972   3.463   1.248  16.344 -0.1375  0.6635 -1.7575
20161TIP3   OH281973   5.713   3.407   2.593 -0.1273 -0.0814 -0.4166
20161TIP3    H181974   5.662   3.448   2.524 -0.9804 -0.4178 -0.0082
20161TIP3    H281975   5.664   3.327   2.613 -0.0909  0.1907  0.8119
20162TIP3   OH281976   3.909   1.778  15.565  0.4663 -0.3802 -0.1567
20162TIP3    H181977   3.918   1.794  15.659 -1.7135  1.4855 -0.1842
20162TIP3    H281978   3.878   1.688  15.559  0.4951 -0.4801  0.9330
20163TIP3   OH281979   3.690   5.115  15.888 -0.1051  0.4885  0.4578
20163TIP3    H181980   3.720   5.042  15.942 -0.6705 -0.7526 -0.8411
20163TIP3    H281981   3.735   5.103  15.804 -1.2543  0.8384 -0.2322
20164TIP3   OH281982   0.093   2.024  16.895 -0.4928  0.2581  0.1383
20164TIP3    H181983   0.061   2.047  16.983 -0.5376  3.7782 -0.6481
20164TIP3    H281984   0.014   2.015  16.842 -0.4393 -1.1318  0.2705
20165TIP3   OH281985   5.465   5.647  15.740 -0.2423  0.3624 -0.3095
20165TIP3    H181986   5.484   5.647  15.834 -1.6762 -1.3562  0.0160
20165TIP3    H281987   5.404   5.575  15.727  0.4305  0.1342 -2.6846
20166TIP3   OH281988   1.329   4.745   5.956 -0.2733 -0.0311 -0.2450
20166TIP3    H181989   1.280   4.699   5.887 -1.0679 -0.6072  0.6716
20166TIP3    H281990   1.272   4.740   6.033  0.9254 -0.0831  0.6709
20167TIP3   OH281991   5.739   0.761  12.907  0.5389  0.0283  0.2426
20167TIP3    H181992   5.685   0.834  12.935 -1.4697 -0.3844 -2.1603
20167TIP3    H281993   5.677   0.689  12.892  1.7389 -0.6560 -2.0461
20168TIP3   OH281994   6.638   3.906   0.429  0.1889  0.0573  0.1180
20168TIP3    H181995   6.595   3.926   0.512 -1.5157  0.1653 -0.7541
20168TIP3    H281996   6.622   3.812   0.417  2.7079 -0.5906  1.1286
20169TIP3   OH281997   6.306   2.020   2.099  0.0404  0.1295  0.2443
20169TIP3    H181998   6.214   2.045   2.096 -0.3276 -1.1211  0.4415
20169TIP3    H281999   6.328   1.999   2.009  0.2169  0.7319  0.1496
20170TIP3   OH282000   3.764   2.163  13.022  0.1142 -0.1979 -0.1674
20170TIP3    H182001   3.743   2.249  13.061  2.9004  0.9301 -0.9263
20170TIP3    H282002   3.854   2.146  13.049  0.2400 -2.0488 -1.5720
20171TIP3   OH282003   1.279   6.125  13.172 -0.0386 -0.1596  0.9210
20171TIP3    H182004   1.207   6.097  13.229 -0.6446 -1.1035 -0.2593
20171TIP3    H282005   1.283   6.058  13.104  0.3404  1.1648 -0.4190
20172TIP3   OH282006   2.027   1.649  15.616 -0.0621  0.4652 -0.0413
20172TIP3    H182007   2.051   1.700  15.694  0.4134 -2.0472  1.5942
20172TIP3    H282008   1.957   1.590  15.647 -3.0174  2.2769 -2.7091
20173TIP3   OH282009   4.846   1.625   1.470 -0.0252 -0.1967 -0.0065
20173TIP3    H182010   4.849   1.533   1.499  0.9038  0.4703  2.2836
20173TIP3    H282011   4.757   1.637   1.438 -0.3150 -1.7780  0.1139
20174TIP3   OH282012   2.345   6.741   5.949 -0.1737 -0.0343  0.0993
20174TIP3    H182013   2.314   6.823   5.911 -1.5829  0.0508  1.3294
20174TIP3    H282014   2.284   6.724   6.020  2.1448 -0.3133  2.1606
20175TIP3   OH282015   6.524   0.868  16.987  0.0646  0.2663 -0.0966
20175TIP3    H182016   6.585   0.814  17.036 -1.0067  0.2171  1.2678
20175TIP3    H282017   6.561   0.957  16.992  0.2953  0.1517  0.2476
20176TIP3   OH282018   1.388   2.732  12.422 -0.5287 -0.7168 -0.5306
20176TIP3    H182019   1.298   2.760  12.439  0.6668  2.4813  1.3103
20176TIP3    H282020   1.412   2.680  12.499 -0.0811  0.4800  0.1580
20177TIP3   OH282021   0.956   6.453  11.237 -0.2148 -0.4423  0.3910
20177TIP3    H182022   0.989   6.520  11.177 -3.2781  0.5926 -0.2993
20177TIP3    H282023   0.994   6.371  11.206 -0.2559  0.3221 -1.7898
20178TIP3   OH282024   1.684   1.784  14.193 -0.3516 -0.5308 -0.0028
20178TIP3    H182025   1.615   1.797  14.129  0.3014  1.6118 -0.3641
20178TIP3    H282026   1.751   1.734  14.147  0.3949  1.5411 -1.2705
20179TIP3   OH282027   3.145   3.443  13.341 -0.3412 -0.0108 -0.0084
20179TIP3    H182028   3.130   3.435  13.435 -0.1568 -1.0170 -0.0448
20179TIP3    H282029   3.186   3.529  13.330 -0.6327  0.2362  0.7907
20180TIP3   OH282030   0.781   2.947   3.766  0.6494 -0.2083  0.1240
20180TIP3    H182031   0.707   3.006   3.752  0.2701 -0.9254 -1.1101
20180TIP3    H282032   0.758   2.897   3.845 -0.1085 -0.2927 -0.1420
20181TIP3   OH282033   0.257   6.499  14.397  0.2033  0.7183  0.1426
20181TIP3    H182034   0.289   6.450  14.321  1.3885  0.8591  0.5406
20181TIP3    H282035   0.267   6.591  14.373 -0.6280  0.7765 -0.0184
20182TIP3   OH282036   0.411   6.751  11.418  0.0609 -0.1275  0.2880
20182TIP3    H182037   0.437   6.730  11.507 -0.7330  1.2015  0.8592
20182TIP3    H282038   0.460   6.829  11.396  1.2042 -1.1440 -0.9371
20183TIP3   OH282039   5.221   2.969  16.040 -0.9139 -0.3717 -0.1726
20183TIP3    H182040   5.189   3.013  15.962  0.2719  2.1449  0.6766
20183TIP3    H282041   5.294   2.916  16.010 -0.8587  0.0852 -0.8641
20184TIP3   OH282042   0.314   4.709  15.255  0.7003 -0.2541 -0.6506
20184TIP3    H182043   0.228   4.669  15.267 -0.6231  2.7263  0.8470
20184TIP3    H282044   0.355   4.705  15.341  0.7194  1.1658 -0.5808
20185TIP3   OH282045   4.731   2.972  16.852  0.0294 -0.3842 -0.5036
20185TIP3    H182046   4.637   2.990  16.851  0.5768  3.3672  0.7995
20185TIP3    H282047   4.744   2.916  16.928 -1.0313 -0.0887 -0.0833
20186TIP3   OH282048   1.089   5.271   3.338 -0.8200  0.1892 -0.1201
20186TIP3    H182049   1.081   5.187   3.384  2.0419 -0.0384  0.1992
20186TIP3    H282050   1.039   5.333   3.392  0.0246 -0.6468  1.7330
20187TIP3   OH282051   2.522   3.191   6.347  0.0030 -0.1112  0.0696
20187TIP3    H182052   2.484   3.178   6.434 -0.8826  0.1878 -0.2616
20187TIP3    H282053   2.593   3.128   6.342 -2.3038 -2.8472 -0.4236
20188TIP3   OH282054   6.714   3.199   2.983  0.1021 -0.1375  0.0454
20188TIP3    H182055   6.732   3.113   2.946 -1.1313 -1.5802  2.5141
20188TIP3    H282056   6.659   3.243   2.917 -0.4134 -1.7942 -0.6780
20189TIP3   OH282057   3.455   2.775   5.551 -0.7217 -0.3891  0.2721
20189TIP3    H182058   3.434   2.800   5.641 -0.1963  0.5622  0.1384
20189TIP3    H282059   3.399   2.831   5.497 -0.5881 -0.5246 -0.0102
20190TIP3   OH282060   5.059   2.670  12.989 -0.1990 -0.0467 -0.4597
20190TIP3    H182061   5.120   2.630  12.927  0.0657 -1.6135  0.7369
20190TIP3    H282062   5.113   2.695  13.064 -0.7187  0.4747 -0.2496
20191TIP3   OH282063   1.971   5.298  16.861  0.2494 -0.0708 -0.0422
20191TIP3    H182064   1.908   5.308  16.790  0.7055  0.6052 -0.3577
20191TIP3    H282065   1.917   5.292  16.940 -0.2565 -0.7807 -0.4278
20192TIP3   OH282066   4.040   1.488  14.130  0.2130 -0.4401 -0.2022
20192TIP3    H182067   4.125   1.518  14.099 -0.1382  1.4519  0.5252
20192TIP3    H282068   4.055   1.462  14.221 -0.1080  0.7017  0.2005
20193TIP3   OH282069   2.337   6.565   2.727  0.4111  0.2164 -0.0814
20193TIP3    H182070   2.267   6.630   2.721 -1.5048 -1.5510  1.6083
20193TIP3    H282071   2.397   6.600   2.792  1.0608  1.6677 -1.4072
20194TIP3   OH282072   2.256   3.621  16.418 -0.5318  0.2495 -0.1805
20194TIP3    H182073   2.351   3.631  16.417 -0.5867  1.1396  0.7904
20194TIP3    H282074   2.238   3.553  16.353  0.7750 -0.0459 -0.2726
20195TIP3   OH282075   4.821   1.127  12.560 -0.3238 -0.3953 -0.7603
20195TIP3    H182076   4.796   1.212  12.524 -3.4626 -1.4890 -1.5226
20195TIP3    H282077   4.754   1.108  12.626  0.4701 -2.1431 -0.3970
20196TIP3   OH282078   0.440   4.041  12.593  0.1102 -0.2416 -0.8019
20196TIP3    H182079   0.356   4.075  12.625  0.5705  1.2033 -1.0982
20196TIP3    H282080   0.452   3.959  12.642  0.2581  1.3148  1.9580
20197TIP3   OH282081   1.334   5.089  13.319  0.6189  0.0080  0.2091
20197TIP3    H182082   1.427   5.103  13.333  0.1116  2.1226  1.8681
20197TIP3    H282083   1.314   5.008  13.366  1.5185 -0.2555  0.1497
20198TIP3   OH282084   3.515   6.728  13.746 -0.3748  0.2918 -0.0600
20198TIP3    H182085   3.474   6.643  13.763 -1.2576  0.5774 -0.7301
20198TIP3    H282086   3.458   6.792  13.789  0.0549  0.5913  0.0784
20199TIP3   OH282087   2.898   2.764  17.308 -0.2510 -0.3587  0.1900
20199TIP3    H182088   2.992   2.778  17.318 -0.4681  0.8173  0.7766
20199TIP3    H282089   2.868   2.739  17.395 -0.6988  0.7816  0.3898
20200TIP3   OH282090   3.538   6.355  12.927 -0.2441 -0.3099 -0.3659
20200TIP3    H182091   3.568   6.360  13.018 -0.9727  1.4644 -0.1619
20200TIP3    H282092   3.461   6.413  12.925  0.5334  0.7388 -2.3928
20201TIP3   OH282093   5.729   2.080   4.265  0.0715 -0.2089  0.8950
20201TIP3    H182094   5.803   2.107   4.319  0.8494 -2.2909  0.9872
20201TIP3    H282095   5.694   2.002   4.309 -1.0764 -0.2737 -0.0841
20202TIP3   OH282096   2.138   2.424   2.420 -0.0745 -0.3753  0.8888
20202TIP3    H182097   2.219   2.411   2.370 -1.1943 -0.5971 -0.9695
20202TIP3    H282098   2.122   2.339   2.461  0.5522 -0.3648  1.1702
20203TIP3   OH282099   6.251   2.231  16.934  0.1518  0.9710  0.2670
20203TIP3    H182100   6.328   2.236  16.878 -0.2411 -0.7689 -0.4953
20203TIP3    H282101   6.286   2.229  17.023  1.1100 -0.9621 -0.0935
20204TIP3   OH282102   5.154   6.782   2.333 -0.2185  0.2967 -0.2690
20204TIP3    H182103   5.169   6.825   2.417 -0.1169  1.1931 -0.7376
20204TIP3    H282104   5.197   6.838   2.269 -1.0815  0.1257 -1.0289
20205TIP3   OH282105   4.505   5.229  16.309  0.2488 -0.3207  0.3447
20205TIP3    H182106   4.431   5.169  16.307  0.4934 -0.6333  0.5800
20205TIP3    H282107   4.467   5.314  16.327 -0.0883 -0.4239  0.1229
20206TIP3   OH282108   1.053   5.289  11.369 -0.7467 -0.4957 -0.0199
20206TIP3    H182109   0.976   5.345  11.381 -0.9716 -1.3404  3.3804
20206TIP3    H282110   1.038   5.215  11.428  1.7185 -1.7807 -0.8837
20207TIP3   OH282111   5.743   0.796   3.674  0.3921 -0.4579 -0.1798
20207TIP3    H182112   5.748   0.809   3.769  0.6888 -0.8718 -0.1368
20207TIP3    H282113   5.679   0.726   3.663 -0.0560 -0.0335 -0.3221
20208TIP3   OH282114   5.194   5.789   1.008  0.2157 -0.4109 -0.0019
20208TIP3    H182115   5.261   5.723   1.024  0.8905 -0.2872 -2.0031
20208TIP3    H282116   5.122   5.764   1.066  2.1384 -0.1892  2.6744
20209TIP3   OH282117   3.178   3.207   4.359  0.3768 -0.8277  0.1045
20209TIP3    H182118   3.177   3.112   4.366 -1.4871 -0.7667  1.3724
20209TIP3    H282119   3.136   3.238   4.439  0.3337  1.0448 -0.5742
20210TIP3   OH282120   2.382   2.219  15.651 -1.1964  0.2319  0.8858
20210TIP3    H182121   2.324   2.254  15.583  0.3202  0.7400 -0.2146
20210TIP3    H282122   2.407   2.132  15.618  0.9351  1.1603 -0.1894
20211TIP3   OH282123   2.590   0.626  16.470 -0.2955 -0.5971 -0.0093
20211TIP3    H182124   2.646   0.697  16.439 -1.2690  0.3690  0.4038
20211TIP3    H282125   2.518   0.670  16.516 -0.7375 -1.8596  0.5490
20212TIP3   OH282126   4.729   3.214   3.308  0.0143 -0.4441  0.3318
20212TIP3    H182127   4.728   3.129   3.352 -2.1987  0.1284  1.5695
20212TIP3    H282128   4.747   3.194   3.217 -0.2941 -2.2390  0.6300
20213TIP3   OH282129   6.113   0.904  15.340  0.2025  0.2104 -0.3700
20213TIP3    H182130   6.177   0.919  15.410  0.5537  1.5278 -0.9536
20213TIP3    H282131   6.030   0.930  15.378 -0.2352 -2.4546  0.7401
20214TIP3   OH282132   3.069   0.982  16.049  0.0433  0.3200 -0.3304
20214TIP3    H182133   3.111   0.958  16.131 -1.2774 -3.5271 -0.5936
20214TIP3    H282134   3.093   0.912  15.988 -1.7811  1.2321 -2.2162
20215TIP3   OH282135   1.536   1.139  12.375 -0.4961 -0.1284 -0.2660
20215TIP3    H182136   1.517   1.058  12.328 -1.7781 -0.0088  0.0252
20215TIP3    H282137   1.571   1.198  12.308 -2.9929  0.3053 -1.2782
20216TIP3   OH282138   4.769   2.130   6.166 -0.3969  0.0443  0.3460
20216TIP3    H182139   4.737   2.219   6.177 -0.8303  0.0406 -0.7011
20216TIP3    H282140   4.754   2.111   6.073  2.3532 -0.0954 -0.1551
20217TIP3   OH282141   0.566   2.377  10.778  0.1307  0.1469  0.1004
20217TIP3    H182142   0.653   2.358  10.812  1.0004  1.7702 -1.1014
20217TIP3    H282143   0.573   2.464  10.739 -1.8878  0.0922 -0.5308
20218TIP3   OH282144   4.736   3.748  14.032 -0.1214  0.2714  0.2474
20218TIP3    H182145   4.812   3.774  13.980  1.3839  0.8973  2.6077
20218TIP3    H282146   4.666   3.808  14.006  0.1321 -0.3417 -1.9966
20219TIP3   OH282147   4.652   2.632  13.805  0.0250 -0.2608 -0.1486
20219TIP3    H182148   4.669   2.674  13.889  2.5663 -2.8303  0.8030
20219TIP3    H282149   4.565   2.594  13.813 -0.0331  0.1111  1.1040
20220TIP3   OH282150   2.516   0.792  13.757  0.0917  0.0800 -0.2186
20220TIP3    H182151   2.587   0.816  13.697 -0.7723 -0.1333 -1.3651
20220TIP3    H282152   2.445   0.852  13.735 -0.5331 -0.5618  0.0139
20221TIP3   OH282153   5.085   1.775  12.726 -0.1813 -0.2133  0.2369
20221TIP3    H182154   5.100   1.703  12.665  0.0240  0.5811 -0.6689
20221TIP3    H282155   5.028   1.737  12.793  2.2007 -2.0303  1.3731
20222TIP3   OH282156   2.086   4.704  14.064 -0.0953 -0.0515  0.1024
20222TIP3    H182157   1.995   4.697  14.093 -0.2048  1.4674  0.2224
20222TIP3    H282158   2.100   4.798  14.053  1.2089 -0.3230 -0.7417
20223TIP3   OH282159   5.782   3.968  11.737 -0.2102 -0.1696 -0.9816
20223TIP3    H182160   5.829   3.885  11.739  0.8381  0.4234  0.6464
20223TIP3    H282161   5.807   4.008  11.654  1.2509 -0.4002 -0.6787
20224TIP3   OH282162   6.054   6.205  11.545  0.4132 -0.3111  0.3212
20224TIP3    H182163   6.147   6.208  11.524  0.8770 -1.9456  1.9144
20224TIP3    H282164   6.051   6.182  11.638 -1.5882 -2.2609 -0.1389
20225TIP3   OH282165   3.539   6.341  14.743  0.2664  0.7624  0.5008
20225TIP3    H182166   3.580   6.311  14.824  1.6764  1.4103  0.0536
20225TIP3    H282167   3.598   6.312  14.674 -0.3440  1.1952 -0.2193
20226TIP3   OH282168   0.530   5.939  14.614  0.2092 -0.1499  0.3771
20226TIP3    H182169   0.540   5.997  14.538 -2.8030 -0.0921 -0.1108
20226TIP3    H282170   0.570   5.856  14.585 -0.0968  0.1341 -0.9408
20227TIP3   OH282171   1.764   6.008   4.666 -0.4797  0.1974 -0.7832
20227TIP3    H182172   1.851   6.044   4.645  0.0039 -0.9161 -0.7642
20227TIP3    H282173   1.720   6.001   4.581  0.2157 -1.1102 -1.0712
20228TIP3   OH282174   5.612   4.603   3.727  0.0473 -0.1485 -0.1870
20228TIP3    H182175   5.680   4.603   3.794 -0.2557 -0.8639  0.1315
20228TIP3    H282176   5.556   4.677   3.749 -1.1861 -1.5197  1.5516
20229TIP3   OH282177   2.673   1.034  14.366  0.2872 -0.6646 -0.3917
20229TIP3    H182178   2.631   1.073  14.289 -0.5845  0.5930  0.6766
20229TIP3    H282179   2.757   1.081  14.373 -0.4011  0.5053  0.4092
20230TIP3   OH282180   2.055   1.045   4.147  0.3192  0.4876 -0.2773
20230TIP3    H182181   2.063   1.115   4.082 -2.2121  1.7376  0.6215
20230TIP3    H282182   2.099   1.079   4.225  0.3112  0.4765 -0.2683
20231TIP3   OH282183   6.668   4.056  11.925  0.0629 -0.2939  0.2484
20231TIP3    H182184   6.609   4.128  11.901 -1.1970 -0.8946  1.3386
20231TIP3    H282185   6.636   4.028  12.011  2.1493 -0.4839  1.0026
20232TIP3   OH282186   1.912   5.057  14.577 -0.4267  0.1369 -0.1036
20232TIP3    H182187   1.821   5.087  14.579  0.1094  2.2352 -2.5306
20232TIP3    H282188   1.929   5.039  14.484  1.5543 -0.5975  0.3542
20233TIP3   OH282189   6.318   3.111   6.124 -0.7999  0.3617  0.4521
20233TIP3    H182190   6.242   3.057   6.144 -0.4193 -0.8245 -1.1100
20233TIP3    H282191   6.294   3.158   6.045 -0.5378  1.3505  0.9383
20234TIP3   OH282192   1.523   3.312  11.509 -0.3812  0.2845  0.2671
20234TIP3    H182193   1.478   3.232  11.481 -1.0074  0.4732  0.6942
20234TIP3    H282194   1.579   3.335  11.435 -1.1204  0.1333 -0.3639
20235TIP3   OH282195   4.658   3.767  12.963 -0.2450  0.5626  0.1875
20235TIP3    H182196   4.580   3.751  13.015 -1.1298 -0.3416 -1.3537
20235TIP3    H282197   4.625   3.809  12.883  1.2047  3.1949  0.8395
20236TIP3   OH282198   5.525   6.725  14.068  0.1225 -0.3325  0.3850
20236TIP3    H182199   5.577   6.657  14.025  1.4793  0.7373  0.2882
20236TIP3    H282200   5.508   6.789  13.999  0.5895  0.4191  0.9587
20237TIP3   OH282201   3.760   3.987  10.808 -0.3520  0.0231 -0.1146
20237TIP3    H182202   3.684   3.966  10.863 -0.5145  1.2227  0.1595
20237TIP3    H282203   3.812   3.907  10.808 -0.9372 -0.3863  0.8323
20238TIP3   OH282204   0.335   1.366   1.162  0.2088  0.0195  0.5868
20238TIP3    H182205   0.319   1.461   1.162  2.2111  0.4584  2.6152
20238TIP3    H282206   0.423   1.357   1.126 -0.1757 -1.1582 -0.0947
20239TIP3   OH282207   3.667   2.030  14.174 -0.0374  0.2121 -0.3998
20239TIP3    H182208   3.742   2.088  14.161 -0.1775  0.1797 -1.4295
20239TIP3    H282209   3.609   2.049  14.100 -1.1099  0.3325  0.4618
20240TIP3   OH282210   0.917   5.211  15.231 -0.2758  0.4536 -0.1204
20240TIP3    H182211   1.011   5.209  15.250 -0.6594  1.4883  2.3031
20240TIP3    H282212   0.903   5.295  15.187 -0.1421  0.6137  0.1368
20241TIP3   OH282213   0.583   3.781   1.946  0.5568 -0.5325  0.0384
20241TIP3    H182214   0.513   3.844   1.963  1.0146 -0.5568  2.3650
20241TIP3    H282215   0.551   3.699   1.981  0.2583 -1.4966 -2.3356
20242LIG      S82216   3.252   3.343  17.114 -0.2228 -0.2121  0.3229
20242LIG     F182217   3.166   3.760  15.973  0.4616 -0.8618  0.0120
20242LIG     F282218   3.366   3.935  16.040  0.1018 -0.1140 -0.0682
20242LIG     N182219   3.362   3.432  16.818  0.9511 -0.7929  0.0950
20242LIG     N282220   3.393   3.311  16.043 -0.2249 -0.0878 -0.5655
20242LIG     C182221   3.408   3.445  16.674 -0.0045  0.6345  0.2975
20242LIG     C282222   3.441   3.345  16.903 -0.1392  0.1560  0.4371
20242LIG     C382223   3.218   3.416  16.836  0.1956  0.2297 -0.3458
20242LIG     C482224   3.382   3.310  16.610  0.3060 -0.0206  0.0723
20242LIG     C582225   3.414   3.378  17.054  0.6063 -1.0492 -0.7421
20242LIG     C682226   3.166   3.445  16.982  0.3707 -0.2417 -0.0062
20242LIG     C782227   3.383   3.319  16.462  0.4715  0.4568  0.9601
20242LIG     C882228   3.481   3.395  15.956 -0.0343 -0.6518  0.8333
20242LIG     C982229   3.506   3.310  16.393 -0.3842 -0.5088  0.0302
20242LIG    C1082230   3.263   3.343  16.387 -0.2557 -0.4190  0.2338
20242LIG    C1182231   3.393   3.334  16.183 -0.9717 -0.7968 -0.0859
20242LIG    C1282232   3.513   3.317  16.253 -0.0426  0.1172  0.0895
20242LIG    C1382233   3.271   3.332  16.248  0.1754 -0.1433 -0.1513
20242LIG    C1482234   3.453   3.538  15.973 -0.4219  0.4894 -1.0016
20242LIG    C1582235   3.453   3.361  15.812 -0.4606  0.3688  0.1384
20242LIG    C1682236   3.326   3.584  15.965 -0.0486 -0.2459 -0.0342
20242LIG    C1782237   3.552   3.628  16.016 -0.1695  0.1682  0.3753
20242LIG    C1882238   3.294   3.720  15.985 -0.3630 -0.1263  0.0404
20242LIG    C1982239   3.528   3.764  16.035 -0.6294 -0.0717  0.1636
20242LIG    C2082240   3.395   3.808  16.020  0.6170  0.2517 -0.6079
20242LIG     H182241   3.518   3.459  16.682  0.3909 -2.1365  0.6560
20242LIG     H282242   3.359   3.536  16.632 -0.0175 -0.8792 -3.3918
20242LIG     H382243   3.550   3.357  16.885  0.0425 -1.0101  0.6863
20242LIG     H482244   3.418   3.241  16.874 -1.9792  0.6480  0.0313
20242LIG     H582245   3.184   3.312  16.816  1.3778 -0.1373 -0.5163
20242LIG     H682246   3.165   3.489  16.772 -1.0302 -1.7397 -1.6744
20242LIG     H782247   3.283   3.266  16.637 -0.1193  1.2230  0.5970
20242LIG     H882248   3.461   3.241  16.647 -2.6850 -3.5535  0.5571
20242LIG     H982249   3.488   3.309  17.102  0.9372  0.8501  1.6574
20242LIG    H1082250   3.439   3.482  17.084 -2.4830 -0.2517 -0.5860
20242LIG    H1182251   3.187   3.551  17.007 -1.7449 -0.2785  2.2904
20242LIG    H1282252   3.057   3.435  16.996  0.3730 -0.2685 -0.0084
20242LIG    H1382253   3.586   3.364  15.976  0.6557  0.3611 -0.9661
20242LIG    H1482254   3.604   3.308  16.440  0.3943 -0.6668 -1.5450
20242LIG    H1582255   3.161   3.354  16.422 -0.4799 -2.3222  0.2866
20242LIG    H1682256   3.296   3.296  16.013 -0.9301  1.1916  0.9225
20242LIG    H1782257   3.608   3.319  16.200 -0.0109 -0.7640  0.0987
20242LIG    H1882258   3.176   3.332  16.197  0.6770 -1.5439 -1.1626
20242LIG    H1982259   3.499   3.435  15.743 -1.6444  0.1859 -0.9081
20242LIG    H2082260   3.344   3.358  15.790 -0.2440 -0.0637 -0.9558
20242LIG    H2182261   3.478   3.257  15.783 -4.5742 -0.3122 -1.7498
20242LIG    H2282262   3.244   3.516  15.942 -1.5897  1.6601 -0.4058
20242LIG    H2382263   3.653   3.590  16.014 -0.3853 -0.3886  0.0678
20242LIG    H2482264   3.600   3.831  16.078 -0.3841 -0.5437  0.5016
   6.79711   6.79711  17.41706
